<event>
12    1  0.8135779E-002  0.1889756E+03  0.7818608E-02  0.1159624E+00
         21   -1    0    0  503  502  0.00000000000E+00  0.00000000000E+00  0.51920689258E+02  0.51920689258E+02  0.00000000000E+00 0.  1.
         21   -1    0    0  501  503 -0.00000000000E+00 -0.00000000000E+00 -0.74840644990E+03  0.74840644990E+03  0.00000000000E+00 0. -1.
          6    2    1    2  501    0 -0.18711190243E+02  0.71420608064E+02 -0.46645193447E+03  0.50327844879E+03  0.17395625295E+03 0.  0.
         24    2    3    3    0    0 -0.86272958810E+00  0.10078246617E+03 -0.21681498863E+03  0.25124396506E+03  0.77181221110E+02 0.  0.
         -6    2    1    2    0  502  0.18711190243E+02 -0.71420608064E+02 -0.23003382617E+03  0.29704869038E+03  0.17283330516E+03 0.  0.
        -24    2    5    5    0    0  0.42809336949E+01 -0.82502255872E+02 -0.68014174945E+02  0.13394291915E+03  0.80559474804E+02 0.  0.
          5    1    3    3  501    0 -0.17848460655E+02 -0.29361858107E+02 -0.24963694584E+03  0.25203448373E+03  0.47000000000E+01 0. -1.
        -11    1    4    4    0    0  0.18653088712E+02 -0.24486829648E+01 -0.56689887034E+02  0.59730034813E+02  0.00000000000E+00 0.  1.
         12    1    4    4    0    0 -0.19515818300E+02  0.10323114914E+03 -0.16012510160E+03  0.19151393025E+03  0.00000000000E+00 0. -1.
         -5    1    5    5    0  502  0.14430256548E+02  0.11081647807E+02 -0.16201965123E+03  0.16310577122E+03  0.47000000000E+01 0.  1.
         13    1    6    6    0    0 -0.13372429167E+02 -0.23047173972E+02 -0.66791469943E+02  0.71910322952E+02  0.00000000000E+00 0. -1.
        -14    1    6    6    0    0  0.17653362862E+02 -0.59455081899E+02 -0.12227050019E+01  0.62032596202E+02  0.00000000000E+00 0.  1.
</event>
<event>
12    1  0.8135779E-002  0.3878182E+03  0.7818608E-02  0.1048129E+00
         21   -1    0    0  503  502  0.00000000000E+00  0.00000000000E+00  0.13291650248E+03  0.13291650248E+03  0.00000000000E+00 0. -1.
         21   -1    0    0  501  503 -0.00000000000E+00 -0.00000000000E+00 -0.15195059440E+04  0.15195059440E+04  0.00000000000E+00 0.  1.
          6    2    1    2  501    0  0.33347608492E+03  0.95514805817E+02 -0.11119468436E+04  0.11776369311E+04  0.17341736146E+03 0.  0.
         24    2    3    3    0    0  0.22438217291E+03  0.90704186976E+02 -0.56445070837E+03  0.61933707284E+03  0.79994990836E+02 0.  0.
         -6    2    1    2    0  502 -0.33347608492E+03 -0.95514805817E+02 -0.27464259791E+03  0.47478551533E+03  0.17223051890E+03 0.  0.
        -24    2    5    5    0    0 -0.13995316022E+03 -0.10661069569E+03 -0.11866804994E+03  0.22593939667E+03  0.77548548683E+02 0.  0.
          5    1    3    3  501    0  0.10909391200E+03  0.48106188406E+01 -0.54749613520E+03  0.55829985827E+03  0.47000000000E+01 0. -1.
        -11    1    4    4    0    0  0.14476029094E+03  0.83655316274E+02 -0.44719704646E+03  0.47742952583E+03  0.00000000000E+00 0.  1.
         12    1    4    4    0    0  0.79621881968E+02  0.70488707026E+01 -0.11725366192E+03  0.14190754701E+03  0.00000000000E+00 0. -1.
         -5    1    5    5    0  502 -0.19352292470E+03  0.11095889873E+02 -0.15597454797E+03  0.24884611866E+03  0.47000000000E+01 0.  1.
         11    1    6    6    0    0 -0.14090334944E+03 -0.77907854145E+02 -0.11290247149E+03  0.19664779605E+03  0.00000000000E+00 0. -1.
        -12    1    6    6    0    0  0.95018922927E+00 -0.28702841546E+02 -0.57655784521E+01  0.29291600626E+02  0.00000000000E+00 0.  1.
</event>
<event>
12    1  0.8135779E-002  0.1991411E+03  0.7818608E-02  0.1150479E+00
         21   -1    0    0  503  502  0.00000000000E+00  0.00000000000E+00  0.30382952408E+03  0.30382952408E+03  0.00000000000E+00 0. -1.
         21   -1    0    0  501  503 -0.00000000000E+00 -0.00000000000E+00 -0.20362333403E+03  0.20362333403E+03  0.00000000000E+00 0.  1.
          6    2    1    2  501    0  0.15992080520E+02 -0.99953820642E+02 -0.10196546081E+03  0.22367381649E+03  0.17142493425E+03 0.  0.
         24    2    3    3    0    0  0.26416236637E+02 -0.46919368647E+02  0.12203899779E+02  0.97269508699E+02  0.80082316653E+02 0.  0.
         -6    2    1    2    0  502 -0.15992080520E+02  0.99953820642E+02  0.20217165087E+03  0.28377904161E+03  0.17149535021E+03 0.  0.
        -24    2    5    5    0    0 -0.30548281140E+02  0.19236212278E+01  0.14734348233E+03  0.17042110833E+03  0.79977212877E+02 0.  0.
          5    1    3    3  501    0 -0.10424156116E+02 -0.53034451995E+02 -0.11416936059E+03  0.12640430779E+03  0.47000000000E+01 0. -1.
        -11    1    4    4    0    0  0.30322311433E+02 -0.10932776967E+02 -0.28338511051E+02  0.42918986375E+02  0.00000000000E+00 0.  1.
         12    1    4    4    0    0 -0.39060747963E+01 -0.35986591679E+02  0.40542410830E+02  0.54350522324E+02  0.00000000000E+00 0. -1.
         -5    1    5    5    0  502  0.14556200619E+02  0.98030199414E+02  0.54828168536E+02  0.11335793329E+03  0.47000000000E+01 0.  1.
         13    1    6    6    0    0  0.24946462381E+01 -0.34088610767E+02  0.81861968552E+02  0.88710983193E+02  0.00000000000E+00 0. -1.
        -14    1    6    6    0    0 -0.33042927378E+02  0.36012231995E+02  0.65481513777E+02  0.81710125134E+02  0.00000000000E+00 0.  1.
</event>
<event>
12    1  0.8135779E-002  0.1773446E+03  0.7818608E-02  0.1170537E+00
         21   -1    0    0  501  502  0.00000000000E+00  0.00000000000E+00  0.29224500273E+02  0.29224500273E+02  0.00000000000E+00 0. -1.
         21   -1    0    0  502  503 -0.00000000000E+00 -0.00000000000E+00 -0.11601671180E+04  0.11601671180E+04  0.00000000000E+00 0. -1.
         -6    2    1    2    0  503  0.19805871936E+02  0.34456912674E+02 -0.40142837696E+03  0.43863057142E+03  0.17225703168E+03 0.  0.
        -24    2    3    3    0    0 -0.36235903990E+02  0.47337472314E+02 -0.34108336274E+03  0.35514284654E+03  0.78960142368E+02 0.  0.
          6    2    1    2  501    0 -0.19805871936E+02 -0.34456912674E+02 -0.72951424078E+03  0.75076104687E+03  0.17283393936E+03 0.  0.
         24    2    5    5    0    0 -0.12461973112E+02  0.48337520713E+02 -0.33996613139E+03  0.35241613277E+03  0.78283736928E+02 0.  0.
          5    1    5    5  501    0 -0.73438988239E+01 -0.82794433387E+02 -0.38954810940E+03  0.39834491410E+03  0.47000000000E+01 0. -1.
        -13    1    6    6    0    0  0.22239388389E+02  0.28585232086E+01 -0.19937835756E+03  0.20063521878E+03  0.00000000000E+00 0.  1.
         14    1    6    6    0    0 -0.34701361501E+02  0.45478997505E+02 -0.14058777382E+03  0.15178091399E+03  0.00000000000E+00 0. -1.
         -5    1    3    3    0  503  0.56041775926E+02 -0.12880559640E+02 -0.60345014217E+02  0.83487724885E+02  0.47000000000E+01 0.  1.
         11    1    4    4    0    0  0.16830903025E+02  0.37658628471E+02 -0.19749164097E+03  0.20175331435E+03  0.00000000000E+00 0. -1.
        -12    1    4    4    0    0 -0.53066807016E+02  0.96788438430E+01 -0.14359172177E+03  0.15338953219E+03  0.00000000000E+00 0.  1.
</event>
<event>
12    1  0.8135779E-002  0.2455255E+03  0.7818608E-02  0.1116700E+00
         21   -1    0    0  501  502  0.00000000000E+00  0.00000000000E+00  0.55180792193E+02  0.55180792193E+02  0.00000000000E+00 0. -1.
         21   -1    0    0  502  503 -0.00000000000E+00 -0.00000000000E+00 -0.12149928700E+04  0.12149928700E+04  0.00000000000E+00 0.  1.
         -6    2    1    2    0  503  0.16414140725E+03  0.60426870593E+02 -0.36313037751E+03  0.43651635590E+03  0.16759788075E+03 0.  0.
        -24    2    3    3    0    0  0.10011124312E+03 -0.18848156285E+02 -0.26582130087E+03  0.29553572531E+03  0.79390723272E+02 0.  0.
          6    2    1    2  501    0 -0.16414140725E+03 -0.60426870593E+02 -0.79668170034E+03  0.83365730634E+03  0.17230485919E+03 0.  0.
         24    2    5    5    0    0 -0.15170453858E+03 -0.73933951488E+02 -0.46358138600E+03  0.50001824036E+03  0.81425076232E+02 0.  0.
          5    1    5    5  501    0 -0.12436868666E+02  0.13507080894E+02 -0.33310031434E+03  0.33363906598E+03  0.47000000000E+01 0. -1.
        -11    1    6    6    0    0 -0.14408015744E+03 -0.74725683152E+02 -0.46473937355E+03  0.49226588834E+03  0.00000000000E+00 0.  1.
         12    1    6    6    0    0 -0.76243811370E+01  0.79173166429E+00  0.11579875501E+01  0.77523520248E+01  0.00000000000E+00 0. -1.
         -5    1    3    3    0  503  0.64030164128E+02  0.79275026879E+02 -0.97309076643E+02  0.14098063059E+03  0.47000000000E+01 0.  1.
         11    1    4    4    0    0  0.10773710706E+03 -0.27604605450E+01 -0.24771001740E+03  0.27013914396E+03  0.00000000000E+00 0. -1.
        -12    1    4    4    0    0 -0.76258639406E+01 -0.16087695740E+02 -0.18111283472E+02  0.25396581346E+02  0.00000000000E+00 0.  1.
</event>
<event>
12    1  0.8135779E-002  0.2245328E+03  0.7818608E-02  0.1131166E+00
         21   -1    0    0  501  502  0.00000000000E+00  0.00000000000E+00  0.22239404247E+03  0.22239404247E+03  0.00000000000E+00 0.  1.
         21   -1    0    0  502  503 -0.00000000000E+00 -0.00000000000E+00 -0.23067062679E+03  0.23067062679E+03  0.00000000000E+00 0. -1.
         -6    2    1    2    0  503 -0.12569986459E+03  0.60061308510E+02 -0.44675643801E+02  0.22893422025E+03  0.17608846445E+03 0.  0.
        -24    2    3    3    0    0 -0.14532497977E+03  0.48889152168E+01 -0.26923945160E+02  0.16756361709E+03  0.78799845897E+02 0.  0.
          6    2    1    2  501    0  0.12569986459E+03 -0.60061308510E+02  0.36399059480E+02  0.22413044901E+03  0.17176073447E+03 0.  0.
         24    2    5    5    0    0  0.15560293290E+03 -0.52423404015E+02  0.51191248827E+02  0.18958439359E+03  0.79757208583E+02 0.  0.
          5    1    5    5  501    0 -0.29903068310E+02 -0.76379044950E+01 -0.14792189347E+02  0.34546055421E+02  0.47000000000E+01 0. -1.
        -13    1    6    6    0    0  0.10737789659E+03 -0.72930151393E+02  0.31227361177E+02  0.13350643334E+03  0.00000000000E+00 0.  1.
         14    1    6    6    0    0  0.48225036319E+02  0.20506747378E+02  0.19963887651E+02  0.56077960253E+02  0.00000000000E+00 0. -1.
         -5    1    3    3    0  503  0.19625115174E+02  0.55172393293E+02 -0.17751698641E+02  0.61370603157E+02  0.47000000000E+01 0.  1.
         13    1    4    4    0    0 -0.61630671220E+02  0.28976498590E+02 -0.40776890241E+02  0.79377149629E+02  0.00000000000E+00 0. -1.
        -14    1    4    4    0    0 -0.83694308548E+02 -0.24087583374E+02  0.13852945081E+02  0.88186467463E+02  0.00000000000E+00 0.  1.
</event>
<event>
12    1  0.8135779E-002  0.1727311E+03  0.7818608E-02  0.1175049E+00
         21   -1    0    0  503  502  0.00000000000E+00  0.00000000000E+00  0.50522964925E+03  0.50522964925E+03  0.00000000000E+00 0.  1.
         21   -1    0    0  501  503 -0.00000000000E+00 -0.00000000000E+00 -0.74622927110E+02  0.74622927110E+02  0.00000000000E+00 0.  1.
          6    2    1    2  501    0  0.10373488067E+02  0.14020138139E+01  0.34788114772E+03  0.38840356541E+03  0.17241363575E+03 0.  0.
         24    2    3    3    0    0 -0.50748512680E+02 -0.24579422130E+02  0.25149353852E+03  0.27125581599E+03  0.84564521277E+02 0.  0.
         -6    2    1    2    0  502 -0.10373488067E+02 -0.14020138139E+01  0.82725574424E+02  0.19144901095E+03  0.17233580078E+03 0.  0.
        -24    2    5    5    0    0  0.13990339634E+02  0.49078676274E+02  0.95886847807E+02  0.13368046164E+03  0.77921320405E+02 0.  0.
          5    1    3    3  501    0  0.61122000747E+02  0.25981435944E+02  0.96387609197E+02  0.11714774943E+03  0.47000000000E+01 0. -1.
        -13    1    4    4    0    0  0.55319744247E+00  0.26806617428E+02  0.45172673114E+02  0.52530668772E+02  0.00000000000E+00 0.  1.
         14    1    4    4    0    0 -0.51301710122E+02 -0.51386039559E+02  0.20632086540E+03  0.21872514721E+03  0.00000000000E+00 0. -1.
         -5    1    5    5    0  502 -0.24363827701E+02 -0.50480690088E+02 -0.13161273383E+02  0.57768549307E+02  0.47000000000E+01 0.  1.
         13    1    6    6    0    0  0.21275546678E+02 -0.16232256156E+01  0.75656065593E+02  0.78607404288E+02  0.00000000000E+00 0. -1.
        -14    1    6    6    0    0 -0.72852070445E+01  0.50701901890E+02  0.20230782214E+02  0.55073057350E+02  0.00000000000E+00 0.  1.
</event>
<event>
12    1  0.8135779E-002  0.1922816E+03  0.7818608E-02  0.1157690E+00
         21   -1    0    0  503  502  0.00000000000E+00  0.00000000000E+00  0.16154348425E+03  0.16154348425E+03  0.00000000000E+00 0. -1.
         21   -1    0    0  501  503 -0.00000000000E+00 -0.00000000000E+00 -0.32236763698E+03  0.32236763698E+03  0.00000000000E+00 0. -1.
          6    2    1    2  501    0 -0.59981967132E+02  0.59176844232E+02 -0.21608857061E+03  0.28925161843E+03  0.17283660823E+03 0.  0.
         24    2    3    3    0    0 -0.61718051652E+02  0.10076882548E+03 -0.12754364634E+03  0.19129652409E+03  0.79771575882E+02 0.  0.
         -6    2    1    2    0  502  0.59981967132E+02 -0.59176844232E+02  0.55264417875E+02  0.19465950279E+03  0.16654858412E+03 0.  0.
        -24    2    5    5    0    0  0.69083082836E+02 -0.83501866463E+02 -0.32018736971E+00  0.13312678504E+03  0.77314968402E+02 0.  0.
          5    1    3    3  501    0  0.17360845193E+01 -0.41591981248E+02 -0.88544924274E+02  0.97955094346E+02  0.47000000000E+01 0. -1.
        -13    1    4    4    0    0 -0.56469071084E+02  0.62823830357E+02 -0.12755552178E+03  0.15299019833E+03  0.00000000000E+00 0.  1.
         14    1    4    4    0    0 -0.52489805673E+01  0.37944995124E+02  0.11875438784E-01  0.38306325756E+02  0.00000000000E+00 0. -1.
         -5    1    5    5    0  502 -0.91011157039E+01  0.24325022231E+02  0.55584605245E+02  0.61532717751E+02  0.47000000000E+01 0.  1.
         13    1    6    6    0    0  0.66913765343E+02 -0.23096381552E+02  0.10982849571E+02  0.71634613267E+02  0.00000000000E+00 0. -1.
        -14    1    6    6    0    0  0.21693174933E+01 -0.60405484911E+02 -0.11303036941E+02  0.61492171776E+02  0.00000000000E+00 0.  1.
</event>
<event>
12    1  0.8135779E-002  0.1928825E+03  0.7818608E-02  0.1155999E+00
         21   -1    0    0  501  502  0.00000000000E+00  0.00000000000E+00  0.16183308452E+04  0.16183308452E+04  0.00000000000E+00 0.  1.
         21   -1    0    0  502  503 -0.00000000000E+00 -0.00000000000E+00 -0.25855273368E+02  0.25855273368E+02  0.00000000000E+00 0.  1.
         -6    2    1    2    0  503 -0.76422364060E+02  0.39785258176E+02  0.51870945089E+03  0.55323363127E+03  0.17200206925E+03 0.  0.
        -24    2    3    3    0    0  0.34977143717E+00  0.38768907934E+02  0.41548634368E+03  0.42450098731E+03  0.77904017143E+02 0.  0.
          6    2    1    2  501    0  0.76422364060E+02 -0.39785258176E+02  0.10737661209E+04  0.10909524873E+04  0.17256999323E+03 0.  0.
         24    2    5    5    0    0  0.79965438295E+02 -0.22504927515E+01  0.10125607194E+04  0.10189135869E+04  0.80660715836E+02 0.  0.
          5    1    5    5  501    0 -0.35430742351E+01 -0.37534765424E+02  0.61205401498E+02  0.72038900346E+02  0.47000000000E+01 0. -1.
        -13    1    6    6    0    0  0.59733007783E+02 -0.29957015252E+02  0.85765004778E+03  0.86024941699E+03  0.00000000000E+00 0.  1.
         14    1    6    6    0    0  0.20232430512E+02  0.27706522500E+02  0.15491067163E+03  0.15866416992E+03  0.00000000000E+00 0. -1.
         -5    1    3    3    0  503 -0.76772135497E+02  0.10163502419E+01  0.10322310721E+03  0.12873264395E+03  0.47000000000E+01 0.  1.
         11    1    4    4    0    0  0.21542924066E+02  0.38642547239E+01  0.31545101778E+02  0.38394315830E+02  0.00000000000E+00 0. -1.
        -12    1    4    4    0    0 -0.21193152629E+02  0.34904653210E+02  0.38394124190E+03  0.38610667148E+03  0.00000000000E+00 0.  1.
</event>
<event>
12    1  0.8135779E-002  0.1742373E+03  0.7818608E-02  0.1173725E+00
         21   -1    0    0  501  502  0.00000000000E+00  0.00000000000E+00  0.48436241151E+02  0.48436241151E+02  0.00000000000E+00 0. -1.
         21   -1    0    0  502  503 -0.00000000000E+00 -0.00000000000E+00 -0.62518542371E+03  0.62518542371E+03  0.00000000000E+00 0. -1.
         -6    2    1    2    0  503  0.28873039607E+02  0.40474937791E+00 -0.30469067779E+03  0.35055131543E+03  0.17092688314E+03 0.  0.
        -24    2    3    3    0    0  0.17587667819E+02 -0.63717528141E+02 -0.22245576113E+03  0.24555751748E+03  0.80266302255E+02 0.  0.
          6    2    1    2  501    0 -0.28873039607E+02 -0.40474937791E+00 -0.27205850477E+03  0.32307034943E+03  0.17182783367E+03 0.  0.
         24    2    5    5    0    0 -0.31214214551E+02  0.30010070727E+02 -0.56582821015E+02  0.10539535621E+03  0.77663594705E+02 0.  0.
          5    1    5    5  501    0  0.23411749436E+01 -0.30414820105E+02 -0.21547568375E+03  0.21767499321E+03  0.47000000000E+01 0. -1.
        -13    1    6    6    0    0 -0.10489118785E+02 -0.25899232952E+02 -0.26908295509E+02  0.38792373575E+02  0.00000000000E+00 0.  1.
         14    1    6    6    0    0 -0.20725095766E+02  0.55909303680E+02 -0.29674525506E+02  0.66602982639E+02  0.00000000000E+00 0. -1.
         -5    1    3    3    0  503  0.11285371788E+02  0.64122277519E+02 -0.82234916661E+02  0.10499379795E+03  0.47000000000E+01 0.  1.
         13    1    4    4    0    0  0.19162128789E+01  0.10251774500E+02  0.18177240776E+00  0.10430905684E+02  0.00000000000E+00 0. -1.
        -14    1    4    4    0    0  0.15671454940E+02 -0.73969302641E+02 -0.22263753354E+03  0.23512661179E+03  0.00000000000E+00 0.  1.
</event>
<event>
12    1  0.8135779E-002  0.1891263E+03  0.7818608E-02  0.1159961E+00
         21   -1    0    0  501  502  0.00000000000E+00  0.00000000000E+00  0.95692997516E+03  0.95692997516E+03  0.00000000000E+00 0.  1.
         21   -1    0    0  502  503 -0.00000000000E+00 -0.00000000000E+00 -0.47053463829E+02  0.47053463829E+02  0.00000000000E+00 0.  1.
         -6    2    1    2    0  503 -0.72982696257E+02  0.47122934477E+01  0.21731361081E+03  0.28606135528E+03  0.17104740243E+03 0.  0.
        -24    2    3    3    0    0 -0.62863611539E+02 -0.57034379195E+02  0.17669216937E+03  0.21131351944E+03  0.78921015674E+02 0.  0.
          6    2    1    2  501    0  0.72982696257E+02 -0.47122934477E+01  0.69256290052E+03  0.71792208371E+03  0.17441349558E+03 0.  0.
         24    2    5    5    0    0 -0.25216925667E+02  0.23971089343E+02  0.30505024652E+03  0.31710535601E+03  0.79307297545E+02 0.  0.
          5    1    5    5  501    0  0.98199621925E+02 -0.28683382791E+02  0.38751265400E+03  0.40081672770E+03  0.47000000000E+01 0. -1.
        -11    1    6    6    0    0  0.18613309437E+02  0.42494583438E+01  0.20730795944E+03  0.20818526181E+03  0.00000000000E+00 0.  1.
         12    1    6    6    0    0 -0.43830235104E+02  0.19721630999E+02  0.97742287075E+02  0.10892009420E+03  0.00000000000E+00 0. -1.
         -5    1    3    3    0  503 -0.10119084718E+02  0.61746672643E+02  0.40621441441E+02  0.74747835840E+02  0.47000000000E+01 0.  1.
         11    1    4    4    0    0 -0.18105268857E+02  0.18397752505E+02  0.60134008473E+02  0.65439873415E+02  0.00000000000E+00 0. -1.
        -12    1    4    4    0    0 -0.44758342683E+02 -0.75432131700E+02  0.11655816090E+03  0.14587364602E+03  0.00000000000E+00 0.  1.
</event>
<event>
12    1  0.8135779E-002  0.1850437E+03  0.7818608E-02  0.1163328E+00
         21   -1    0    0  503  502  0.00000000000E+00  0.00000000000E+00  0.31980658121E+03  0.31980658121E+03  0.00000000000E+00 0.  1.
         21   -1    0    0  501  503 -0.00000000000E+00 -0.00000000000E+00 -0.10651801534E+03  0.10651801534E+03  0.00000000000E+00 0.  1.
          6    2    1    2  501    0  0.50107885041E+02 -0.40315990325E+02  0.11708500167E+03  0.21897507433E+03  0.17350794317E+03 0.  0.
         24    2    3    3    0    0  0.10105483221E+03 -0.31171876224E+02  0.65873880452E+02  0.14601018425E+03  0.76130419669E+02 0.  0.
         -6    2    1    2    0  502 -0.50107885041E+02  0.40315990325E+02  0.96203564205E+02  0.20734952223E+03  0.17205382699E+03 0.  0.
        -24    2    5    5    0    0 -0.22443666710E+02 -0.43537276515E+02  0.67930201725E+02  0.11451551789E+03  0.78103001922E+02 0.  0.
          5    1    3    3  501    0 -0.50946947166E+02 -0.91441141013E+01  0.51211121214E+02  0.72964890080E+02  0.47000000000E+01 0. -1.
        -11    1    4    4    0    0  0.21472896612E+02 -0.33635057828E+02  0.51421712810E+02  0.65089130831E+02  0.00000000000E+00 0.  1.
         12    1    4    4    0    0  0.79581935596E+02  0.24631816042E+01  0.14452167641E+02  0.80921053418E+02  0.00000000000E+00 0. -1.
         -5    1    5    5    0  502 -0.27664218332E+02  0.83853266840E+02  0.28273362480E+02  0.92834004339E+02  0.47000000000E+01 0.  1.
         13    1    6    6    0    0  0.55107741176E+01 -0.50765435665E+02  0.68739096556E+02  0.85630377115E+02  0.00000000000E+00 0. -1.
        -14    1    6    6    0    0 -0.27954440827E+02  0.72281591500E+01 -0.80889483068E+00  0.28885140774E+02  0.00000000000E+00 0.  1.
</event>
<event>
12    1  0.8135779E-002  0.1792422E+03  0.7818608E-02  0.1169015E+00
         21   -1    0    0  503  502  0.00000000000E+00  0.00000000000E+00  0.13910517061E+03  0.13910517061E+03  0.00000000000E+00 0. -1.
         21   -1    0    0  501  503 -0.00000000000E+00 -0.00000000000E+00 -0.34171655137E+03  0.34171655137E+03  0.00000000000E+00 0. -1.
          6    2    1    2  501    0  0.20840511217E+02 -0.36550699278E+02 -0.24008176321E+03  0.29961146865E+03  0.17423403397E+03 0.  0.
         24    2    3    3    0    0  0.71695032362E+02 -0.49206380564E+02 -0.20455263987E+03  0.23612322411E+03  0.79692841158E+02 0.  0.
         -6    2    1    2    0  502 -0.20840511217E+02  0.36550699278E+02  0.37470382454E+02  0.18121025332E+03  0.17222905046E+03 0.  0.
        -24    2    5    5    0    0  0.37775861522E+02  0.47977859978E+02  0.61411709772E+02  0.11669873258E+03  0.78219596819E+02 0.  0.
          5    1    3    3  501    0 -0.50854521145E+02  0.12655681286E+02 -0.35529123342E+02  0.63488244543E+02  0.47000000000E+01 0. -1.
        -13    1    4    4    0    0  0.46213772686E+02  0.51318019892E+01 -0.41310348589E+02  0.62198015065E+02  0.00000000000E+00 0.  1.
         14    1    4    4    0    0  0.25481259676E+02 -0.54338182553E+02 -0.16324229128E+03  0.17392520904E+03  0.00000000000E+00 0. -1.
         -5    1    5    5    0  502 -0.58616372739E+02 -0.11427160700E+02 -0.23941327319E+02  0.64511520742E+02  0.47000000000E+01 0.  1.
         13    1    6    6    0    0 -0.13294574607E+02  0.35599656945E+02  0.50209534482E+02  0.62968870416E+02  0.00000000000E+00 0. -1.
        -14    1    6    6    0    0  0.51070436129E+02  0.12378203033E+02  0.11202175290E+02  0.53729862162E+02  0.00000000000E+00 0.  1.
</event>
<event>
12    1  0.8135779E-002  0.2668862E+03  0.7818608E-02  0.1103308E+00
         21   -1    0    0  501  502  0.00000000000E+00  0.00000000000E+00  0.66644297539E+03  0.66644297539E+03  0.00000000000E+00 0.  1.
         21   -1    0    0  502  503 -0.00000000000E+00 -0.00000000000E+00 -0.14050395386E+03  0.14050395386E+03  0.00000000000E+00 0. -1.
         -6    2    1    2    0  503 -0.58812334135E+02 -0.19189135674E+03  0.63121636927E+02  0.27269214634E+03  0.17348049513E+03 0.  0.
        -24    2    3    3    0    0 -0.10440647547E+03 -0.15218067220E+03  0.30742054885E+02  0.20394411710E+03  0.81169328280E+02 0.  0.
          6    2    1    2  501    0  0.58812334135E+02  0.19189135674E+03  0.46281738460E+03  0.53425478290E+03  0.17591775954E+03 0.  0.
         24    2    5    5    0    0  0.24723953755E+01  0.34439032796E+02  0.10327690926E+03  0.13769852406E+03  0.84276947164E+02 0.  0.
          5    1    5    5  501    0  0.56339938759E+02  0.15745232395E+03  0.35954047534E+03  0.39655625884E+03  0.47000000000E+01 0. -1.
        -11    1    6    6    0    0 -0.13266300251E+02  0.39130892405E+02  0.11180329192E+03  0.11919394928E+03  0.00000000000E+00 0.  1.
         12    1    6    6    0    0  0.15738695627E+02 -0.46918596090E+01 -0.85263826521E+01  0.18504574779E+02  0.00000000000E+00 0. -1.
         -5    1    3    3    0  503  0.45594141331E+02 -0.39710684548E+02  0.32379582041E+02  0.68748029238E+02  0.47000000000E+01 0.  1.
         11    1    4    4    0    0  0.56653244268E+01  0.33452161996E+01 -0.71070521081E+01  0.96848625159E+01  0.00000000000E+00 0. -1.
        -12    1    4    4    0    0 -0.11007179989E+03 -0.15552588840E+03  0.37849106994E+02  0.19425925459E+03  0.00000000000E+00 0.  1.
</event>
<event>
12    1  0.8135779E-002  0.2405963E+03  0.7818608E-02  0.1119563E+00
         21   -1    0    0  503  502  0.00000000000E+00  0.00000000000E+00  0.54511282421E+03  0.54511282421E+03  0.00000000000E+00 0. -1.
         21   -1    0    0  501  503 -0.00000000000E+00 -0.00000000000E+00 -0.24959279191E+03  0.24959279191E+03  0.00000000000E+00 0.  1.
          6    2    1    2  501    0  0.12050790368E+03  0.11427505287E+03 -0.15402061758E+03  0.28482976403E+03  0.17269829554E+03 0.  0.
         24    2    3    3    0    0  0.13969489428E+03  0.47888443543E+02 -0.98877958919E+02  0.19629657641E+03  0.83351836437E+02 0.  0.
         -6    2    1    2    0  502 -0.12050790368E+03 -0.11427505287E+03  0.44954064988E+03  0.50987585209E+03  0.17408516910E+03 0.  0.
        -24    2    5    5    0    0 -0.98706485364E+02 -0.68194076350E+02  0.43682193991E+03  0.45712536564E+03  0.61292662061E+02 0.  0.
          5    1    3    3  501    0 -0.19186990600E+02  0.66386609330E+02 -0.55142658662E+02  0.88533187624E+02  0.47000000000E+01 0. -1.
        -13    1    4    4    0    0  0.25085404522E+01 -0.17117374463E+02 -0.14757217489E+02  0.22739233754E+02  0.00000000000E+00 0.  1.
         14    1    4    4    0    0  0.13718635382E+03  0.65005818005E+02 -0.84120741429E+02  0.17355734265E+03  0.00000000000E+00 0. -1.
         -5    1    5    5    0  502 -0.21801418311E+02 -0.46080976523E+02  0.12718709964E+02  0.52750486451E+02  0.47000000000E+01 0.  1.
         11    1    6    6    0    0 -0.60219262040E+02 -0.58589956849E+02  0.19887153739E+03  0.21589124796E+03  0.00000000000E+00 0. -1.
        -12    1    6    6    0    0 -0.38487223323E+02 -0.96041195007E+01  0.23795040252E+03  0.24123411768E+03  0.00000000000E+00 0.  1.
</event>
<event>
12    1  0.8135779E-002  0.2381252E+03  0.7818608E-02  0.1121500E+00
         21   -1    0    0  503  502  0.00000000000E+00  0.00000000000E+00  0.29638910765E+03  0.29638910765E+03  0.00000000000E+00 0. -1.
         21   -1    0    0  501  503 -0.00000000000E+00 -0.00000000000E+00 -0.19115807438E+03  0.19115807438E+03  0.00000000000E+00 0.  1.
          6    2    1    2  501    0  0.15836712072E+03  0.28068787857E+02  0.77144532353E+02  0.24777135478E+03  0.17196326236E+03 0.  0.
         24    2    3    3    0    0  0.13953218880E+03  0.68633209120E+01 -0.52532091439E+01  0.16050220621E+03  0.78848114164E+02 0.  0.
         -6    2    1    2    0  502 -0.15836712072E+03 -0.28068787857E+02  0.28086500914E+02  0.23977582724E+03  0.17560066634E+03 0.  0.
        -24    2    5    5    0    0 -0.16363531912E+03 -0.47440694178E+02  0.60657087826E+02  0.20122770406E+03  0.88239273863E+02 0.  0.
          5    1    3    3  501    0  0.18834931921E+02  0.21205466945E+02  0.82397741497E+02  0.87269148573E+02  0.47000000000E+01 0. -1.
        -11    1    4    4    0    0  0.35704614835E+02  0.34819621624E+02 -0.16160271831E+02  0.52424993621E+02  0.00000000000E+00 0.  1.
         12    1    4    4    0    0  0.10382757396E+03 -0.27956300712E+02  0.10907062687E+02  0.10807721259E+03  0.00000000000E+00 0. -1.
         -5    1    5    5    0  502  0.52681984016E+01  0.19371906321E+02 -0.32570586912E+02  0.38548123179E+02  0.47000000000E+01 0.  1.
         13    1    6    6    0    0 -0.11451843458E+03 -0.16586902518E+02 -0.21509400701E+01  0.11573341668E+03  0.00000000000E+00 0. -1.
        -14    1    6    6    0    0 -0.49116884538E+02 -0.30853791659E+02  0.62808027896E+02  0.85494287380E+02  0.00000000000E+00 0.  1.
</event>
<event>
12    1  0.8135779E-002  0.2071230E+03  0.7818608E-02  0.1143889E+00
         21   -1    0    0  501  502  0.00000000000E+00  0.00000000000E+00  0.13674140609E+03  0.13674140609E+03  0.00000000000E+00 0. -1.
         21   -1    0    0  502  503 -0.00000000000E+00 -0.00000000000E+00 -0.32935645413E+03  0.32935645413E+03  0.00000000000E+00 0.  1.
         -6    2    1    2    0  503 -0.83568620940E+02  0.77189504735E+02 -0.14739830829E+03  0.25421686942E+03  0.17308385644E+03 0.  0.
        -24    2    3    3    0    0 -0.47416230072E+02  0.11967707598E+03 -0.11457641106E+03  0.18932036710E+03  0.78380775931E+02 0.  0.
          6    2    1    2  501    0  0.83568620940E+02 -0.77189504735E+02 -0.45216739752E+02  0.21188099080E+03  0.17293659723E+03 0.  0.
         24    2    5    5    0    0  0.35602754023E+02 -0.11245652674E+03 -0.12835399320E+02  0.14394625419E+03  0.81496933185E+02 0.  0.
          5    1    5    5  501    0  0.47965866916E+02  0.35267022008E+02 -0.32381340432E+02  0.67934736612E+02  0.47000000000E+01 0. -1.
        -13    1    6    6    0    0 -0.22547459923E+02 -0.38767221710E+02 -0.21390281327E+02  0.49687317933E+02  0.00000000000E+00 0.  1.
         14    1    6    6    0    0  0.58150213946E+02 -0.73689305033E+02  0.85548820074E+01  0.94258936257E+02  0.00000000000E+00 0. -1.
         -5    1    3    3    0  503 -0.36152390868E+02 -0.42487571246E+02 -0.32821897230E+02  0.64896502322E+02  0.47000000000E+01 0.  1.
         11    1    4    4    0    0 -0.43778965853E+01  0.56858828692E+02 -0.69054960715E+01  0.57443696388E+02  0.00000000000E+00 0. -1.
        -12    1    4    4    0    0 -0.43038333486E+02  0.62818247289E+02 -0.10767091499E+03  0.13187667071E+03  0.00000000000E+00 0.  1.
</event>
<event>
12    1  0.8135779E-002  0.1980839E+03  0.7818608E-02  0.1151566E+00
         21   -1    0    0  503  502  0.00000000000E+00  0.00000000000E+00  0.70178791290E+02  0.70178791290E+02  0.00000000000E+00 0.  1.
         21   -1    0    0  501  503 -0.00000000000E+00 -0.00000000000E+00 -0.74424476234E+03  0.74424476234E+03  0.00000000000E+00 0. -1.
          6    2    1    2  501    0  0.21128194747E+02 -0.96564424893E+02 -0.54217151008E+03  0.57722368560E+03  0.17165706543E+03 0.  0.
         24    2    3    3    0    0 -0.12044920171E+02 -0.62982430830E+02 -0.15572210889E+03  0.18787366883E+03  0.83278289781E+02 0.  0.
         -6    2    1    2    0  502 -0.21128194747E+02  0.96564424893E+02 -0.13189446097E+03  0.23719986803E+03  0.17057707873E+03 0.  0.
        -24    2    5    5    0    0  0.49097861506E+02  0.46524647090E+02 -0.10014588139E+03  0.14519040849E+03  0.80473066086E+02 0.  0.
          5    1    3    3  501    0  0.33173114918E+02 -0.33581994064E+02 -0.38644940119E+03  0.38935001677E+03  0.47000000000E+01 0. -1.
        -13    1    4    4    0    0 -0.23683749566E+02 -0.80012048781E+02 -0.11339483315E+03  0.14078791187E+03  0.00000000000E+00 0.  1.
         14    1    4    4    0    0  0.11638829396E+02  0.17029617951E+02 -0.42327275742E+02  0.47085756965E+02  0.00000000000E+00 0. -1.
         -5    1    5    5    0  502 -0.70226056254E+02  0.50039777803E+02 -0.31748579578E+02  0.92009459540E+02  0.47000000000E+01 0.  1.
         11    1    6    6    0    0  0.12430910737E+02 -0.15742644513E+02 -0.58374399423E+02  0.61724621554E+02  0.00000000000E+00 0. -1.
        -12    1    6    6    0    0  0.36666950770E+02  0.62267291603E+02 -0.41771481972E+02  0.83465786934E+02  0.00000000000E+00 0.  1.
</event>
<event>
12    1  0.8135779E-002  0.2253994E+03  0.7818608E-02  0.1130089E+00
         21   -1    0    0  503  502  0.00000000000E+00  0.00000000000E+00  0.78821296187E+02  0.78821296187E+02  0.00000000000E+00 0. -1.
         21   -1    0    0  501  503 -0.00000000000E+00 -0.00000000000E+00 -0.66738766953E+03  0.66738766953E+03  0.00000000000E+00 0.  1.
          6    2    1    2  501    0  0.14701775111E+03 -0.79829993285E+01 -0.36660688627E+03  0.42986913361E+03  0.16943705483E+03 0.  0.
         24    2    3    3    0    0  0.67486496791E+02 -0.64516744193E+02 -0.17194799179E+03  0.21207230185E+03  0.81802883831E+02 0.  0.
         -6    2    1    2    0  502 -0.14701775111E+03  0.79829993285E+01 -0.22195948707E+03  0.31633983211E+03  0.17066613038E+03 0.  0.
        -24    2    5    5    0    0 -0.78991691028E+02  0.41261795397E+02 -0.52318998038E+02  0.13050385971E+03  0.79697909839E+02 0.  0.
          5    1    3    3  501    0  0.79531254315E+02  0.56533744865E+02 -0.19465889448E+03  0.21779683176E+03  0.47000000000E+01 0. -1.
        -13    1    4    4    0    0  0.20664429825E+02 -0.20890967367E+02 -0.13503143773E+03  0.13819167975E+03  0.00000000000E+00 0.  1.
         14    1    4    4    0    0  0.46822066966E+02 -0.43625776826E+02 -0.36916554061E+02  0.73880622103E+02  0.00000000000E+00 0. -1.
         -5    1    5    5    0  502 -0.68026060077E+02 -0.33278796069E+02 -0.16964048903E+03  0.18583597240E+03  0.47000000000E+01 0.  1.
         13    1    6    6    0    0 -0.11798639039E+02 -0.12099735292E+02  0.14089576945E+02  0.22002901077E+02  0.00000000000E+00 0. -1.
        -14    1    6    6    0    0 -0.67193051989E+02  0.53361530689E+02 -0.66408574983E+02  0.10850095863E+03  0.00000000000E+00 0.  1.
</event>
<event>
12    1  0.8135779E-002  0.1956256E+03  0.7818608E-02  0.1154678E+00
         21   -1    0    0  503  502  0.00000000000E+00  0.00000000000E+00  0.19386547506E+03  0.19386547506E+03  0.00000000000E+00 0.  1.
         21   -1    0    0  501  503 -0.00000000000E+00 -0.00000000000E+00 -0.22122026739E+03  0.22122026739E+03  0.00000000000E+00 0.  1.
          6    2    1    2  501    0 -0.67844769572E+02  0.64834206962E+02 -0.89304784451E+02  0.21504586110E+03  0.17164786832E+03 0.  0.
         24    2    3    3    0    0  0.20694079471E+02  0.57213937313E+02 -0.72472529502E+02  0.12447759345E+03  0.80874743833E+02 0.  0.
         -6    2    1    2    0  502  0.67844769572E+02 -0.64834206962E+02  0.61949992119E+02  0.20003988135E+03  0.16544414603E+03 0.  0.
        -24    2    5    5    0    0  0.10627994184E+03 -0.63014448683E+02  0.65132688238E+02  0.16114523465E+03  0.80369601178E+02 0.  0.
          5    1    3    3  501    0 -0.88538849042E+02  0.76202696484E+01 -0.16832254949E+02  0.90568267654E+02  0.47000000000E+01 0. -1.
        -13    1    4    4    0    0 -0.13178009464E+02  0.56715495229E+02 -0.19131699707E+02  0.61288900024E+02  0.00000000000E+00 0.  1.
         14    1    4    4    0    0  0.33872088934E+02  0.49844208408E+00 -0.53340829795E+02  0.63188693423E+02  0.00000000000E+00 0. -1.
         -5    1    5    5    0  502 -0.38435172267E+02 -0.18197582792E+01 -0.31826961185E+01  0.38894646701E+02  0.47000000000E+01 0.  1.
         11    1    6    6    0    0  0.10538279068E+02  0.18107793685E+02  0.16080020060E+02  0.26410500998E+02  0.00000000000E+00 0. -1.
        -12    1    6    6    0    0  0.95741662771E+02 -0.81122242368E+02  0.49052668178E+02  0.13473473365E+03  0.00000000000E+00 0.  1.
</event>
<event>
12    1  0.8135779E-002  0.2019589E+03  0.7818608E-02  0.1149408E+00
         21   -1    0    0  501  502  0.00000000000E+00  0.00000000000E+00  0.65971336676E+02  0.65971336676E+02  0.00000000000E+00 0. -1.
         21   -1    0    0  502  503 -0.00000000000E+00 -0.00000000000E+00 -0.10430378664E+04  0.10430378664E+04  0.00000000000E+00 0. -1.
         -6    2    1    2    0  503 -0.67056285233E+02 -0.77005590799E+02 -0.85448879177E+03  0.87803102105E+03  0.17424400207E+03 0.  0.
        -24    2    3    3    0    0 -0.40787891087E+02  0.22879693347E+02 -0.52641366099E+03  0.53405067284E+03  0.76887230748E+02 0.  0.
          6    2    1    2  501    0  0.67056285233E+02  0.77005590799E+02 -0.12257773792E+03  0.23097818199E+03  0.16703057301E+03 0.  0.
         24    2    5    5    0    0  0.20434089841E+01  0.18867200735E+02 -0.80354921770E+01  0.86933874446E+02  0.84455802688E+02 0.  0.
          5    1    5    5  501    0  0.65012876249E+02  0.58138390064E+02 -0.11454224574E+03  0.14404430755E+03  0.47000000000E+01 0. -1.
        -13    1    6    6    0    0 -0.27054895323E+01 -0.90400603878E+01 -0.41811817068E+02  0.42863392446E+02  0.00000000000E+00 0.  1.
         14    1    6    6    0    0  0.47488985164E+01  0.27907261123E+02  0.33776324891E+02  0.44070481999E+02  0.00000000000E+00 0. -1.
         -5    1    3    3    0  503 -0.26268394146E+02 -0.99885284146E+02 -0.32807513078E+03  0.34398034821E+03  0.47000000000E+01 0.  1.
         11    1    4    4    0    0 -0.29306675557E+02 -0.19080015984E+02 -0.11131818226E+03  0.11668190067E+03  0.00000000000E+00 0. -1.
        -12    1    4    4    0    0 -0.11481215530E+02  0.41959709331E+02 -0.41509547873E+03  0.41736877217E+03  0.00000000000E+00 0.  1.
</event>
<event>
12    1  0.8135779E-002  0.3052593E+03  0.7818608E-02  0.1082831E+00
         21   -1    0    0  503  502  0.00000000000E+00  0.00000000000E+00  0.61254499558E+02  0.61254499558E+02  0.00000000000E+00 0. -1.
         21   -1    0    0  501  503 -0.00000000000E+00 -0.00000000000E+00 -0.15756355352E+04  0.15756355352E+04  0.00000000000E+00 0.  1.
          6    2    1    2  501    0 -0.20370857637E+03  0.15189363960E+03 -0.91785902908E+03  0.96679917762E+03  0.16633277113E+03 0.  0.
         24    2    3    3    0    0 -0.11106462617E+03  0.11071981512E+03 -0.75210751814E+03  0.77244424789E+03  0.80063528613E+02 0.  0.
         -6    2    1    2    0  502  0.20370857637E+03 -0.15189363960E+03 -0.59652200653E+03  0.67009085710E+03  0.16915788677E+03 0.  0.
        -24    2    5    5    0    0  0.38930414482E+02 -0.86565185113E+02 -0.30436728796E+03  0.32833638503E+03  0.78461629505E+02 0.  0.
          5    1    3    3  501    0 -0.92643950202E+02  0.41173824484E+02 -0.16575151094E+03  0.19435492973E+03  0.47000000000E+01 0. -1.
        -11    1    4    4    0    0 -0.11838514111E+03  0.10311604417E+03 -0.73959452113E+03  0.75607408095E+03  0.00000000000E+00 0.  1.
         12    1    4    4    0    0  0.73205149361E+01  0.76037709494E+01 -0.12512997015E+02  0.16370166947E+02  0.00000000000E+00 0. -1.
         -5    1    5    5    0  502  0.16477816189E+03 -0.65328454488E+02 -0.29215471856E+03  0.34175447207E+03  0.47000000000E+01 0.  1.
         13    1    6    6    0    0 -0.10400533321E+02 -0.23437901936E+02 -0.18939878186E+02  0.31878289261E+02  0.00000000000E+00 0. -1.
        -14    1    6    6    0    0  0.49330947803E+02 -0.63127283178E+02 -0.28542740978E+03  0.29645809577E+03  0.00000000000E+00 0.  1.
</event>
<event>
12    1  0.8135779E-002  0.1963626E+03  0.7818608E-02  0.1153130E+00
         21   -1    0    0  501  502  0.00000000000E+00  0.00000000000E+00  0.30753868767E+02  0.30753868767E+02  0.00000000000E+00 0. -1.
         21   -1    0    0  502  503 -0.00000000000E+00 -0.00000000000E+00 -0.12642073707E+04  0.12642073707E+04  0.00000000000E+00 0. -1.
         -6    2    1    2    0  503 -0.52550096758E+02  0.77638364522E+02 -0.53565046201E+03  0.57005618373E+03  0.17103627346E+03 0.  0.
        -24    2    3    3    0    0  0.27404017778E+02  0.76580963184E+02 -0.35000330861E+03  0.36786633706E+03  0.78788969993E+02 0.  0.
          6    2    1    2  501    0  0.52550096758E+02 -0.77638364522E+02 -0.69780303994E+03  0.72490505576E+03  0.17253703660E+03 0.  0.
         24    2    5    5    0    0 -0.31246373409E+02 -0.18367931737E+02 -0.40869057678E+03  0.41807784222E+03  0.80295565486E+02 0.  0.
          5    1    5    5  501    0  0.83796470168E+02 -0.59270432786E+02 -0.28911246316E+03  0.30682721355E+03  0.47000000000E+01 0. -1.
        -13    1    6    6    0    0  0.16371677126E+02  0.43172165965E+00 -0.26560541840E+03  0.26610985791E+03  0.00000000000E+00 0.  1.
         14    1    6    6    0    0 -0.47618050535E+02 -0.18799653396E+02 -0.14308515838E+03  0.15196798430E+03  0.00000000000E+00 0. -1.
         -5    1    3    3    0  503 -0.79954114536E+02  0.10574013382E+01 -0.18564715341E+03  0.20218984667E+03  0.47000000000E+01 0.  1.
         13    1    4    4    0    0 -0.16147986197E+02  0.56916762614E+02 -0.13145852887E+03  0.14415831623E+03  0.00000000000E+00 0. -1.
        -14    1    4    4    0    0  0.43552003975E+02  0.19664200570E+02 -0.21854477974E+03  0.22370802083E+03  0.00000000000E+00 0.  1.
</event>
<event>
12    1  0.8135779E-002  0.2746278E+03  0.7818608E-02  0.1098682E+00
         21   -1    0    0  503  502  0.00000000000E+00  0.00000000000E+00  0.46162924329E+03  0.46162924329E+03  0.00000000000E+00 0. -1.
         21   -1    0    0  501  503 -0.00000000000E+00 -0.00000000000E+00 -0.37321043950E+03  0.37321043950E+03  0.00000000000E+00 0. -1.
          6    2    1    2  501    0 -0.74320233986E+02  0.20069289788E+03 -0.26884546565E+03  0.38431537703E+03  0.17210255134E+03 0.  0.
         24    2    3    3    0    0 -0.11143364878E+03  0.16020266409E+03 -0.24667214877E+03  0.32489643584E+03  0.81413717385E+02 0.  0.
         -6    2    1    2    0  502  0.74320233986E+02 -0.20069289788E+03  0.35726426945E+03  0.45052430577E+03  0.17185242339E+03 0.  0.
        -24    2    5    5    0    0  0.65805884014E+02 -0.22418516236E+03  0.32572196445E+03  0.41001026313E+03  0.86163892414E+02 0.  0.
          5    1    3    3  501    0  0.37113414796E+02  0.40490233794E+02 -0.22173316881E+02  0.59418941189E+02  0.47000000000E+01 0. -1.
        -11    1    4    4    0    0 -0.22103013279E+02 -0.57943310155E+01 -0.23780386129E+02  0.32979148448E+02  0.00000000000E+00 0.  1.
         12    1    4    4    0    0 -0.89330635504E+02  0.16599699510E+03 -0.22289176264E+03  0.29191728739E+03  0.00000000000E+00 0. -1.
         -5    1    5    5    0  502  0.85143499718E+01  0.23492264483E+02  0.31542305001E+02  0.40514042636E+02  0.47000000000E+01 0.  1.
         13    1    6    6    0    0  0.80476907728E+02 -0.13751349765E+03  0.18573726075E+03  0.24471376084E+03  0.00000000000E+00 0. -1.
        -14    1    6    6    0    0 -0.14671023714E+02 -0.86671664710E+02  0.13998470370E+03  0.16529650229E+03  0.00000000000E+00 0.  1.
</event>
<event>
12    1  0.8135779E-002  0.1843090E+03  0.7818608E-02  0.1163957E+00
         21   -1    0    0  501  502  0.00000000000E+00  0.00000000000E+00  0.17652697583E+03  0.17652697583E+03  0.00000000000E+00 0. -1.
         21   -1    0    0  502  503 -0.00000000000E+00 -0.00000000000E+00 -0.20916334683E+03  0.20916334683E+03  0.00000000000E+00 0. -1.
         -6    2    1    2    0  503  0.21664940191E+02  0.60954795733E+02 -0.72658726281E+02  0.19708594600E+03  0.17140222534E+03 0.  0.
        -24    2    3    3    0    0  0.73182350036E+01  0.20946977194E+02 -0.11253314983E+03  0.13861789363E+03  0.77838796286E+02 0.  0.
          6    2    1    2  501    0 -0.21664940191E+02 -0.60954795733E+02  0.40022355279E+02  0.18860437667E+03  0.17258321245E+03 0.  0.
         24    2    5    5    0    0 -0.12325852459E+02 -0.30306204574E+02 -0.45724896419E+02  0.96946120772E+02  0.78977158126E+02 0.  0.
          5    1    5    5  501    0 -0.93390877324E+01 -0.30648591159E+02  0.85747251698E+02  0.91658255894E+02  0.47000000000E+01 0. -1.
        -11    1    6    6    0    0 -0.36346041680E+02 -0.44564852346E+02 -0.29290979173E+02  0.64536983749E+02  0.00000000000E+00 0.  1.
         12    1    6    6    0    0  0.24020189222E+02  0.14258647772E+02 -0.16433917246E+02  0.32409137023E+02  0.00000000000E+00 0. -1.
         -5    1    3    3    0  503  0.14346705188E+02  0.40007818540E+02  0.39874423552E+02  0.58468052368E+02  0.47000000000E+01 0.  1.
         13    1    4    4    0    0  0.61960552908E+01  0.50507777545E+02 -0.78193777238E+02  0.93293587628E+02  0.00000000000E+00 0. -1.
        -14    1    4    4    0    0  0.11221797127E+01 -0.29560800352E+02 -0.34339372595E+02  0.45324306007E+02  0.00000000000E+00 0.  1.
</event>
<event>
12    1  0.8135779E-002  0.1869829E+03  0.7818608E-02  0.1161228E+00
         21   -1    0    0  501  502  0.00000000000E+00  0.00000000000E+00  0.10586868943E+03  0.10586868943E+03  0.00000000000E+00 0. -1.
         21   -1    0    0  502  503 -0.00000000000E+00 -0.00000000000E+00 -0.36580049375E+03  0.36580049375E+03  0.00000000000E+00 0. -1.
         -6    2    1    2    0  503 -0.67344124927E+02  0.29229784132E+02 -0.20360117530E+03  0.27638542383E+03  0.17188907028E+03 0.  0.
        -24    2    3    3    0    0  0.78008673275E+00 -0.40002871737E+02 -0.83400535102E+02  0.12177509832E+03  0.79200296918E+02 0.  0.
          6    2    1    2  501    0  0.67344124927E+02 -0.29229784132E+02 -0.56330629021E+02  0.19528375934E+03  0.17196800706E+03 0.  0.
         24    2    5    5    0    0  0.44587175598E+02 -0.85928240748E+02 -0.31144293650E+02  0.12903396526E+03  0.79423663846E+02 0.  0.
          5    1    5    5  501    0  0.22756949330E+02  0.56698456617E+02 -0.25186335372E+02  0.66249794075E+02  0.47000000000E+01 0. -1.
        -13    1    6    6    0    0 -0.10377426614E+02 -0.22714911740E+02 -0.37468013426E+02  0.45027882790E+02  0.00000000000E+00 0.  1.
         14    1    6    6    0    0  0.54964602211E+02 -0.63213329009E+02  0.63237197765E+01  0.84006082473E+02  0.00000000000E+00 0. -1.
         -5    1    3    3    0  503 -0.68124211660E+02  0.69232655869E+02 -0.12020064020E+03  0.15461032552E+03  0.47000000000E+01 0.  1.
         13    1    4    4    0    0 -0.36507646335E+02 -0.32123506363E+02 -0.33789237576E+02  0.59215204787E+02  0.00000000000E+00 0. -1.
        -14    1    4    4    0    0  0.37287733068E+02 -0.78793653737E+01 -0.49611297527E+02  0.62559893529E+02  0.00000000000E+00 0.  1.
</event>
<event>
12    1  0.8135779E-002  0.1843102E+03  0.7818608E-02  0.1163952E+00
         21   -1    0    0  501  502  0.00000000000E+00  0.00000000000E+00  0.20118889961E+03  0.20118889961E+03  0.00000000000E+00 0.  1.
         21   -1    0    0  502  503 -0.00000000000E+00 -0.00000000000E+00 -0.41100889503E+03  0.41100889503E+03  0.00000000000E+00 0.  1.
         -6    2    1    2    0  503  0.32369802203E+02  0.55098491847E+02 -0.34022207118E+03  0.38642144578E+03  0.17171729133E+03 0.  0.
        -24    2    3    3    0    0  0.37174857856E+02 -0.33732645632E+02 -0.15997909071E+03  0.18536503191E+03  0.79038118373E+02 0.  0.
          6    2    1    2  501    0 -0.32369802203E+02 -0.55098491847E+02  0.13040207577E+03  0.22577634886E+03  0.17287744341E+03 0.  0.
         24    2    5    5    0    0  0.46271488100E+02 -0.16479586384E+02  0.88867334672E+02  0.12870371050E+03  0.79086121070E+02 0.  0.
          5    1    5    5  501    0 -0.78641290304E+02 -0.38618905463E+02  0.41534741094E+02  0.97072638357E+02  0.47000000000E+01 0. -1.
        -13    1    6    6    0    0  0.11269488604E+02 -0.39436861660E+02  0.73392727413E+02  0.84075917290E+02  0.00000000000E+00 0.  1.
         14    1    6    6    0    0  0.35001999496E+02  0.22957275276E+02  0.15474607259E+02  0.44627793208E+02  0.00000000000E+00 0. -1.
         -5    1    3    3    0  503 -0.48050556523E+01  0.88831137479E+02 -0.18024298048E+03  0.20105641387E+03  0.47000000000E+01 0.  1.
         13    1    4    4    0    0  0.45560792482E+02  0.65253340077E+01 -0.11773158530E+03  0.12640843316E+03  0.00000000000E+00 0. -1.
        -14    1    4    4    0    0 -0.83859346263E+01 -0.40257979639E+02 -0.42247505401E+02  0.58956598756E+02  0.00000000000E+00 0.  1.
</event>
<event>
12    1  0.8135779E-002  0.1796675E+03  0.7818608E-02  0.1169116E+00
         21   -1    0    0  501  502  0.00000000000E+00  0.00000000000E+00  0.33594329664E+03  0.33594329664E+03  0.00000000000E+00 0. -1.
         21   -1    0    0  502  503 -0.00000000000E+00 -0.00000000000E+00 -0.94408247731E+02  0.94408247731E+02  0.00000000000E+00 0. -1.
         -6    2    1    2    0  503  0.24878789460E+02 -0.14815358027E+02  0.13724448512E+03  0.22608952341E+03  0.17731885095E+03 0.  0.
        -24    2    3    3    0    0  0.20211379776E+02  0.51771381174E+02  0.12416551408E+03  0.15790794207E+03  0.80181466076E+02 0.  0.
          6    2    1    2  501    0 -0.24878789460E+02  0.14815358027E+02  0.10429056379E+03  0.20426202096E+03  0.17322818048E+03 0.  0.
         24    2    5    5    0    0 -0.36169125000E+01 -0.57034424964E+02  0.39392339956E+02  0.10502327760E+03  0.78817033078E+02 0.  0.
          5    1    5    5  501    0 -0.21261876960E+02  0.71849782991E+02  0.64898223836E+02  0.99238743366E+02  0.47000000000E+01 0. -1.
        -13    1    6    6    0    0 -0.28130891859E+02 -0.35605823498E+02 -0.94231007986E+01  0.46345620855E+02  0.00000000000E+00 0.  1.
         14    1    6    6    0    0  0.24513979359E+02 -0.21428601465E+02  0.48815440755E+02  0.58677656743E+02  0.00000000000E+00 0. -1.
         -5    1    3    3    0  503  0.46674096841E+01 -0.66586739201E+02  0.13078971044E+02  0.68181581341E+02  0.47000000000E+01 0.  1.
         13    1    4    4    0    0 -0.21419538699E+01 -0.18290820895E+02  0.50773317609E+02  0.54009923870E+02  0.00000000000E+00 0. -1.
        -14    1    4    4    0    0  0.22353333646E+02  0.70062202069E+02  0.73392196467E+02  0.10389801820E+03  0.00000000000E+00 0.  1.
</event>
<event>
12    1  0.8135779E-002  0.1859211E+03  0.7818608E-02  0.1162356E+00
         21   -1    0    0  501  502  0.00000000000E+00  0.00000000000E+00  0.13432841926E+03  0.13432841926E+03  0.00000000000E+00 0. -1.
         21   -1    0    0  502  503 -0.00000000000E+00 -0.00000000000E+00 -0.37750023374E+03  0.37750023374E+03  0.00000000000E+00 0. -1.
         -6    2    1    2    0  503  0.33756064568E+01 -0.67881899364E+02 -0.26671624730E+03  0.32512182118E+03  0.17305286780E+03 0.  0.
        -24    2    3    3    0    0 -0.19329934956E+02  0.22576894199E+02 -0.17136827725E+03  0.19166148873E+03  0.80521284638E+02 0.  0.
          6    2    1    2  501    0 -0.33756064568E+01  0.67881899364E+02  0.23544432825E+02  0.18670683182E+03  0.17229554187E+03 0.  0.
         24    2    5    5    0    0 -0.12156115967E+02  0.11352822017E+03  0.24621530414E+02  0.13997425122E+03  0.77137172061E+02 0.  0.
          5    1    5    5  501    0  0.87805095106E+01 -0.45646320805E+02 -0.10770975882E+01  0.46732580600E+02  0.47000000000E+01 0. -1.
        -13    1    6    6    0    0 -0.20204773998E+02  0.73471051135E+02 -0.20694387144E+02  0.78958760796E+02  0.00000000000E+00 0.  1.
         14    1    6    6    0    0  0.80486580302E+01  0.40057169034E+02  0.45315917558E+02  0.61015490420E+02  0.00000000000E+00 0. -1.
         -5    1    3    3    0  503  0.22705541412E+02 -0.90458793563E+02 -0.95347970059E+02  0.13346033245E+03  0.47000000000E+01 0.  1.
         13    1    4    4    0    0  0.26610029252E+02  0.28156266746E+02 -0.65124980931E+02  0.75776857649E+02  0.00000000000E+00 0. -1.
        -14    1    4    4    0    0 -0.45939964208E+02 -0.55793725466E+01 -0.10624329631E+03  0.11588463108E+03  0.00000000000E+00 0.  1.
</event>
<event>
12    1  0.8135779E-002  0.1808730E+03  0.7818608E-02  0.1167033E+00
         21   -1    0    0  503  502  0.00000000000E+00  0.00000000000E+00  0.59364126587E+03  0.59364126587E+03  0.00000000000E+00 0. -1.
         21   -1    0    0  501  503 -0.00000000000E+00 -0.00000000000E+00 -0.86893884694E+02  0.86893884694E+02  0.00000000000E+00 0. -1.
          6    2    1    2  501    0  0.50504087016E+02 -0.22709985255E+02  0.47150321830E+02  0.18662777970E+03  0.17187311910E+03 0.  0.
         24    2    3    3    0    0  0.52097330318E+01 -0.34961588136E+00 -0.38088102091E+02  0.87434818584E+02  0.78529487649E+02 0.  0.
         -6    2    1    2    0  502 -0.50504087016E+02  0.22709985255E+02  0.45959705935E+03  0.49390737087E+03  0.17218776903E+03 0.  0.
        -24    2    5    5    0    0  0.30894990199E+02  0.84806846257E+01  0.32347214750E+03  0.33459521065E+03  0.79330336896E+02 0.  0.
          5    1    3    3  501    0  0.45294353984E+02 -0.22360369373E+02  0.85238423921E+02  0.99192961111E+02  0.47000000000E+01 0. -1.
        -13    1    4    4    0    0 -0.13595680770E+02  0.18152994840E+02  0.15660137290E+02  0.27561089551E+02  0.00000000000E+00 0.  1.
         14    1    4    4    0    0  0.18805413802E+02 -0.18502610722E+02 -0.53748239382E+02  0.59873729034E+02  0.00000000000E+00 0. -1.
         -5    1    5    5    0  502 -0.81399077215E+02  0.14229300629E+02  0.13612491185E+03  0.15931216022E+03  0.47000000000E+01 0.  1.
         13    1    6    6    0    0  0.27852038730E+02  0.17895811489E+01  0.32571620939E+03  0.32690975471E+03  0.00000000000E+00 0. -1.
        -14    1    6    6    0    0  0.30429514690E+01  0.66911034768E+01 -0.22440618881E+01  0.76854559486E+01  0.00000000000E+00 0.  1.
</event>
<event>
12    1  0.8135779E-002  0.1791542E+03  0.7818608E-02  0.1169374E+00
         21   -1    0    0  503  502  0.00000000000E+00  0.00000000000E+00  0.11344704780E+04  0.11344704780E+04  0.00000000000E+00 0. -1.
         21   -1    0    0  501  503 -0.00000000000E+00 -0.00000000000E+00 -0.28191170859E+02  0.28191170859E+02  0.00000000000E+00 0. -1.
          6    2    1    2  501    0 -0.47299704756E+02 -0.15172303957E+02  0.48104043997E+03  0.51226186688E+03  0.16895222549E+03 0.  0.
         24    2    3    3    0    0  0.64032805664E+01  0.32862436931E+02  0.37074671667E+03  0.38043568449E+03  0.78468084914E+02 0.  0.
         -6    2    1    2    0  502  0.47299704756E+02  0.15172303957E+02  0.62523886713E+03  0.65039978194E+03  0.17213010920E+03 0.  0.
        -24    2    5    5    0    0  0.33061795356E+02  0.77736181311E+02  0.46766095452E+03  0.48019447839E+03  0.68876501735E+02 0.  0.
          5    1    3    3  501    0 -0.53702985322E+02 -0.48034740888E+02  0.11029372330E+03  0.13182618239E+03  0.47000000000E+01 0. -1.
        -13    1    4    4    0    0  0.17398939531E+02  0.31190238543E+02  0.36694920199E+03  0.36868315790E+03  0.00000000000E+00 0.  1.
         14    1    4    4    0    0 -0.10995658965E+02  0.16721983881E+01  0.37975146767E+01  0.11752526590E+02  0.00000000000E+00 0. -1.
         -5    1    5    5    0  502  0.14237909400E+02 -0.62563877355E+02  0.15757791261E+03  0.17020530355E+03  0.47000000000E+01 0.  1.
         13    1    6    6    0    0  0.37034081599E+02  0.86122276568E+02  0.35559427611E+03  0.36774428469E+03  0.00000000000E+00 0. -1.
        -14    1    6    6    0    0 -0.39722862431E+01 -0.83860952568E+01  0.11206667841E+03  0.11245019370E+03  0.00000000000E+00 0.  1.
</event>
<event>
12    1  0.8135779E-002  0.2485961E+03  0.7818608E-02  0.1114300E+00
         21   -1    0    0  501  502  0.00000000000E+00  0.00000000000E+00  0.20842135036E+03  0.20842135036E+03  0.00000000000E+00 0. -1.
         21   -1    0    0  502  503 -0.00000000000E+00 -0.00000000000E+00 -0.37381132372E+03  0.37381132372E+03  0.00000000000E+00 0.  1.
         -6    2    1    2    0  503 -0.31316609760E+02  0.17629837581E+03 -0.21565568644E+03  0.32860561745E+03  0.17150052293E+03 0.  0.
        -24    2    3    3    0    0 -0.76245759800E+02  0.14917732319E+03 -0.20135227607E+03  0.27400838705E+03  0.80439837492E+02 0.  0.
          6    2    1    2  501    0  0.31316609760E+02 -0.17629837581E+03  0.50265713090E+02  0.25362705663E+03  0.17244765751E+03 0.  0.
         24    2    5    5    0    0 -0.18358298550E+01 -0.11114250240E+02 -0.65864658537E+01  0.75753112939E+02  0.74620746163E+02 0.  0.
          5    1    5    5  501    0  0.33152439615E+02 -0.16518412557E+03  0.56852178943E+02  0.17787394369E+03  0.47000000000E+01 0. -1.
        -13    1    6    6    0    0  0.16012724944E+02 -0.32403949537E+02 -0.23608284687E+02  0.43171453666E+02  0.00000000000E+00 0.  1.
         14    1    6    6    0    0 -0.17848554799E+02  0.21289699298E+02  0.17021818833E+02  0.32581659273E+02  0.00000000000E+00 0. -1.
         -5    1    3    3    0  503  0.44929150040E+02  0.27121052625E+02 -0.14303410371E+02  0.54597230397E+02  0.47000000000E+01 0.  1.
         11    1    4    4    0    0 -0.42611243024E+01  0.27865182135E+02 -0.34899188910E-01  0.28189125096E+02  0.00000000000E+00 0. -1.
        -12    1    4    4    0    0 -0.71984635497E+02  0.12131214105E+03 -0.20131737688E+03  0.24581926196E+03  0.00000000000E+00 0.  1.
</event>
<event>
12    1  0.8135779E-002  0.1977874E+03  0.7818608E-02  0.1151761E+00
         21   -1    0    0  503  502  0.00000000000E+00  0.00000000000E+00  0.30442589289E+03  0.30442589289E+03  0.00000000000E+00 0. -1.
         21   -1    0    0  501  503 -0.00000000000E+00 -0.00000000000E+00 -0.21888851825E+03  0.21888851825E+03  0.00000000000E+00 0.  1.
          6    2    1    2  501    0  0.32537695446E+02 -0.85297478269E+02 -0.12572610426E+03  0.23436489288E+03  0.17545793882E+03 0.  0.
         24    2    3    3    0    0 -0.17586900317E+02 -0.19688337766E+02 -0.16335644690E+00  0.84014874396E+02  0.79759279884E+02 0.  0.
         -6    2    1    2    0  502 -0.32537695446E+02  0.85297478269E+02  0.21126347890E+03  0.28894951826E+03  0.17471463923E+03 0.  0.
        -24    2    5    5    0    0  0.19702015205E+01  0.71243568154E+02  0.22486441573E+03  0.24900727464E+03  0.79756439650E+02 0.  0.
          5    1    3    3  501    0  0.50124595763E+02 -0.65609140503E+02 -0.12556274782E+03  0.15035001848E+03  0.47000000000E+01 0. -1.
        -13    1    4    4    0    0  0.69373167408E+01 -0.31177707936E+02 -0.29929997259E+02  0.43771915330E+02  0.00000000000E+00 0.  1.
         14    1    4    4    0    0 -0.24524217058E+02  0.11489370170E+02  0.29766640812E+02  0.40242959066E+02  0.00000000000E+00 0. -1.
         -5    1    5    5    0  502 -0.34507896967E+02  0.14053910115E+02 -0.13600936827E+02  0.39942243617E+02  0.47000000000E+01 0.  1.
         11    1    6    6    0    0  0.31580346382E+02  0.25791677718E+02  0.15656127458E+03  0.16178368773E+03  0.00000000000E+00 0. -1.
        -12    1    6    6    0    0 -0.29610144861E+02  0.45451890437E+02  0.68303141148E+02  0.87223586911E+02  0.00000000000E+00 0.  1.
</event>
<event>
12    1  0.8135779E-002  0.2224160E+03  0.7818608E-02  0.1133138E+00
         21   -1    0    0  503  502  0.00000000000E+00  0.00000000000E+00  0.17788887576E+03  0.17788887576E+03  0.00000000000E+00 0. -1.
         21   -1    0    0  501  503 -0.00000000000E+00 -0.00000000000E+00 -0.27193751216E+03  0.27193751216E+03  0.00000000000E+00 0.  1.
          6    2    1    2  501    0  0.13466700059E+03  0.34567990840E+02 -0.35344302820E+02  0.22520675590E+03  0.17360505788E+03 0.  0.
         24    2    3    3    0    0  0.11091035462E+03  0.88155510617E+02 -0.32773399339E+02  0.16634505317E+03  0.80771778466E+02 0.  0.
         -6    2    1    2    0  502 -0.13466700059E+03 -0.34567990840E+02 -0.58704333582E+02  0.22461963202E+03  0.16636596187E+03 0.  0.
        -24    2    5    5    0    0 -0.11293452213E+03  0.13131068748E+02 -0.87463710742E+02  0.16464719935E+03  0.80821830607E+02 0.  0.
          5    1    3    3  501    0  0.23756645972E+02 -0.53587519777E+02 -0.25709034815E+01  0.58861702731E+02  0.47000000000E+01 0. -1.
        -13    1    4    4    0    0  0.43324621473E+01 -0.59616666376E+01 -0.22627534628E+02  0.23797416261E+02  0.00000000000E+00 0.  1.
         14    1    4    4    0    0  0.10657789247E+03  0.94117177254E+02 -0.10145864711E+02  0.14254763691E+03  0.00000000000E+00 0. -1.
         -5    1    5    5    0  502 -0.21732478466E+02 -0.47699059589E+02  0.28759377160E+02  0.59972432672E+02  0.47000000000E+01 0.  1.
         11    1    6    6    0    0 -0.40695713766E+02 -0.34146562688E+02 -0.31488052975E+02  0.61754565357E+02  0.00000000000E+00 0. -1.
        -12    1    6    6    0    0 -0.72238808359E+02  0.47277631436E+02 -0.55975657767E+02  0.10289263399E+03  0.00000000000E+00 0.  1.
</event>
<event>
12    1  0.8135779E-002  0.2612647E+03  0.7818608E-02  0.1106688E+00
         21   -1    0    0  503  502  0.00000000000E+00  0.00000000000E+00  0.14420161893E+04  0.14420161893E+04  0.00000000000E+00 0. -1.
         21   -1    0    0  501  503 -0.00000000000E+00 -0.00000000000E+00 -0.48332519037E+02  0.48332519037E+02  0.00000000000E+00 0.  1.
          6    2    1    2  501    0  0.18965673339E+03 -0.40718847485E+02  0.57439756446E+03  0.63102442703E+03  0.17501875439E+03 0.  0.
         24    2    3    3    0    0  0.16090224881E+03 -0.72195426438E+02  0.54865964079E+03  0.58100317034E+03  0.73726313067E+02 0.  0.
         -6    2    1    2    0  502 -0.18965673339E+03  0.40718847485E+02  0.81928610579E+03  0.85932428130E+03  0.17199068645E+03 0.  0.
        -24    2    5    5    0    0 -0.66892639179E+02  0.80329942901E+02  0.41510673951E+03  0.43503297591E+03  0.77540699198E+02 0.  0.
          5    1    3    3  501    0  0.28754484581E+02  0.31476578953E+02  0.25737923671E+02  0.50021256692E+02  0.47000000000E+01 0. -1.
        -11    1    4    4    0    0  0.11555305622E+03 -0.12627588310E+02  0.32785429642E+03  0.34785112400E+03  0.00000000000E+00 0.  1.
         12    1    4    4    0    0  0.45349192594E+02 -0.59567838129E+02  0.22080534437E+03  0.23315204633E+03  0.00000000000E+00 0. -1.
         -5    1    5    5    0  502 -0.12276409421E+03 -0.39611095416E+02  0.40417936628E+03  0.42429130539E+03  0.47000000000E+01 0.  1.
         13    1    6    6    0    0 -0.39141266677E+02  0.11760013011E+02  0.25996741763E+03  0.26316039765E+03  0.00000000000E+00 0. -1.
        -14    1    6    6    0    0 -0.27751372502E+02  0.68569929890E+02  0.15513932189E+03  0.17187257826E+03  0.00000000000E+00 0.  1.
</event>
<event>
12    1  0.8135779E-002  0.2064210E+03  0.7818608E-02  0.1144554E+00
         21   -1    0    0  501  502  0.00000000000E+00  0.00000000000E+00  0.72523983921E+03  0.72523983921E+03  0.00000000000E+00 0. -1.
         21   -1    0    0  502  503 -0.00000000000E+00 -0.00000000000E+00 -0.12400851024E+03  0.12400851024E+03  0.00000000000E+00 0.  1.
         -6    2    1    2    0  503  0.11105147063E+03 -0.65244039572E+01 -0.76077277508E+01  0.20656114379E+03  0.17388108473E+03 0.  0.
        -24    2    3    3    0    0  0.10611159842E+03  0.55433545095E+02 -0.39472470348E+01  0.14412174191E+03  0.80143287243E+02 0.  0.
          6    2    1    2  501    0 -0.11105147063E+03  0.65244039572E+01  0.60883905672E+03  0.64268720566E+03  0.17316711684E+03 0.  0.
         24    2    5    5    0    0 -0.43012575484E+02 -0.58832127476E+02  0.38750589460E+03  0.40203969143E+03  0.78509835419E+02 0.  0.
          5    1    5    5  501    0 -0.68038895146E+02  0.65356531434E+02  0.22133316212E+03  0.24064751423E+03  0.47000000000E+01 0. -1.
        -13    1    6    6    0    0 -0.17895349878E+02 -0.49656948559E+02  0.35936242337E+03  0.36321812650E+03  0.00000000000E+00 0.  1.
         14    1    6    6    0    0 -0.25117225607E+02 -0.91751789176E+01  0.28143471232E+02  0.38821564926E+02  0.00000000000E+00 0. -1.
         -5    1    3    3    0  503  0.49398722105E+01 -0.61957949052E+02 -0.36604807160E+01  0.62439401881E+02  0.47000000000E+01 0.  1.
         11    1    4    4    0    0  0.37669834928E+02 -0.14364799682E+02  0.17648554184E+02  0.44009492138E+02  0.00000000000E+00 0. -1.
        -12    1    4    4    0    0  0.68441763491E+02  0.69798344777E+02 -0.21595801219E+02  0.10011224977E+03  0.00000000000E+00 0.  1.
</event>
<event>
12    1  0.8135779E-002  0.3116423E+03  0.7818608E-02  0.1079779E+00
         21   -1    0    0  501  502  0.00000000000E+00  0.00000000000E+00  0.16815141700E+03  0.16815141700E+03  0.00000000000E+00 0.  1.
         21   -1    0    0  502  503 -0.00000000000E+00 -0.00000000000E+00 -0.87171445630E+03  0.87171445630E+03  0.00000000000E+00 0. -1.
         -6    2    1    2    0  503 -0.22091375966E+03  0.13281076020E+03 -0.65484522780E+03  0.72443863290E+03  0.17189378473E+03 0.  0.
        -24    2    3    3    0    0 -0.24232653266E+03  0.13241274274E+03 -0.59751477287E+03  0.66305837281E+03  0.79794856278E+02 0.  0.
          6    2    1    2  501    0  0.22091375966E+03 -0.13281076020E+03 -0.48717811500E+02  0.31542724040E+03  0.17515516434E+03 0.  0.
         24    2    5    5    0    0  0.18887105170E+03 -0.35097055837E+02 -0.12906202776E+02  0.20643520182E+03  0.74463715881E+02 0.  0.
          5    1    5    5  501    0  0.32042707966E+02 -0.97713704367E+02 -0.35811608724E+02  0.10899203858E+03  0.47000000000E+01 0. -1.
        -11    1    6    6    0    0  0.80309224836E+02 -0.51197602979E+02 -0.16340760831E+02  0.96632223451E+02  0.00000000000E+00 0.  1.
         12    1    6    6    0    0  0.10856182686E+03  0.16100547142E+02  0.34345580542E+01  0.10980297837E+03  0.00000000000E+00 0. -1.
         -5    1    3    3    0  503  0.21412773001E+02  0.39801746630E+00 -0.57330454935E+02  0.61380260089E+02  0.47000000000E+01 0.  1.
         13    1    4    4    0    0 -0.42566776275E+02  0.62852851173E+02 -0.15585245798E+03  0.17335628054E+03  0.00000000000E+00 0. -1.
        -14    1    4    4    0    0 -0.19975975639E+03  0.69559891564E+02 -0.44166231489E+03  0.48970209227E+03  0.00000000000E+00 0.  1.
</event>
<event>
12    1  0.8135779E-002  0.1969378E+03  0.7818608E-02  0.1152727E+00
         21   -1    0    0  501  502  0.00000000000E+00  0.00000000000E+00  0.72680066848E+03  0.72680066848E+03  0.00000000000E+00 0. -1.
         21   -1    0    0  502  503 -0.00000000000E+00 -0.00000000000E+00 -0.10210752011E+03  0.10210752011E+03  0.00000000000E+00 0. -1.
         -6    2    1    2    0  503  0.18702464243E+02  0.92189632353E+02  0.23883921563E+02  0.19664540955E+03  0.17102708822E+03 0.  0.
        -24    2    3    3    0    0 -0.20951142667E+02  0.11434169151E+03 -0.69979259942E+01  0.14151918372E+03  0.80409797891E+02 0.  0.
          6    2    1    2  501    0 -0.18702464243E+02 -0.92189632353E+02  0.60080922682E+03  0.63226277904E+03  0.17301960655E+03 0.  0.
         24    2    5    5    0    0 -0.64701811923E+01 -0.10822245164E+03  0.59457717615E+03  0.61063852187E+03  0.87197612970E+02 0.  0.
          5    1    5    5  501    0 -0.12232283051E+02  0.16032819282E+02  0.62320506656E+01  0.21624257172E+02  0.47000000000E+01 0. -1.
        -11    1    6    6    0    0 -0.31403401313E+02 -0.10792802082E+03  0.44379590653E+03  0.45780939041E+03  0.00000000000E+00 0.  1.
         12    1    6    6    0    0  0.24933220120E+02 -0.29443081919E+00  0.15078126962E+03  0.15282913146E+03  0.00000000000E+00 0. -1.
         -5    1    3    3    0  503  0.39653606910E+02 -0.22152059153E+02  0.30881847557E+02  0.55126225830E+02  0.47000000000E+01 0.  1.
         13    1    4    4    0    0  0.17682631778E+02  0.13374843974E+02 -0.23332268965E+02  0.32186281130E+02  0.00000000000E+00 0. -1.
        -14    1    4    4    0    0 -0.38633774445E+02  0.10096684753E+03  0.16334342971E+02  0.10933290259E+03  0.00000000000E+00 0.  1.
</event>
<event>
12    1  0.8135779E-002  0.1829208E+03  0.7818608E-02  0.1165152E+00
         21   -1    0    0  501  502  0.00000000000E+00  0.00000000000E+00  0.51947484733E+02  0.51947484733E+02  0.00000000000E+00 0.  1.
         21   -1    0    0  502  503 -0.00000000000E+00 -0.00000000000E+00 -0.88807584310E+03  0.88807584310E+03  0.00000000000E+00 0.  1.
         -6    2    1    2    0  503  0.28994877739E+02 -0.54477003972E+02 -0.66499337539E+03  0.68952939234E+03  0.17154051035E+03 0.  0.
        -24    2    3    3    0    0 -0.39536654052E+02 -0.17543908578E+01 -0.42304530167E+03  0.43255234052E+03  0.81043044895E+02 0.  0.
          6    2    1    2  501    0 -0.28994877739E+02  0.54477003972E+02 -0.17113498297E+03  0.25049393549E+03  0.17219634846E+03 0.  0.
         24    2    5    5    0    0  0.37321533635E+02  0.80785026162E+01 -0.53103334344E+02  0.10730089298E+03  0.85060910166E+02 0.  0.
          5    1    5    5  501    0 -0.66316411373E+02  0.46398501356E+02 -0.11803164863E+03  0.14319304251E+03  0.47000000000E+01 0. -1.
        -11    1    6    6    0    0 -0.27295373551E+02  0.95570889545E-01 -0.93304516757E+01  0.28846210835E+02  0.00000000000E+00 0.  1.
         12    1    6    6    0    0  0.64616907186E+02  0.79829317267E+01 -0.43772882668E+02  0.78454682144E+02  0.00000000000E+00 0. -1.
         -5    1    3    3    0  503  0.68531531791E+02 -0.52722613115E+02 -0.24194807372E+03  0.25697705182E+03  0.47000000000E+01 0.  1.
         13    1    4    4    0    0 -0.13799972819E+02 -0.37900472603E+02 -0.12844574148E+03  0.13462983911E+03  0.00000000000E+00 0. -1.
        -14    1    4    4    0    0 -0.25736681234E+02  0.36146081745E+02 -0.29459956019E+03  0.29792250142E+03  0.00000000000E+00 0.  1.
</event>
<event>
12    1  0.8135779E-002  0.2113712E+03  0.7818608E-02  0.1140492E+00
         21   -1    0    0  501  502  0.00000000000E+00  0.00000000000E+00  0.64175850340E+03  0.64175850340E+03  0.00000000000E+00 0.  1.
         21   -1    0    0  502  503 -0.00000000000E+00 -0.00000000000E+00 -0.10178952968E+03  0.10178952968E+03  0.00000000000E+00 0.  1.
         -6    2    1    2    0  503  0.10951710668E+03  0.53190460187E+02  0.47901817824E+03  0.52356446269E+03  0.17273711179E+03 0.  0.
        -24    2    3    3    0    0  0.14849241853E+02 -0.10059413138E+02  0.10734512746E+03  0.13481583210E+03  0.79565321707E+02 0.  0.
          6    2    1    2  501    0 -0.10951710668E+03 -0.53190460187E+02  0.60950795475E+02  0.21998357039E+03  0.17278469279E+03 0.  0.
         24    2    5    5    0    0 -0.84323129861E+02  0.12488465923E+02  0.84067962514E+02  0.14578821194E+03  0.83189112327E+02 0.  0.
          5    1    5    5  501    0 -0.25193976823E+02 -0.65678926111E+02 -0.23117167040E+02  0.74195358447E+02  0.47000000000E+01 0. -1.
        -13    1    6    6    0    0 -0.44891439349E+02  0.44188413680E+02  0.24384749087E+02  0.67546082184E+02  0.00000000000E+00 0.  1.
         14    1    6    6    0    0 -0.39431690512E+02 -0.31699947756E+02  0.59683213427E+02  0.78242129760E+02  0.00000000000E+00 0. -1.
         -5    1    3    3    0  503  0.94667864831E+02  0.63249873326E+02  0.37167305078E+03  0.38874863059E+03  0.47000000000E+01 0.  1.
         13    1    4    4    0    0  0.30012872043E+02  0.18603085403E+02  0.17724985350E+02  0.39509775758E+02  0.00000000000E+00 0. -1.
        -14    1    4    4    0    0 -0.15163630190E+02 -0.28662498541E+02  0.89620142113E+02  0.95306056343E+02  0.00000000000E+00 0.  1.
</event>
<event>
12    1  0.8135779E-002  0.2563192E+03  0.7818608E-02  0.1109564E+00
         21   -1    0    0  503  502  0.00000000000E+00  0.00000000000E+00  0.18291794856E+03  0.18291794856E+03  0.00000000000E+00 0. -1.
         21   -1    0    0  501  503 -0.00000000000E+00 -0.00000000000E+00 -0.35790880608E+03  0.35790880608E+03  0.00000000000E+00 0. -1.
          6    2    1    2  501    0 -0.16504265683E+03  0.91609839541E+02 -0.77619008510E+02  0.26663553636E+03  0.17157609826E+03 0.  0.
         24    2    3    3    0    0 -0.17751329325E+03  0.85055799515E+02 -0.27013004757E+02  0.21389532562E+03  0.79221522218E+02 0.  0.
         -6    2    1    2    0  502  0.16504265683E+03 -0.91609839541E+02 -0.97371849006E+02  0.27419121828E+03  0.17340157418E+03 0.  0.
        -24    2    5    5    0    0  0.13010877516E+03  0.90329989493E+01 -0.21303962870E+02  0.14320354585E+03  0.55168000387E+02 0.  0.
          5    1    3    3  501    0  0.12470636420E+02  0.65540400264E+01 -0.50606003754E+02  0.52740210744E+02  0.47000000000E+01 0. -1.
        -11    1    4    4    0    0 -0.24312197716E+02 -0.42753796507E+01 -0.26957194474E+02  0.36552047314E+02  0.00000000000E+00 0.  1.
         12    1    4    4    0    0 -0.15320109554E+03  0.89331179166E+02 -0.55810282746E-01  0.17734327830E+03  0.00000000000E+00 0. -1.
         -5    1    5    5    0  502  0.34933881677E+02 -0.10064283849E+03 -0.76067886136E+02  0.13098767243E+03  0.47000000000E+01 0.  1.
         11    1    6    6    0    0  0.45623655737E+02  0.92649697824E+00 -0.34636890037E+02  0.57289532298E+02  0.00000000000E+00 0. -1.
        -12    1    6    6    0    0  0.84485119418E+02  0.81065019711E+01  0.13332927166E+02  0.85914013549E+02  0.00000000000E+00 0.  1.
</event>
<event>
12    1  0.8135779E-002  0.1857913E+03  0.7818608E-02  0.1162526E+00
         21   -1    0    0  501  502  0.00000000000E+00  0.00000000000E+00  0.36000814196E+03  0.36000814196E+03  0.00000000000E+00 0.  1.
         21   -1    0    0  502  503 -0.00000000000E+00 -0.00000000000E+00 -0.10567019771E+03  0.10567019771E+03  0.00000000000E+00 0.  1.
         -6    2    1    2    0  503  0.62800373661E+02 -0.27919751889E+02  0.54903931878E+02  0.19373397616E+03  0.17261231794E+03 0.  0.
        -24    2    3    3    0    0  0.60426014824E+02  0.14555031445E+02 -0.22884741417E+02  0.10494820876E+03  0.81408002826E+02 0.  0.
          6    2    1    2  501    0 -0.62800373661E+02  0.27919751889E+02  0.19943401238E+03  0.27194436352E+03  0.17162870412E+03 0.  0.
         24    2    5    5    0    0  0.19159236634E+02 -0.24187337480E+02  0.71821292020E+02  0.11150863533E+03  0.79522161208E+02 0.  0.
          5    1    5    5  501    0 -0.81959610295E+02  0.52107089369E+02  0.12761272036E+03  0.16043572819E+03  0.47000000000E+01 0. -1.
        -13    1    6    6    0    0 -0.14024762809E+02 -0.41907903017E+02  0.22832719902E+02  0.49742330115E+02  0.00000000000E+00 0.  1.
         14    1    6    6    0    0  0.33183999443E+02  0.17720565536E+02  0.48988572118E+02  0.61766305216E+02  0.00000000000E+00 0. -1.
         -5    1    3    3    0  503  0.23743588372E+01 -0.42474783334E+02  0.77788673295E+02  0.88785767397E+02  0.47000000000E+01 0.  1.
         11    1    4    4    0    0  0.38318543899E+02 -0.32552368472E+02 -0.13642078180E+02  0.52096773381E+02  0.00000000000E+00 0. -1.
        -12    1    4    4    0    0  0.22107470925E+02  0.47107399918E+02 -0.92426632376E+01  0.52851435377E+02  0.00000000000E+00 0.  1.
</event>
<event>
12    1  0.8135779E-002  0.2068849E+03  0.7818608E-02  0.1144064E+00
         21   -1    0    0  503  502  0.00000000000E+00  0.00000000000E+00  0.17898857955E+03  0.17898857955E+03  0.00000000000E+00 0. -1.
         21   -1    0    0  501  503 -0.00000000000E+00 -0.00000000000E+00 -0.27711087691E+03  0.27711087691E+03  0.00000000000E+00 0.  1.
          6    2    1    2  501    0 -0.75310597164E+02  0.88111123430E+02  0.35409425360E+02  0.20989326904E+03  0.17136540161E+03 0.  0.
         24    2    3    3    0    0  0.22407359696E+02  0.16182534503E+02  0.35814016099E+01  0.84363853789E+02  0.79627063220E+02 0.  0.
         -6    2    1    2    0  502  0.75310597164E+02 -0.88111123430E+02 -0.13353172273E+03  0.24620618741E+03  0.17132282285E+03 0.  0.
        -24    2    5    5    0    0  0.70667997169E+02 -0.44660728334E+02 -0.15811217187E+03  0.19584966799E+03  0.79806560373E+02 0.  0.
          5    1    3    3  501    0 -0.97717956861E+02  0.71928588927E+02  0.31828023750E+02  0.12552941525E+03  0.47000000000E+01 0. -1.
        -11    1    4    4    0    0 -0.11414687792E+02  0.20599927802E+02 -0.28887844046E+02  0.37271432176E+02  0.00000000000E+00 0.  1.
         12    1    4    4    0    0  0.33822047489E+02 -0.44173932997E+01  0.32469245656E+02  0.47092421613E+02  0.00000000000E+00 0. -1.
         -5    1    5    5    0  502  0.46425999946E+01 -0.43450395096E+02  0.24580449143E+02  0.50356519427E+02  0.47000000000E+01 0.  1.
         13    1    6    6    0    0 -0.95094355495E+01 -0.18353154202E+02 -0.53831000809E+01  0.21359901688E+02  0.00000000000E+00 0. -1.
        -14    1    6    6    0    0  0.80177432719E+02 -0.26307574132E+02 -0.15272907179E+03  0.17448976630E+03  0.00000000000E+00 0.  1.
</event>
<event>
12    1  0.8135779E-002  0.1986214E+03  0.7818608E-02  0.1151580E+00
         21   -1    0    0  503  502  0.00000000000E+00  0.00000000000E+00  0.32858556662E+03  0.32858556662E+03  0.00000000000E+00 0. -1.
         21   -1    0    0  501  503 -0.00000000000E+00 -0.00000000000E+00 -0.13272797011E+03  0.13272797011E+03  0.00000000000E+00 0. -1.
          6    2    1    2  501    0 -0.23972860899E+02 -0.95433339407E+02  0.20858257275E+02  0.19659624414E+03  0.16891653556E+03 0.  0.
         24    2    3    3    0    0  0.24646719228E+02 -0.46700124198E+02 -0.40554940266E+02  0.10422492463E+03  0.80185842674E+02 0.  0.
         -6    2    1    2    0  502  0.23972860899E+02  0.95433339407E+02  0.17499933924E+03  0.26471729259E+03  0.17253479630E+03 0.  0.
        -24    2    5    5    0    0  0.12203329637E+02  0.13201839626E+03  0.16162201007E+03  0.22375351363E+03  0.79788360787E+02 0.  0.
          5    1    3    3  501    0 -0.48619580127E+02 -0.48733215209E+02  0.61413197541E+02  0.92371319513E+02  0.47000000000E+01 0. -1.
        -13    1    4    4    0    0  0.42091524661E+02 -0.48770078372E+01  0.15028289669E+01  0.42399765903E+02  0.00000000000E+00 0.  1.
         14    1    4    4    0    0 -0.17444805433E+02 -0.41823116361E+02 -0.42057769233E+02  0.61825158727E+02  0.00000000000E+00 0. -1.
         -5    1    5    5    0  502  0.11769531262E+02 -0.36585056853E+02  0.13377329165E+02  0.40963778960E+02  0.47000000000E+01 0.  1.
         11    1    6    6    0    0  0.13207154735E+02  0.22459847844E+02  0.87940699164E+02  0.91719356031E+02  0.00000000000E+00 0. -1.
        -12    1    6    6    0    0 -0.10038250982E+01  0.10955854842E+03  0.73681310909E+02  0.13203415760E+03  0.00000000000E+00 0.  1.
</event>
<event>
12    1  0.8135779E-002  0.2013735E+03  0.7818608E-02  0.1148667E+00
         21   -1    0    0  503  502  0.00000000000E+00  0.00000000000E+00  0.34597684678E+03  0.34597684678E+03  0.00000000000E+00 0. -1.
         21   -1    0    0  501  503 -0.00000000000E+00 -0.00000000000E+00 -0.29394491015E+03  0.29394491015E+03  0.00000000000E+00 0.  1.
          6    2    1    2  501    0  0.73172815408E+02 -0.75724088354E+02 -0.22225263252E+03  0.29965230985E+03  0.17119251053E+03 0.  0.
         24    2    3    3    0    0  0.96574636401E+02 -0.74763489855E+02 -0.10426478710E+03  0.17927046054E+03  0.79690102155E+02 0.  0.
         -6    2    1    2    0  502 -0.73172815408E+02  0.75724088354E+02  0.27428456915E+03  0.34026944708E+03  0.17164752625E+03 0.  0.
        -24    2    5    5    0    0 -0.78408974732E+02  0.98921276797E+02  0.14267619616E+03  0.20644724878E+03  0.79564962494E+02 0.  0.
          5    1    3    3  501    0 -0.23401820992E+02 -0.96059849829E+00 -0.11798784542E+03  0.12038184931E+03  0.47000000000E+01 0. -1.
        -13    1    4    4    0    0  0.82061591254E+02 -0.84565388168E+02 -0.61200719349E+02  0.13278154120E+03  0.00000000000E+00 0.  1.
         14    1    4    4    0    0  0.14513045146E+02  0.98018983128E+01 -0.43064067747E+02  0.46488919334E+02  0.00000000000E+00 0. -1.
         -5    1    5    5    0  502  0.52361593238E+01 -0.23197188443E+02  0.13160837299E+03  0.13382219830E+03  0.47000000000E+01 0.  1.
         11    1    6    6    0    0 -0.26574728945E+02 -0.96373405511E+01  0.35070509567E+02  0.45044813161E+02  0.00000000000E+00 0. -1.
        -12    1    6    6    0    0 -0.51834245787E+02  0.10855861735E+03  0.10760568660E+03  0.16140243562E+03  0.00000000000E+00 0.  1.
</event>
<event>
12    1  0.8135779E-002  0.2505677E+03  0.7818608E-02  0.1112967E+00
         21   -1    0    0  503  502  0.00000000000E+00  0.00000000000E+00  0.42484303865E+03  0.42484303865E+03  0.00000000000E+00 0. -1.
         21   -1    0    0  501  503 -0.00000000000E+00 -0.00000000000E+00 -0.18631041389E+03  0.18631041389E+03  0.00000000000E+00 0. -1.
          6    2    1    2  501    0 -0.13181266171E+03  0.12554731721E+03 -0.19854805694E+02  0.25122537447E+03  0.17199787446E+03 0.  0.
         24    2    3    3    0    0 -0.66882808182E+02  0.91391279119E+02 -0.76445004628E+02  0.15845112463E+03  0.80232438794E+02 0.  0.
         -6    2    1    2    0  502  0.13181266171E+03 -0.12554731721E+03  0.25838743045E+03  0.35992807808E+03  0.17218435042E+03 0.  0.
        -24    2    5    5    0    0  0.92731962596E+02 -0.11441565574E+03  0.26947344044E+03  0.31754642465E+03  0.80806172653E+02 0.  0.
          5    1    3    3  501    0 -0.64929853523E+02  0.34156038095E+02  0.56590198934E+02  0.92774249834E+02  0.47000000000E+01 0. -1.
        -13    1    4    4    0    0  0.73459764641E+01 -0.60182348867E+01 -0.22896007893E+02  0.24787289057E+02  0.00000000000E+00 0.  1.
         14    1    4    4    0    0 -0.74228784647E+02  0.97409514006E+02 -0.53548996734E+02  0.13366383557E+03  0.00000000000E+00 0. -1.
         -5    1    5    5    0  502  0.39080699109E+02 -0.11131661473E+02 -0.11086009988E+02  0.42381653430E+02  0.47000000000E+01 0.  1.
         11    1    6    6    0    0  0.23624669194E+01 -0.59381829902E+02  0.70644900988E+02  0.92317306114E+02  0.00000000000E+00 0. -1.
        -12    1    6    6    0    0  0.90369495677E+02 -0.55033825839E+02  0.19882853945E+03  0.22522911853E+03  0.00000000000E+00 0.  1.
</event>
<event>
12    1  0.8135779E-002  0.1875479E+03  0.7818608E-02  0.1160885E+00
         21   -1    0    0  503  502  0.00000000000E+00  0.00000000000E+00  0.19748635180E+03  0.19748635180E+03  0.00000000000E+00 0. -1.
         21   -1    0    0  501  503 -0.00000000000E+00 -0.00000000000E+00 -0.69383525176E+03  0.69383525176E+03  0.00000000000E+00 0. -1.
          6    2    1    2  501    0 -0.48845732935E+02  0.56771478430E+02 -0.63255334756E+03  0.65953318354E+03  0.17103033733E+03 0.  0.
         24    2    3    3    0    0 -0.67400773957E+02  0.59764886622E+02 -0.62831821853E+03  0.63970198696E+03  0.79499323109E+02 0.  0.
         -6    2    1    2    0  502  0.48845732935E+02 -0.56771478430E+02  0.13620444760E+03  0.23178842002E+03  0.17194567084E+03 0.  0.
        -24    2    5    5    0    0  0.14250049710E+02 -0.77419582937E+02  0.15102428610E+03  0.18860366425E+03  0.81031792758E+02 0.  0.
          5    1    3    3  501    0  0.18555041022E+02 -0.29934081919E+01 -0.42351290302E+01  0.19831196581E+02  0.47000000000E+01 0. -1.
        -11    1    4    4    0    0  0.12634268890E+02  0.23044097010E+02 -0.76170729204E+02  0.80576889645E+02  0.00000000000E+00 0.  1.
         12    1    4    4    0    0 -0.80035042847E+02  0.36720789612E+02 -0.55214748933E+03  0.55912509731E+03  0.00000000000E+00 0. -1.
         -5    1    5    5    0  502  0.34595683224E+02  0.20648104507E+02 -0.14819838500E+02  0.43184755767E+02  0.47000000000E+01 0.  1.
         11    1    6    6    0    0  0.21891077813E+02 -0.84869898308E+02  0.86292417545E+02  0.12299796849E+03  0.00000000000E+00 0. -1.
        -12    1    6    6    0    0 -0.76410281025E+01  0.74503153707E+01  0.64731868559E+02  0.65605695764E+02  0.00000000000E+00 0.  1.
</event>
<event>
12    1  0.8135779E-002  0.1884015E+03  0.7818608E-02  0.1160147E+00
         21   -1    0    0  503  502  0.00000000000E+00  0.00000000000E+00  0.18274375956E+03  0.18274375956E+03  0.00000000000E+00 0. -1.
         21   -1    0    0  501  503 -0.00000000000E+00 -0.00000000000E+00 -0.22636044520E+03  0.22636044520E+03  0.00000000000E+00 0. -1.
          6    2    1    2  501    0  0.46266035327E+02  0.57906787738E+02 -0.10018353733E+03  0.21338197708E+03  0.17320907856E+03 0.  0.
         24    2    3    3    0    0  0.67374761937E+02  0.50569707351E+02 -0.66523466603E+01  0.11710329451E+03  0.81069562854E+02 0.  0.
         -6    2    1    2    0  502 -0.46266035327E+02 -0.57906787738E+02  0.56566851695E+02  0.19572222768E+03  0.17208614007E+03 0.  0.
        -24    2    5    5    0    0 -0.31583801406E+02 -0.30729393404E+02  0.10427563556E+03  0.13869243886E+03  0.80127100876E+02 0.  0.
          5    1    3    3  501    0 -0.21108726610E+02  0.73370803870E+01 -0.93531190674E+02  0.96278682566E+02  0.47000000000E+01 0. -1.
        -13    1    4    4    0    0  0.85605463332E+01  0.47006261110E+02 -0.26860724590E+02  0.54812134264E+02  0.00000000000E+00 0.  1.
         14    1    4    4    0    0  0.58814215604E+02  0.35634462414E+01  0.20208377930E+02  0.62291160246E+02  0.00000000000E+00 0. -1.
         -5    1    5    5    0  502 -0.14682233921E+02 -0.27177394334E+02 -0.47708783860E+02  0.57029788823E+02  0.47000000000E+01 0.  1.
         11    1    6    6    0    0 -0.51765768356E+02 -0.18796812922E+02  0.34269570297E+02  0.64864615916E+02  0.00000000000E+00 0. -1.
        -12    1    6    6    0    0  0.20181966951E+02 -0.11932580482E+02  0.70006065259E+02  0.73827822940E+02  0.00000000000E+00 0.  1.
</event>
<event>
12    1  0.8135779E-002  0.2027485E+03  0.7818608E-02  0.1148042E+00
         21   -1    0    0  503  502  0.00000000000E+00  0.00000000000E+00  0.32593531277E+03  0.32593531277E+03  0.00000000000E+00 0. -1.
         21   -1    0    0  501  503 -0.00000000000E+00 -0.00000000000E+00 -0.21037718910E+03  0.21037718910E+03  0.00000000000E+00 0. -1.
          6    2    1    2  501    0  0.10171893733E+03 -0.23413226837E+02 -0.11395443722E+03  0.23007245309E+03  0.17044881492E+03 0.  0.
         24    2    3    3    0    0  0.15122711830E+02 -0.58257436150E+02 -0.89563514526E+02  0.13348036074E+03  0.78566903277E+02 0.  0.
         -6    2    1    2    0  502 -0.10171893733E+03  0.23413226837E+02  0.22951256088E+03  0.30624004878E+03  0.17381608231E+03 0.  0.
        -24    2    5    5    0    0 -0.13762038704E+03  0.54301020900E+01  0.15912599074E+03  0.22506944989E+03  0.79789218636E+02 0.  0.
          5    1    3    3  501    0  0.86596225502E+02  0.34844209312E+02 -0.24390922690E+02  0.96592092345E+02  0.47000000000E+01 0. -1.
        -11    1    4    4    0    0 -0.27520292618E+02 -0.80639817602E+01 -0.47012089673E+02  0.55068420016E+02  0.00000000000E+00 0.  1.
         12    1    4    4    0    0  0.42643004448E+02 -0.50193454390E+02 -0.42551424853E+02  0.78411940729E+02  0.00000000000E+00 0. -1.
         -5    1    5    5    0  502  0.35901449705E+02  0.17983124747E+02  0.70386570144E+02  0.81170598884E+02  0.47000000000E+01 0.  1.
         13    1    6    6    0    0 -0.38990248131E+01 -0.20578264515E+02  0.34919347375E+02  0.40718892249E+02  0.00000000000E+00 0. -1.
        -14    1    6    6    0    0 -0.13372136222E+03  0.26008366605E+02  0.12420664336E+03  0.18435055764E+03  0.00000000000E+00 0.  1.
</event>
<event>
12    1  0.8135779E-002  0.2148357E+03  0.7818608E-02  0.1138385E+00
         21   -1    0    0  503  502  0.00000000000E+00  0.00000000000E+00  0.11778349954E+04  0.11778349954E+04  0.00000000000E+00 0.  1.
         21   -1    0    0  501  503 -0.00000000000E+00 -0.00000000000E+00 -0.16667778550E+03  0.16667778550E+03  0.00000000000E+00 0.  1.
          6    2    1    2  501    0 -0.12532093908E+03  0.19896700773E+02 -0.84482951524E+02  0.22800852881E+03  0.16955619611E+03 0.  0.
         24    2    3    3    0    0 -0.98297143176E+02  0.63963735164E+02 -0.10052633025E+03  0.17367926353E+03  0.79405640438E+02 0.  0.
         -6    2    1    2    0  502  0.12532093908E+03 -0.19896700773E+02  0.10956401614E+04  0.11165042521E+04  0.17335848738E+03 0.  0.
        -24    2    5    5    0    0  0.13700941240E+03 -0.58025307939E+02  0.76073450666E+03  0.77919979217E+03  0.79352448260E+02 0.  0.
          5    1    3    3  501    0 -0.27023795903E+02 -0.44067034391E+02  0.16043378730E+02  0.54329265283E+02  0.47000000000E+01 0. -1.
        -11    1    4    4    0    0 -0.15024079688E+02 -0.18288526458E+02 -0.99288135040E+01  0.25666602971E+02  0.00000000000E+00 0.  1.
         12    1    4    4    0    0 -0.83273063488E+02  0.82252261622E+02 -0.90597516750E+02  0.14801266056E+03  0.00000000000E+00 0. -1.
         -5    1    5    5    0  502 -0.11688473323E+02  0.38128607166E+02  0.33490565474E+03  0.33730445990E+03  0.47000000000E+01 0.  1.
         13    1    6    6    0    0  0.74814851068E+02 -0.32955303443E+02  0.22705767775E+03  0.24132654846E+03  0.00000000000E+00 0. -1.
        -14    1    6    6    0    0  0.62194561335E+02 -0.25070004496E+02  0.53367682891E+03  0.53787324371E+03  0.00000000000E+00 0.  1.
</event>
<event>
12    1  0.8135779E-002  0.2173418E+03  0.7818608E-02  0.1135905E+00
         21   -1    0    0  501  502  0.00000000000E+00  0.00000000000E+00  0.10601191226E+03  0.10601191226E+03  0.00000000000E+00 0.  1.
         21   -1    0    0  502  503 -0.00000000000E+00 -0.00000000000E+00 -0.49150234047E+03  0.49150234047E+03  0.00000000000E+00 0.  1.
         -6    2    1    2    0  503 -0.25740743119E+02 -0.12490655592E+03 -0.28437940216E+03  0.35792334660E+03  0.17599217056E+03 0.  0.
        -24    2    3    3    0    0 -0.71926454644E+02 -0.44912637324E+02 -0.20364871823E+03  0.23515657467E+03  0.81457070325E+02 0.  0.
          6    2    1    2  501    0  0.25740743119E+02  0.12490655592E+03 -0.10111102606E+03  0.23959090614E+03  0.17582983008E+03 0.  0.
         24    2    5    5    0    0  0.46025729932E+02  0.15441161348E+03 -0.79034663540E+02  0.19726496972E+03  0.81888192331E+02 0.  0.
          5    1    5    5  501    0 -0.20284986813E+02 -0.29505057564E+02 -0.22076362515E+02  0.42325936419E+02  0.47000000000E+01 0. -1.
        -13    1    6    6    0    0  0.21627022272E+02  0.14464342918E+03 -0.42578704673E+02  0.15232332648E+03  0.00000000000E+00 0.  1.
         14    1    6    6    0    0  0.24398707660E+02  0.97681842972E+01 -0.36455958867E+02  0.44941643237E+02  0.00000000000E+00 0. -1.
         -5    1    3    3    0  503  0.46185711525E+02 -0.79993918592E+02 -0.80730683929E+02  0.12276677192E+03  0.47000000000E+01 0.  1.
         11    1    4    4    0    0 -0.72578762684E+02 -0.47371172765E+02 -0.10358833291E+03  0.13506386459E+03  0.00000000000E+00 0. -1.
        -12    1    4    4    0    0  0.65230803983E+00  0.24585354401E+01 -0.10006038532E+03  0.10009271008E+03  0.00000000000E+00 0.  1.
</event>
<event>
12    1  0.8135779E-002  0.2054406E+03  0.7818608E-02  0.1145257E+00
         21   -1    0    0  503  502  0.00000000000E+00  0.00000000000E+00  0.23469340332E+03  0.23469340332E+03  0.00000000000E+00 0.  1.
         21   -1    0    0  501  503 -0.00000000000E+00 -0.00000000000E+00 -0.21013833008E+03  0.21013833008E+03  0.00000000000E+00 0. -1.
          6    2    1    2  501    0  0.10835490052E+03 -0.27670780433E+02 -0.72363658530E+02  0.21767738233E+03  0.17216412851E+03 0.  0.
         24    2    3    3    0    0  0.50101697801E+02 -0.79637270423E+02 -0.22124824742E+02  0.12472587815E+03  0.78833760831E+02 0.  0.
         -6    2    1    2    0  502 -0.10835490052E+03  0.27670780433E+02  0.96918731775E+02  0.22715435107E+03  0.17233514466E+03 0.  0.
        -24    2    5    5    0    0  0.13079938619E+02  0.51192410066E+02  0.29936212580E+02  0.86411908664E+02  0.61474331983E+02 0.  0.
          5    1    3    3  501    0  0.58253202720E+02  0.51966489990E+02 -0.50238833789E+02  0.92951504181E+02  0.47000000000E+01 0. -1.
        -11    1    4    4    0    0  0.30475806198E+02 -0.43556923778E+02  0.27870371908E+02  0.60022812352E+02  0.00000000000E+00 0.  1.
         12    1    4    4    0    0  0.19625891602E+02 -0.36080346645E+02 -0.49995196649E+02  0.64703065795E+02  0.00000000000E+00 0. -1.
         -5    1    5    5    0  502 -0.12143483914E+03 -0.23521629633E+02  0.66982519195E+02  0.14074244241E+03  0.47000000000E+01 0.  1.
         13    1    6    6    0    0  0.26947270363E+02  0.19151059460E+02  0.38215072301E+02  0.50530290019E+02  0.00000000000E+00 0. -1.
        -14    1    6    6    0    0 -0.13867331744E+02  0.32041350606E+02 -0.82788597202E+01  0.35881618646E+02  0.00000000000E+00 0.  1.
</event>
<event>
12    1  0.8135779E-002  0.1753716E+03  0.7818608E-02  0.1173481E+00
         21   -1    0    0  501  502  0.00000000000E+00  0.00000000000E+00  0.20385659103E+04  0.20385659103E+04  0.00000000000E+00 0. -1.
         21   -1    0    0  502  503 -0.00000000000E+00 -0.00000000000E+00 -0.20067569036E+02  0.20067569036E+02  0.00000000000E+00 0. -1.
         -6    2    1    2    0  503 -0.17045770631E+02 -0.28808087598E+02  0.46792948823E+03  0.49817874758E+03  0.16764126693E+03 0.  0.
        -24    2    3    3    0    0 -0.69893696356E+02  0.47723504621E+01  0.24926422787E+03  0.27067680218E+03  0.78901025483E+02 0.  0.
          6    2    1    2  501    0  0.17045770631E+02  0.28808087598E+02  0.15505688530E+04  0.15604547317E+04  0.17214742999E+03 0.  0.
         24    2    5    5    0    0  0.78136349145E+02  0.17611783791E+02  0.10680990942E+04  0.10739811207E+04  0.78640376015E+02 0.  0.
          5    1    5    5  501    0 -0.61090578514E+02  0.11196303807E+02  0.48246975885E+03  0.48647361101E+03  0.47000000000E+01 0. -1.
        -11    1    6    6    0    0  0.71114167324E+02 -0.19641325718E+02  0.65295163023E+03  0.65710641292E+03  0.00000000000E+00 0.  1.
         12    1    6    6    0    0  0.70221818209E+01  0.37253109509E+02  0.41514746394E+03  0.41687470782E+03  0.00000000000E+00 0. -1.
         -5    1    3    3    0  503  0.52847925725E+02 -0.33580438060E+02  0.21866526036E+03  0.22750194540E+03  0.47000000000E+01 0.  1.
         13    1    4    4    0    0 -0.55966286204E+01  0.16801485810E+02  0.58864203812E+01  0.18661782398E+02  0.00000000000E+00 0. -1.
        -14    1    4    4    0    0 -0.64297067736E+02 -0.12029135348E+02  0.24337780749E+03  0.25201501978E+03  0.00000000000E+00 0.  1.
</event>
<event>
12    1  0.8135779E-002  0.1810863E+03  0.7818608E-02  0.1166835E+00
         21   -1    0    0  501  502  0.00000000000E+00  0.00000000000E+00  0.54674423917E+03  0.54674423917E+03  0.00000000000E+00 0.  1.
         21   -1    0    0  502  503 -0.00000000000E+00 -0.00000000000E+00 -0.60918907559E+02  0.60918907559E+02  0.00000000000E+00 0.  1.
         -6    2    1    2    0  503 -0.35595526629E+02 -0.43933599092E+02  0.20321783839E+03  0.27219432776E+03  0.17203214693E+03 0.  0.
        -24    2    3    3    0    0 -0.42045840070E+02 -0.49739185263E+02  0.22544598830E+03  0.24787371875E+03  0.79835127548E+02 0.  0.
          6    2    1    2  501    0  0.35595526629E+02  0.43933599092E+02  0.28260749322E+03  0.33546881897E+03  0.17168322758E+03 0.  0.
         24    2    5    5    0    0  0.68413487193E+02  0.65377408585E+02  0.12689463322E+03  0.17482810100E+03  0.74215942873E+02 0.  0.
          5    1    5    5  501    0 -0.32817960564E+02 -0.21443809492E+02  0.15571286000E+03  0.16064071797E+03  0.47000000000E+01 0. -1.
        -13    1    6    6    0    0  0.37141292779E+02  0.22739879440E+02  0.11158153358E+03  0.11977903148E+03  0.00000000000E+00 0.  1.
         14    1    6    6    0    0  0.31272194413E+02  0.42637529144E+02  0.15313099647E+02  0.55049069527E+02  0.00000000000E+00 0. -1.
         -5    1    3    3    0  503  0.64503134408E+01  0.58055861709E+01 -0.22228149905E+02  0.24320609007E+02  0.47000000000E+01 0.  1.
         13    1    4    4    0    0  0.12875710663E+02 -0.12157814520E+02  0.62196961455E+01  0.18769150197E+02  0.00000000000E+00 0. -1.
        -14    1    4    4    0    0 -0.54921550733E+02 -0.37581370743E+02  0.21922629215E+03  0.22910456856E+03  0.00000000000E+00 0.  1.
</event>
<event>
12    1  0.8135779E-002  0.2120209E+03  0.7818608E-02  0.1141739E+00
         21   -1    0    0  503  502  0.00000000000E+00  0.00000000000E+00  0.73812445228E+03  0.73812445228E+03  0.00000000000E+00 0.  1.
         21   -1    0    0  501  503 -0.00000000000E+00 -0.00000000000E+00 -0.60127732058E+02  0.60127732058E+02  0.00000000000E+00 0.  1.
          6    2    1    2  501    0  0.75026676369E+02  0.90515522074E+02  0.27826397401E+03  0.34983382044E+03  0.17643922691E+03 0.  0.
         24    2    3    3    0    0  0.93098204498E+02  0.10513579566E+03  0.28273092009E+03  0.32570134987E+03  0.80148517921E+02 0.  0.
         -6    2    1    2    0  502 -0.75026676369E+02 -0.90515522074E+02  0.39973274621E+03  0.44841836389E+03  0.16574286947E+03 0.  0.
        -24    2    5    5    0    0 -0.11229110709E+03 -0.56768357385E+02  0.25047095259E+03  0.29084716742E+03  0.77617250492E+02 0.  0.
          5    1    3    3  501    0 -0.18071528129E+02 -0.14620273582E+02 -0.44669460822E+01  0.24132470571E+02  0.47000000000E+01 0. -1.
        -11    1    4    4    0    0  0.38776654621E+02  0.38686651317E+02  0.38835652082E+02  0.67145318574E+02  0.00000000000E+00 0.  1.
         12    1    4    4    0    0  0.54321549877E+02  0.66449144339E+02  0.24389526801E+03  0.25855603130E+03  0.00000000000E+00 0. -1.
         -5    1    5    5    0  502  0.37264430725E+02 -0.33747164689E+02  0.14926179362E+03  0.15757119647E+03  0.47000000000E+01 0.  1.
         13    1    6    6    0    0 -0.48394190558E+02 -0.48544110264E+02  0.64839006272E+02  0.94353723061E+02  0.00000000000E+00 0. -1.
        -14    1    6    6    0    0 -0.63896916535E+02 -0.82242471216E+01  0.18563194632E+03  0.19649344436E+03  0.00000000000E+00 0.  1.
</event>
<event>
12    1  0.8135779E-002  0.2177125E+03  0.7818608E-02  0.1135601E+00
         21   -1    0    0  501  502  0.00000000000E+00  0.00000000000E+00  0.70245479120E+02  0.70245479120E+02  0.00000000000E+00 0. -1.
         21   -1    0    0  502  503 -0.00000000000E+00 -0.00000000000E+00 -0.18741289254E+04  0.18741289254E+04  0.00000000000E+00 0.  1.
         -6    2    1    2    0  503  0.41718543991E+02  0.12853800083E+03 -0.16796809862E+04  0.16937316581E+04  0.17069346679E+03 0.  0.
        -24    2    3    3    0    0 -0.38801046344E+01  0.37324713908E+01 -0.80451606832E+03  0.80852468769E+03  0.80231414460E+02 0.  0.
          6    2    1    2  501    0 -0.41718543991E+02 -0.12853800083E+03 -0.12420246008E+03  0.25064274645E+03  0.17068415476E+03 0.  0.
         24    2    5    5    0    0 -0.59888655474E+02 -0.28239263854E+02 -0.21114562884E+02  0.10559380940E+03  0.79499187039E+02 0.  0.
          5    1    5    5  501    0  0.18170111483E+02 -0.10029873697E+03 -0.10308789720E+03  0.14504893705E+03  0.47000000000E+01 0. -1.
        -11    1    6    6    0    0  0.17041082891E+02 -0.31939107524E+01 -0.17462122628E+02  0.24607423649E+02  0.00000000000E+00 0.  1.
         12    1    6    6    0    0 -0.76929738365E+02 -0.25045353102E+02 -0.36524402557E+01  0.80986385749E+02  0.00000000000E+00 0. -1.
         -5    1    3    3    0  503  0.45598648625E+02  0.12480552944E+03 -0.87516491790E+03  0.88520697040E+03  0.47000000000E+01 0.  1.
         11    1    4    4    0    0 -0.34365963215E+02 -0.24344107714E+01 -0.18200364566E+03  0.18523572231E+03  0.00000000000E+00 0. -1.
        -12    1    4    4    0    0  0.30485858580E+02  0.61668821623E+01 -0.62251242266E+03  0.62328896538E+03  0.00000000000E+00 0.  1.
</event>
<event>
12    1  0.8135779E-002  0.3164660E+03  0.7818608E-02  0.1077292E+00
         21   -1    0    0  503  502  0.00000000000E+00  0.00000000000E+00  0.17550204058E+03  0.17550204058E+03  0.00000000000E+00 0.  1.
         21   -1    0    0  501  503 -0.00000000000E+00 -0.00000000000E+00 -0.76426523190E+03  0.76426523190E+03  0.00000000000E+00 0. -1.
          6    2    1    2  501    0 -0.12701290683E+03 -0.23283279059E+03 -0.57848356983E+02  0.32170973037E+03  0.17264799834E+03 0.  0.
         24    2    3    3    0    0 -0.99590757940E+02 -0.24916547545E+03 -0.27590800500E+02  0.27747919149E+03  0.65051488950E+02 0.  0.
         -6    2    1    2    0  502  0.12701290683E+03  0.23283279059E+03 -0.53091483434E+03  0.61805754211E+03  0.17257223753E+03 0.  0.
        -24    2    5    5    0    0  0.15379702961E+02  0.44089067238E+02 -0.20312522019E+03  0.22365383212E+03  0.81122132811E+02 0.  0.
          5    1    3    3  501    0 -0.27422148891E+02  0.16332684862E+02 -0.30257556483E+02  0.44230538872E+02  0.47000000000E+01 0. -1.
        -13    1    4    4    0    0 -0.40734068894E+02 -0.17004715978E+03 -0.35952877689E+02  0.17851585457E+03  0.00000000000E+00 0.  1.
         14    1    4    4    0    0 -0.58856689046E+02 -0.79118315669E+02  0.83620771890E+01  0.98963336922E+02  0.00000000000E+00 0. -1.
         -5    1    5    5    0  502  0.11163320387E+03  0.18874372335E+03 -0.32778961415E+03  0.39440370999E+03  0.47000000000E+01 0.  1.
         13    1    6    6    0    0 -0.80659826230E+01  0.62944599892E+02 -0.14132747381E+03  0.15492106889E+03  0.00000000000E+00 0. -1.
        -14    1    6    6    0    0  0.23445685584E+02 -0.18855532654E+02 -0.61797746379E+02  0.68732763234E+02  0.00000000000E+00 0.  1.
</event>
<event>
12    1  0.8135779E-002  0.2211164E+03  0.7818608E-02  0.1133644E+00
         21   -1    0    0  501  502  0.00000000000E+00  0.00000000000E+00  0.41614354193E+03  0.41614354193E+03  0.00000000000E+00 0. -1.
         21   -1    0    0  502  503 -0.00000000000E+00 -0.00000000000E+00 -0.19350658544E+03  0.19350658544E+03  0.00000000000E+00 0.  1.
         -6    2    1    2    0  503  0.12858003926E+03 -0.35966918732E+02 -0.81348118516E+02  0.23560554650E+03  0.17625552875E+03 0.  0.
        -24    2    3    3    0    0  0.10448047716E+03 -0.67076765068E+02 -0.34426750447E+01  0.14819868433E+03  0.80842658944E+02 0.  0.
          6    2    1    2  501    0 -0.12858003926E+03  0.35966918732E+02  0.30398507500E+03  0.37404458088E+03  0.17226716727E+03 0.  0.
         24    2    5    5    0    0 -0.11833909355E+03 -0.87760887777E+01  0.29422162152E+03  0.32688285154E+03  0.78771030628E+02 0.  0.
          5    1    5    5  501    0 -0.10240945707E+02  0.44743007510E+02  0.97634534858E+01  0.47161729336E+02  0.47000000000E+01 0. -1.
        -11    1    6    6    0    0  0.69823048044E+01  0.10384588546E+02  0.11323170304E+02  0.16876209449E+02  0.00000000000E+00 0.  1.
         12    1    6    6    0    0 -0.12532139836E+03 -0.19160677324E+02  0.28289845121E+03  0.31000664209E+03  0.00000000000E+00 0. -1.
         -5    1    3    3    0  503  0.24099562101E+02  0.31109846336E+02 -0.77905443471E+02  0.87406862173E+02  0.47000000000E+01 0.  1.
         11    1    4    4    0    0  0.44351984143E+02  0.48288712523E+01  0.23828982841E+02  0.50579016581E+02  0.00000000000E+00 0. -1.
        -12    1    4    4    0    0  0.60128493015E+02 -0.71905636321E+02 -0.27271657885E+02  0.97619667746E+02  0.00000000000E+00 0.  1.
</event>
<event>
12    1  0.8135779E-002  0.1795605E+03  0.7818608E-02  0.1168662E+00
         21   -1    0    0  503  502  0.00000000000E+00  0.00000000000E+00  0.23726095019E+02  0.23726095019E+02  0.00000000000E+00 0. -1.
         21   -1    0    0  501  503 -0.00000000000E+00 -0.00000000000E+00 -0.14696976657E+04  0.14696976657E+04  0.00000000000E+00 0.  1.
          6    2    1    2  501    0 -0.40034470219E+02  0.13016504403E+02 -0.94330539687E+03  0.96024321675E+03  0.17455593761E+03 0.  0.
         24    2    3    3    0    0 -0.34501428029E+02 -0.59530614119E+02 -0.58211309831E+03  0.59176572015E+03  0.81220476273E+02 0.  0.
         -6    2    1    2    0  502  0.40034470219E+02 -0.13016504403E+02 -0.50266617380E+03  0.53318054396E+03  0.17273106837E+03 0.  0.
        -24    2    5    5    0    0  0.32279739690E+02 -0.71788219974E+02 -0.38300195118E+03  0.39955469851E+03  0.82206644331E+02 0.  0.
          5    1    3    3  501    0 -0.55330421894E+01  0.72547118522E+02 -0.36119229856E+03  0.36847749660E+03  0.47000000000E+01 0. -1.
        -11    1    4    4    0    0  0.20328273021E+02 -0.45521842524E+02 -0.27099449645E+03  0.27554218178E+03  0.00000000000E+00 0.  1.
         12    1    4    4    0    0 -0.54829701051E+02 -0.14008771595E+02 -0.31111860186E+03  0.31622353837E+03  0.00000000000E+00 0. -1.
         -5    1    5    5    0  502  0.77547305288E+01  0.58771715571E+02 -0.11966422263E+03  0.13362584545E+03  0.47000000000E+01 0.  1.
         11    1    6    6    0    0  0.28829879697E+02 -0.14158174069E+02 -0.38000215044E+02  0.49755725296E+02  0.00000000000E+00 0. -1.
        -12    1    6    6    0    0  0.34498599928E+01 -0.57630045905E+02 -0.34500173613E+03  0.34979897321E+03  0.00000000000E+00 0.  1.
</event>
<event>
12    1  0.8135779E-002  0.2657936E+03  0.7818608E-02  0.1103798E+00
         21   -1    0    0  501  502  0.00000000000E+00  0.00000000000E+00  0.95793908242E+02  0.95793908242E+02  0.00000000000E+00 0.  1.
         21   -1    0    0  502  503 -0.00000000000E+00 -0.00000000000E+00 -0.93305210177E+03  0.93305210177E+03  0.00000000000E+00 0.  1.
         -6    2    1    2    0  503  0.19999497608E+03 -0.27652048779E+02 -0.65476552455E+03  0.70643351558E+03  0.17195288172E+03 0.  0.
        -24    2    3    3    0    0  0.74226466940E+02  0.16413649277E+02 -0.44078639394E+03  0.45430525065E+03  0.79508737950E+02 0.  0.
          6    2    1    2  501    0 -0.19999497608E+03  0.27652048779E+02 -0.18249266898E+03  0.32241249444E+03  0.17286878283E+03 0.  0.
         24    2    5    5    0    0 -0.97643083851E+02  0.45982617052E+02 -0.27905719134E+02  0.13604958332E+03  0.77988377768E+02 0.  0.
          5    1    5    5  501    0 -0.10235189223E+03 -0.18330568273E+02 -0.15458694985E+03  0.18636291112E+03  0.47000000000E+01 0. -1.
        -13    1    6    6    0    0 -0.91075957156E+02  0.25128215815E+02 -0.48336292963E+02  0.10612565392E+03  0.00000000000E+00 0.  1.
         14    1    6    6    0    0 -0.65671266944E+01  0.20854401237E+02  0.20430573830E+02  0.29923929404E+02  0.00000000000E+00 0. -1.
         -5    1    3    3    0  503  0.12576850914E+03 -0.44065698056E+02 -0.21397913061E+03  0.25212826493E+03  0.47000000000E+01 0.  1.
         11    1    4    4    0    0  0.23063075859E+02 -0.27902397546E+02 -0.89257883900E+02  0.96319359919E+02  0.00000000000E+00 0. -1.
        -12    1    4    4    0    0  0.51163391081E+02  0.44316046823E+02 -0.35152851004E+03  0.35798589073E+03  0.00000000000E+00 0.  1.
</event>
<event>
12    1  0.8135779E-002  0.2706439E+03  0.7818608E-02  0.1100962E+00
         21   -1    0    0  503  502  0.00000000000E+00  0.00000000000E+00  0.28034455603E+03  0.28034455603E+03  0.00000000000E+00 0.  1.
         21   -1    0    0  501  503 -0.00000000000E+00 -0.00000000000E+00 -0.43600508243E+03  0.43600508243E+03  0.00000000000E+00 0.  1.
          6    2    1    2  501    0  0.20870796689E+03 -0.11353268908E+02  0.14910044823E+03  0.30899688479E+03  0.17193085526E+03 0.  0.
         24    2    3    3    0    0  0.63589270597E+02  0.48121487592E+02  0.81376008687E+02  0.13810109085E+03  0.78042191161E+02 0.  0.
         -6    2    1    2    0  502 -0.20870796689E+03  0.11353268908E+02 -0.30476097463E+03  0.40735275367E+03  0.17137415821E+03 0.  0.
        -24    2    5    5    0    0 -0.44942029729E+02 -0.36422103349E+02 -0.13011981145E+03  0.16317373276E+03  0.79675253907E+02 0.  0.
          5    1    3    3  501    0  0.14511869630E+03 -0.59474756500E+02  0.67724439539E+02  0.17089579394E+03  0.47000000000E+01 0. -1.
        -11    1    4    4    0    0  0.78243189235E+02  0.42749316886E+02  0.48008107168E+02  0.10126341447E+03  0.00000000000E+00 0.  1.
         12    1    4    4    0    0 -0.14653918637E+02  0.53721707058E+01  0.33367901519E+02  0.36837676383E+02  0.00000000000E+00 0. -1.
         -5    1    5    5    0  502 -0.16376593716E+03  0.47775372257E+02 -0.17464116319E+03  0.24417902090E+03  0.47000000000E+01 0.  1.
         13    1    6    6    0    0  0.22095356091E+02 -0.11625261412E+02 -0.20476051049E+02  0.32289628835E+02  0.00000000000E+00 0. -1.
        -14    1    6    6    0    0 -0.67037385821E+02 -0.24796841938E+02 -0.10964376040E+03  0.13088410393E+03  0.00000000000E+00 0.  1.
</event>
<event>
12    1  0.8135779E-002  0.2035366E+03  0.7818608E-02  0.1147120E+00
         21   -1    0    0  501  502  0.00000000000E+00  0.00000000000E+00  0.63096579943E+03  0.63096579943E+03  0.00000000000E+00 0. -1.
         21   -1    0    0  502  503 -0.00000000000E+00 -0.00000000000E+00 -0.69024035293E+02  0.69024035293E+02  0.00000000000E+00 0.  1.
         -6    2    1    2    0  503  0.66844268439E+02 -0.82406307181E+02  0.36292896532E+03  0.41532645947E+03  0.17181291681E+03 0.  0.
        -24    2    3    3    0    0  0.90311737946E+01 -0.42991581795E+01  0.26720052032E+03  0.27883797710E+03  0.79085109563E+02 0.  0.
          6    2    1    2  501    0 -0.66844268439E+02  0.82406307181E+02  0.19901279882E+03  0.28466337525E+03  0.17368991747E+03 0.  0.
         24    2    5    5    0    0  0.49867704125E+01  0.78778412335E+02  0.80098815192E+02  0.14561127974E+03  0.92498207897E+02 0.  0.
          5    1    5    5  501    0 -0.71831038851E+02  0.36278948460E+01  0.11891398363E+03  0.13905209551E+03  0.47000000000E+01 0. -1.
        -13    1    6    6    0    0  0.48796329531E+02  0.42828815642E+02  0.42206798410E+02  0.77439027996E+02  0.00000000000E+00 0.  1.
         14    1    6    6    0    0 -0.43809559118E+02  0.35949596693E+02  0.37892016783E+02  0.68172251748E+02  0.00000000000E+00 0. -1.
         -5    1    3    3    0  503  0.57813094644E+02 -0.78107149002E+02  0.95728445003E+02  0.13648848237E+03  0.47000000000E+01 0.  1.
         11    1    4    4    0    0  0.87629458643E+01 -0.34595914416E+02  0.63035900983E+02  0.72437499455E+02  0.00000000000E+00 0. -1.
        -12    1    4    4    0    0  0.26822793030E+00  0.30296756236E+02  0.20416461933E+03  0.20640047764E+03  0.00000000000E+00 0.  1.
</event>
<event>
12    1  0.8135779E-002  0.1743521E+03  0.7818608E-02  0.1173539E+00
         21   -1    0    0  503  502  0.00000000000E+00  0.00000000000E+00  0.29981527029E+02  0.29981527029E+02  0.00000000000E+00 0. -1.
         21   -1    0    0  501  503 -0.00000000000E+00 -0.00000000000E+00 -0.10436397334E+04  0.10436397334E+04  0.00000000000E+00 0. -1.
          6    2    1    2  501    0 -0.83088887914E+01  0.22804208514E+02 -0.60185221613E+03  0.62642687761E+03  0.17203334960E+03 0.  0.
         24    2    3    3    0    0  0.40402582721E+02  0.34394105386E+02 -0.20059955329E+03  0.22203483688E+03  0.79018762550E+02 0.  0.
         -6    2    1    2    0  502  0.83088887914E+01 -0.22804208514E+02 -0.41180599021E+03  0.44719438278E+03  0.17265448985E+03 0.  0.
        -24    2    5    5    0    0  0.19268061350E+02  0.50091173506E+02 -0.28782570354E+03  0.30287861211E+03  0.77533439265E+02 0.  0.
          5    1    3    3  501    0 -0.48711471512E+02 -0.11589896872E+02 -0.40125266284E+03  0.40439204072E+03  0.47000000000E+01 0. -1.
        -11    1    4    4    0    0  0.99128587277E+01 -0.87929146261E+01  0.13137106468E+01  0.13315628090E+02  0.00000000000E+00 0.  1.
         12    1    4    4    0    0  0.30489723993E+02  0.43187020012E+02 -0.20191326393E+03  0.20871920879E+03  0.00000000000E+00 0. -1.
         -5    1    5    5    0  502 -0.10959172559E+02 -0.72895382020E+02 -0.12398028667E+03  0.14431577068E+03  0.47000000000E+01 0.  1.
         11    1    6    6    0    0 -0.11379435841E+02  0.13374867037E+02 -0.85394164536E+01  0.19526911217E+02  0.00000000000E+00 0. -1.
        -12    1    6    6    0    0  0.30647497191E+02  0.36716306469E+02 -0.27928628708E+03  0.28335170089E+03  0.00000000000E+00 0.  1.
</event>
<event>
12    1  0.8135779E-002  0.1740169E+03  0.7818608E-02  0.1174047E+00
         21   -1    0    0  503  502  0.00000000000E+00  0.00000000000E+00  0.27289338613E+02  0.27289338613E+02  0.00000000000E+00 0.  1.
         21   -1    0    0  501  503 -0.00000000000E+00 -0.00000000000E+00 -0.16857566153E+04  0.16857566153E+04  0.00000000000E+00 0.  1.
          6    2    1    2  501    0 -0.91003503354E+00 -0.56165428543E+00 -0.13314720536E+04  0.13426303050E+04  0.17273437072E+03 0.  0.
         24    2    3    3    0    0 -0.49454972989E+02  0.46863785395E+02 -0.83775586993E+03  0.84424938309E+03  0.79247173511E+02 0.  0.
         -6    2    1    2    0  502  0.91003503354E+00  0.56165428543E+00 -0.32699522315E+03  0.37041564895E+03  0.17401360121E+03 0.  0.
        -24    2    5    5    0    0 -0.58919182886E+02 -0.11217995440E+02 -0.16161070648E+03  0.19408520967E+03  0.89183712799E+02 0.  0.
          5    1    3    3  501    0  0.48544937955E+02 -0.47425439680E+02 -0.49371618363E+03  0.49838092190E+03  0.47000000000E+01 0. -1.
        -13    1    4    4    0    0 -0.33846493254E+02  0.36732961135E+02 -0.80522353566E+03  0.80677124262E+03  0.00000000000E+00 0.  1.
         14    1    4    4    0    0 -0.15608479735E+02  0.10130824260E+02 -0.32532334262E+02  0.37478140461E+02  0.00000000000E+00 0. -1.
         -5    1    5    5    0  502  0.59829217919E+02  0.11779649726E+02 -0.16538451667E+03  0.17633043928E+03  0.47000000000E+01 0.  1.
         13    1    6    6    0    0  0.72962088857E+01 -0.31214137092E+02 -0.85132671485E+02  0.90967734789E+02  0.00000000000E+00 0. -1.
        -14    1    6    6    0    0 -0.66215391771E+02  0.19996141651E+02 -0.76478034996E+02  0.10311747488E+03  0.00000000000E+00 0.  1.
</event>
<event>
12    1  0.8135779E-002  0.1991240E+03  0.7818608E-02  0.1150626E+00
         21   -1    0    0  503  502  0.00000000000E+00  0.00000000000E+00  0.30578998951E+03  0.30578998951E+03  0.00000000000E+00 0.  1.
         21   -1    0    0  501  503 -0.00000000000E+00 -0.00000000000E+00 -0.12959031841E+03  0.12959031841E+03  0.00000000000E+00 0.  1.
          6    2    1    2  501    0 -0.80114235480E+02 -0.57752296316E+02  0.76274361952E+02  0.21259015732E+03  0.17211385256E+03 0.  0.
         24    2    3    3    0    0  0.12397867400E+02 -0.21111350500E+02 -0.64782026834E+01  0.83086778817E+02  0.79133112338E+02 0.  0.
         -6    2    1    2    0  502  0.80114235480E+02  0.57752296316E+02  0.99925309142E+02  0.22279015060E+03  0.17290681115E+03 0.  0.
        -24    2    5    5    0    0  0.63547009703E+02  0.14483513181E+02 -0.45414407935E+01  0.10841335048E+03  0.86514942532E+02 0.  0.
          5    1    3    3  501    0 -0.92512102880E+02 -0.36640945816E+02  0.82752564635E+02  0.12950337850E+03  0.47000000000E+01 0. -1.
        -13    1    4    4    0    0  0.13372024142E+02 -0.49943826244E+02  0.51999518154E+01  0.51963798057E+02  0.00000000000E+00 0.  1.
         14    1    4    4    0    0 -0.97415674242E+00  0.28832475745E+02 -0.11678154499E+02  0.31122980761E+02  0.00000000000E+00 0. -1.
         -5    1    5    5    0  502  0.16567225777E+02  0.43268783135E+02  0.10446674994E+03  0.11437680012E+03  0.47000000000E+01 0.  1.
         13    1    6    6    0    0  0.17436509655E+02 -0.14134505358E+02  0.34781288099E+02  0.41395097687E+02  0.00000000000E+00 0. -1.
        -14    1    6    6    0    0  0.46110500047E+02  0.28618018539E+02 -0.39322728893E+02  0.67018252792E+02  0.00000000000E+00 0.  1.
</event>
<event>
12    1  0.8135779E-002  0.1793628E+03  0.7818608E-02  0.1168822E+00
         21   -1    0    0  503  502  0.00000000000E+00  0.00000000000E+00  0.28843417265E+03  0.28843417265E+03  0.00000000000E+00 0.  1.
         21   -1    0    0  501  503 -0.00000000000E+00 -0.00000000000E+00 -0.22407538241E+03  0.22407538241E+03  0.00000000000E+00 0.  1.
          6    2    1    2  501    0 -0.42656323747E+02  0.11463072432E+02 -0.15016991381E+03  0.23392734759E+03  0.17383911226E+03 0.  0.
         24    2    3    3    0    0  0.64434624076E+01  0.56119650567E+02 -0.13426718530E+03  0.16551692627E+03  0.78595435274E+02 0.  0.
         -6    2    1    2    0  502  0.42656323747E+02 -0.11463072432E+02  0.21452870405E+03  0.27858220747E+03  0.17214679048E+03 0.  0.
        -24    2    5    5    0    0  0.13761728169E+02 -0.24903467256E+02  0.22881473723E+03  0.24334412281E+03  0.77785668900E+02 0.  0.
          5    1    3    3  501    0 -0.49099786154E+02 -0.44656578135E+02 -0.15902728509E+02  0.68410421320E+02  0.47000000000E+01 0. -1.
        -13    1    4    4    0    0  0.42011914738E+02  0.21714648936E+02 -0.64317023831E+02  0.79832365071E+02  0.00000000000E+00 0.  1.
         14    1    4    4    0    0 -0.35568452330E+02  0.34405001631E+02 -0.69950161467E+02  0.85684561197E+02  0.00000000000E+00 0. -1.
         -5    1    5    5    0  502  0.28894595578E+02  0.13440394823E+02 -0.14286033181E+02  0.35238084662E+02  0.47000000000E+01 0.  1.
         11    1    6    6    0    0  0.26771028157E+02  0.13403908057E+02  0.38468230505E+02  0.48745845545E+02  0.00000000000E+00 0. -1.
        -12    1    6    6    0    0 -0.13009299988E+02 -0.38307375312E+02  0.19034650673E+03  0.19459827726E+03  0.00000000000E+00 0.  1.
</event>
<event>
12    1  0.8135779E-002  0.1797685E+03  0.7818608E-02  0.1168642E+00
         21   -1    0    0  501  502  0.00000000000E+00  0.00000000000E+00  0.28377416231E+02  0.28377416231E+02  0.00000000000E+00 0.  1.
         21   -1    0    0  502  503 -0.00000000000E+00 -0.00000000000E+00 -0.11229848831E+04  0.11229848831E+04  0.00000000000E+00 0.  1.
         -6    2    1    2    0  503  0.32614579256E+02 -0.19082543318E+02 -0.54696363609E+03  0.57574816284E+03  0.17575230744E+03 0.  0.
        -24    2    3    3    0    0 -0.37908845247E+02  0.25130054997E+02 -0.34989002513E+03  0.36176590799E+03  0.79893318170E+02 0.  0.
          6    2    1    2  501    0 -0.32614579256E+02  0.19082543318E+02 -0.54764383081E+03  0.57561413652E+03  0.17317625270E+03 0.  0.
         24    2    5    5    0    0  0.18431506243E+02 -0.16539182905E+02 -0.46088844592E+03  0.46873477915E+03  0.81736580625E+02 0.  0.
          5    1    5    5  501    0 -0.51046085499E+02  0.35621726223E+02 -0.86755384891E+02  0.10687935737E+03  0.47000000000E+01 0. -1.
        -13    1    6    6    0    0 -0.21028089330E+02 -0.34760869573E+02 -0.18194917314E+03  0.18642961192E+03  0.00000000000E+00 0.  1.
         14    1    6    6    0    0  0.39459595573E+02  0.18221686668E+02 -0.27893927277E+03  0.28230516722E+03  0.00000000000E+00 0. -1.
         -5    1    3    3    0  503  0.70523424503E+02 -0.44212598316E+02 -0.19707361096E+03  0.21398225485E+03  0.47000000000E+01 0.  1.
         11    1    4    4    0    0 -0.26059971852E+02  0.74293615805E+01 -0.27273116149E+02  0.38446591669E+02  0.00000000000E+00 0. -1.
        -12    1    4    4    0    0 -0.11848873395E+02  0.17700693417E+02 -0.32261690898E+03  0.32331931632E+03  0.00000000000E+00 0.  1.
</event>
<event>
12    1  0.8135779E-002  0.1909038E+03  0.7818608E-02  0.1157662E+00
         21   -1    0    0  501  502  0.00000000000E+00  0.00000000000E+00  0.19193098282E+03  0.19193098282E+03  0.00000000000E+00 0. -1.
         21   -1    0    0  502  503 -0.00000000000E+00 -0.00000000000E+00 -0.33675258764E+03  0.33675258764E+03  0.00000000000E+00 0. -1.
         -6    2    1    2    0  503  0.82327650869E+02 -0.44803353578E+01 -0.24702531434E+03  0.31219506636E+03  0.17218111984E+03 0.  0.
        -24    2    3    3    0    0  0.34455984579E+02 -0.45240942867E+02 -0.22551334761E+03  0.24557691365E+03  0.78852982076E+02 0.  0.
          6    2    1    2  501    0 -0.82327650869E+02  0.44803353578E+01  0.10220370953E+03  0.21648850410E+03  0.17211553870E+03 0.  0.
         24    2    5    5    0    0 -0.61260912316E+02  0.89541043860E+01 -0.11117313721E+02  0.10104342455E+03  0.79076568064E+02 0.  0.
          5    1    5    5  501    0 -0.21066738553E+02 -0.44737690282E+01  0.11332102325E+03  0.11544507955E+03  0.47000000000E+01 0. -1.
        -13    1    6    6    0    0 -0.75719402127E+02  0.22950650225E+02 -0.25223690086E+01  0.79161370311E+02  0.00000000000E+00 0.  1.
         14    1    6    6    0    0  0.14458489810E+02 -0.13996545839E+02 -0.85949447121E+01  0.21882054237E+02  0.00000000000E+00 0. -1.
         -5    1    3    3    0  503  0.47871666290E+02  0.40760607509E+02 -0.21511966732E+02  0.66618152710E+02  0.47000000000E+01 0.  1.
         11    1    4    4    0    0  0.41980082836E+02 -0.11001464888E+01 -0.16522901909E+03  0.17048215867E+03  0.00000000000E+00 0. -1.
        -12    1    4    4    0    0 -0.75240982566E+01 -0.44140796378E+02 -0.60284328523E+02  0.75094754976E+02  0.00000000000E+00 0.  1.
</event>
<event>
12    1  0.8135779E-002  0.2209380E+03  0.7818608E-02  0.1133196E+00
         21   -1    0    0  501  502  0.00000000000E+00  0.00000000000E+00  0.59004731977E+03  0.59004731977E+03  0.00000000000E+00 0.  1.
         21   -1    0    0  502  503 -0.00000000000E+00 -0.00000000000E+00 -0.22292121468E+03  0.22292121468E+03  0.00000000000E+00 0.  1.
         -6    2    1    2    0  503 -0.37155957806E+02  0.13352608451E+03 -0.13882243886E+03  0.26088383745E+03  0.17198525130E+03 0.  0.
        -24    2    3    3    0    0 -0.71683844448E+02  0.61158064169E+02 -0.13397789145E+03  0.18041729183E+03  0.75640210371E+02 0.  0.
          6    2    1    2  501    0  0.37155957806E+02 -0.13352608451E+03  0.50594854395E+03  0.55208469700E+03  0.17205755749E+03 0.  0.
         24    2    5    5    0    0  0.41745086310E+02 -0.15821103690E+03  0.48711819915E+03  0.52035019118E+03  0.81895037038E+02 0.  0.
          5    1    5    5  501    0 -0.45891285040E+01  0.24684952381E+02  0.18830344807E+02  0.31734505826E+02  0.47000000000E+01 0. -1.
        -13    1    6    6    0    0  0.23989385885E+02 -0.36884082455E+02  0.24535715375E+03  0.24927105542E+03  0.00000000000E+00 0.  1.
         14    1    6    6    0    0  0.17755700426E+02 -0.12132695444E+03  0.24176104539E+03  0.27107913575E+03  0.00000000000E+00 0. -1.
         -5    1    3    3    0  503  0.34527886641E+02  0.72368020344E+02 -0.48445474126E+01  0.80466545621E+02  0.47000000000E+01 0.  1.
         13    1    4    4    0    0  0.70519750975E+01  0.28676576739E+02 -0.12528326958E+02  0.32078581368E+02  0.00000000000E+00 0. -1.
        -14    1    4    4    0    0 -0.78735819545E+02  0.32481487431E+02 -0.12144956449E+03  0.14833871046E+03  0.00000000000E+00 0.  1.
</event>
<event>
12    1  0.8135779E-002  0.1822700E+03  0.7818608E-02  0.1165751E+00
         21   -1    0    0  503  502  0.00000000000E+00  0.00000000000E+00  0.18340845964E+03  0.18340845964E+03  0.00000000000E+00 0.  1.
         21   -1    0    0  501  503 -0.00000000000E+00 -0.00000000000E+00 -0.18108177973E+03  0.18108177973E+03  0.00000000000E+00 0.  1.
          6    2    1    2  501    0 -0.30114450224E+02  0.51866904678E+02 -0.81393813600E+01  0.18245168430E+03  0.17212005014E+03 0.  0.
         24    2    3    3    0    0  0.28837910962E+02  0.76223120416E+01 -0.46995412406E+02  0.98996031309E+02  0.81865259288E+02 0.  0.
         -6    2    1    2    0  502  0.30114450224E+02 -0.51866904678E+02  0.10466061265E+02  0.18203855507E+03  0.17155594184E+03 0.  0.
        -24    2    5    5    0    0 -0.30693786572E+02 -0.70726982237E+02  0.31721818356E+02  0.11475377672E+03  0.78852653484E+02 0.  0.
          5    1    3    3  501    0 -0.58952361186E+02  0.44244592636E+02  0.38856031046E+02  0.83455652988E+02  0.47000000000E+01 0. -1.
        -13    1    4    4    0    0 -0.26757837851E+02  0.10385556207E+02 -0.28216472398E+02  0.40249359980E+02  0.00000000000E+00 0.  1.
         14    1    4    4    0    0  0.55595748814E+02 -0.27632441654E+01 -0.18778940009E+02  0.58746671330E+02  0.00000000000E+00 0. -1.
         -5    1    5    5    0  502  0.60808236796E+02  0.18860077559E+02 -0.21255757091E+02  0.67284778348E+02  0.47000000000E+01 0.  1.
         11    1    6    6    0    0 -0.36887661372E+02  0.89270215436E+00  0.19630501760E+01  0.36950643359E+02  0.00000000000E+00 0. -1.
        -12    1    6    6    0    0  0.61938748004E+01 -0.71619684392E+02  0.29758768180E+02  0.77803133362E+02  0.00000000000E+00 0.  1.
</event>
<event>
12    1  0.8135779E-002  0.2146020E+03  0.7818608E-02  0.1138162E+00
         21   -1    0    0  501  502  0.00000000000E+00  0.00000000000E+00  0.53768253297E+03  0.53768253297E+03  0.00000000000E+00 0.  1.
         21   -1    0    0  502  503 -0.00000000000E+00 -0.00000000000E+00 -0.11941679116E+03  0.11941679116E+03  0.00000000000E+00 0.  1.
         -6    2    1    2    0  503  0.76995927288E+02 -0.10159099085E+03  0.33764964681E+02  0.21724200986E+03  0.17264100256E+03 0.  0.
        -24    2    3    3    0    0  0.77670341402E+02 -0.41824606451E+01  0.42411582579E+02  0.11933526549E+03  0.79949911463E+02 0.  0.
          6    2    1    2  501    0 -0.76995927288E+02  0.10159099085E+03  0.38450077713E+03  0.43985731427E+03  0.17141909772E+03 0.  0.
         24    2    5    5    0    0  0.17337413085E+02  0.46116707057E+02  0.24250610243E+03  0.26052312090E+03  0.81460114453E+02 0.  0.
          5    1    5    5  501    0 -0.94333340373E+02  0.55474283791E+02  0.14199467470E+03  0.17933419337E+03  0.47000000000E+01 0. -1.
        -13    1    6    6    0    0 -0.22459058662E+02  0.28816728110E+02  0.43341518867E+02  0.56685980565E+02  0.00000000000E+00 0.  1.
         14    1    6    6    0    0  0.39796471747E+02  0.17299978947E+02  0.19916458356E+03  0.20383714034E+03  0.00000000000E+00 0. -1.
         -5    1    3    3    0  503 -0.67441411421E+00 -0.97408530204E+02 -0.86466178977E+01  0.97906744364E+02  0.47000000000E+01 0.  1.
         13    1    4    4    0    0  0.67401997154E+02 -0.34768875271E+02  0.42768588241E+02  0.87069260064E+02  0.00000000000E+00 0. -1.
        -14    1    4    4    0    0  0.10268344248E+02  0.30586414626E+02 -0.35700566219E+00  0.32266005429E+02  0.00000000000E+00 0.  1.
</event>
<event>
12    1  0.8135779E-002  0.1835326E+03  0.7818608E-02  0.1164809E+00
         21   -1    0    0  501  502  0.00000000000E+00  0.00000000000E+00  0.17800477459E+03  0.17800477459E+03  0.00000000000E+00 0. -1.
         21   -1    0    0  502  503 -0.00000000000E+00 -0.00000000000E+00 -0.26176771731E+03  0.26176771731E+03  0.00000000000E+00 0. -1.
         -6    2    1    2    0  503  0.58709141546E+02  0.24043678189E+02 -0.15907632741E+03  0.24287749156E+03  0.17221886134E+03 0.  0.
        -24    2    3    3    0    0  0.13368785637E+02  0.77906670476E+02 -0.10059249094E+03  0.15122914765E+03  0.80642619828E+02 0.  0.
          6    2    1    2  501    0 -0.58709141546E+02 -0.24043678189E+02  0.75313384694E+02  0.19689500034E+03  0.17050124188E+03 0.  0.
         24    2    5    5    0    0 -0.13837388468E+02  0.10271614564E+02  0.10485351962E+03  0.13297533895E+03  0.79944986134E+02 0.  0.
          5    1    5    5  501    0 -0.44871753078E+02 -0.34315292754E+02 -0.29540134923E+02  0.63919661391E+02  0.47000000000E+01 0. -1.
        -13    1    6    6    0    0  0.27289615584E+02 -0.13739772382E+02  0.22874173357E+02  0.38167162203E+02  0.00000000000E+00 0.  1.
         14    1    6    6    0    0 -0.41127004052E+02  0.24011386947E+02  0.81979346260E+02  0.94808176749E+02  0.00000000000E+00 0. -1.
         -5    1    3    3    0  503  0.45340355910E+02 -0.53862992287E+02 -0.58483836469E+02  0.91648343903E+02  0.47000000000E+01 0.  1.
         13    1    4    4    0    0 -0.39065638058E+01  0.24836814149E+02 -0.91239264773E+02  0.94640012754E+02  0.00000000000E+00 0. -1.
        -14    1    4    4    0    0  0.17275349442E+02  0.53069856328E+02 -0.93532261656E+01  0.56589134900E+02  0.00000000000E+00 0.  1.
</event>
<event>
12    1  0.8135779E-002  0.1689906E+03  0.7818608E-02  0.1180896E+00
         21   -1    0    0  501  502  0.00000000000E+00  0.00000000000E+00  0.49886539647E+03  0.49886539647E+03  0.00000000000E+00 0.  1.
         21   -1    0    0  502  503 -0.00000000000E+00 -0.00000000000E+00 -0.60552071538E+02  0.60552071538E+02  0.00000000000E+00 0.  1.
         -6    2    1    2    0  503 -0.18443427212E+02 -0.20610436233E+02  0.12828372533E+03  0.20632231425E+03  0.15920814390E+03 0.  0.
        -24    2    3    3    0    0 -0.58305432932E+02  0.15157485559E+02  0.51697490948E+02  0.11274953495E+03  0.80065936471E+02 0.  0.
          6    2    1    2  501    0  0.18443427212E+02  0.20610436233E+02  0.31002959960E+03  0.35309515375E+03  0.16671198184E+03 0.  0.
         24    2    5    5    0    0 -0.31170230586E+02  0.61756580778E+02  0.22034290912E+03  0.24254963056E+03  0.74120625588E+02 0.  0.
          5    1    5    5  501    0  0.49613657798E+02 -0.41146144545E+02  0.89686690473E+02  0.11054552320E+03  0.47000000000E+01 0. -1.
        -11    1    6    6    0    0  0.21242754398E+02  0.30605487684E+02  0.55993494949E+02  0.67254902925E+02  0.00000000000E+00 0.  1.
         12    1    6    6    0    0 -0.52412984983E+02  0.31151093094E+02  0.16434941417E+03  0.17529472763E+03  0.00000000000E+00 0. -1.
         -5    1    3    3    0  503  0.39862005720E+02 -0.35767921792E+02  0.76586234383E+02  0.93572779302E+02  0.47000000000E+01 0.  1.
         11    1    4    4    0    0  0.68501674593E+01  0.24170068917E+02  0.38014321025E+02  0.45565399468E+02  0.00000000000E+00 0. -1.
        -12    1    4    4    0    0 -0.65155600392E+02 -0.90125833581E+01  0.13683169923E+02  0.67184135481E+02  0.00000000000E+00 0.  1.
</event>
<event>
12    1  0.8135779E-002  0.1967445E+03  0.7818608E-02  0.1154268E+00
         21   -1    0    0  501  502  0.00000000000E+00  0.00000000000E+00  0.94828528324E+02  0.94828528324E+02  0.00000000000E+00 0.  1.
         21   -1    0    0  502  503 -0.00000000000E+00 -0.00000000000E+00 -0.68303395136E+03  0.68303395136E+03  0.00000000000E+00 0. -1.
         -6    2    1    2    0  503 -0.47664027168E+02 -0.79849630498E+02 -0.54453148487E+03  0.57632879596E+03  0.16429400497E+03 0.  0.
        -24    2    3    3    0    0 -0.42585840440E+02 -0.90448350783E+02 -0.54816454435E+03  0.56316027390E+03  0.81674160287E+02 0.  0.
          6    2    1    2  501    0  0.47664027168E+02  0.79849630498E+02 -0.43673938174E+02  0.20153368372E+03  0.17337990029E+03 0.  0.
         24    2    5    5    0    0  0.88879313521E+01 -0.11542522109E+01  0.18817923837E+02  0.92023239298E+02  0.89631661211E+02 0.  0.
          5    1    5    5  501    0  0.38776095816E+02  0.81003882709E+02 -0.62491862012E+02  0.10951044443E+03  0.47000000000E+01 0. -1.
        -13    1    6    6    0    0 -0.94090802349E+00  0.26607282529E+02  0.45217047287E+02  0.52472985019E+02  0.00000000000E+00 0.  1.
         14    1    6    6    0    0  0.98288393756E+01 -0.27761534740E+02 -0.26399123450E+02  0.39550254279E+02  0.00000000000E+00 0. -1.
         -5    1    3    3    0  503 -0.50781867283E+01  0.10598720285E+02  0.36330594788E+01  0.13168522062E+02  0.47000000000E+01 0.  1.
         13    1    4    4    0    0 -0.32837049008E+02 -0.77733146220E+02 -0.23684066911E+03  0.25142437502E+03  0.00000000000E+00 0. -1.
        -14    1    4    4    0    0 -0.97487914316E+01 -0.12715204563E+02 -0.31132387523E+03  0.31173589888E+03  0.00000000000E+00 0.  1.
</event>
<event>
12    1  0.8135779E-002  0.1936509E+03  0.7818608E-02  0.1155816E+00
         21   -1    0    0  503  502  0.00000000000E+00  0.00000000000E+00  0.17419088603E+03  0.17419088603E+03  0.00000000000E+00 0.  1.
         21   -1    0    0  501  503 -0.00000000000E+00 -0.00000000000E+00 -0.26663831778E+03  0.26663831778E+03  0.00000000000E+00 0.  1.
          6    2    1    2  501    0  0.45459533723E+02 -0.68821609382E+02 -0.14602766618E+03  0.24253810344E+03  0.17520750328E+03 0.  0.
         24    2    3    3    0    0 -0.13393371029E+02 -0.75821144137E+02 -0.14802368319E+03  0.18305086138E+03  0.75288636462E+02 0.  0.
         -6    2    1    2    0  502 -0.45459533723E+02  0.68821609382E+02  0.53580234425E+02  0.19829110036E+03  0.17217879032E+03 0.  0.
        -24    2    5    5    0    0 -0.46996788532E+02 -0.28547118392E+02  0.41646939223E+01  0.88988685275E+02  0.69842718523E+02 0.  0.
          5    1    3    3  501    0  0.58852904751E+02  0.69995347554E+01  0.19960170113E+01  0.59487242064E+02  0.47000000000E+01 0. -1.
        -13    1    4    4    0    0 -0.18633003367E+02 -0.70437475135E+02 -0.59115193877E+02  0.93825544843E+02  0.00000000000E+00 0.  1.
         14    1    4    4    0    0  0.52396323386E+01 -0.53836690019E+01 -0.88908489310E+02  0.89225316533E+02  0.00000000000E+00 0. -1.
         -5    1    5    5    0  502  0.15372548093E+01  0.97368727774E+02  0.49415540503E+02  0.10930241509E+03  0.47000000000E+01 0.  1.
         11    1    6    6    0    0 -0.47475171280E+02 -0.48259200381E+02  0.99864348797E+01  0.68429315290E+02  0.00000000000E+00 0. -1.
        -12    1    6    6    0    0  0.47838274799E+00  0.19712081989E+02 -0.58217409573E+01  0.20559369985E+02  0.00000000000E+00 0.  1.
</event>
<event>
12    1  0.8135779E-002  0.1955799E+03  0.7818608E-02  0.1153573E+00
         21   -1    0    0  503  502  0.00000000000E+00  0.00000000000E+00  0.46499173276E+02  0.46499173276E+02  0.00000000000E+00 0.  1.
         21   -1    0    0  501  503 -0.00000000000E+00 -0.00000000000E+00 -0.86478663886E+03  0.86478663886E+03  0.00000000000E+00 0. -1.
          6    2    1    2  501    0  0.13277816443E+02  0.90704374280E+02 -0.51112003056E+03  0.54726154795E+03  0.17276554141E+03 0.  0.
         24    2    3    3    0    0  0.66634976365E+01  0.40479652800E+02 -0.10603054127E+03  0.13898975588E+03  0.79954187301E+02 0.  0.
         -6    2    1    2    0  502 -0.13277816443E+02 -0.90704374280E+02 -0.30716743502E+03  0.36402426418E+03  0.17250579079E+03 0.  0.
        -24    2    5    5    0    0  0.26564244777E+02 -0.16853622412E+02 -0.67009347218E+02  0.10958503661E+03  0.80801757065E+02 0.  0.
          5    1    3    3  501    0  0.66143188064E+01  0.50224721479E+02 -0.40508948930E+03  0.40827179207E+03  0.47000000000E+01 0. -1.
        -11    1    4    4    0    0  0.18787436912E+02 -0.15301093838E+02 -0.79383962588E+01  0.25497242862E+02  0.00000000000E+00 0.  1.
         12    1    4    4    0    0 -0.12123939276E+02  0.55780746639E+02 -0.98092145011E+02  0.11349251302E+03  0.00000000000E+00 0. -1.
         -5    1    5    5    0  502 -0.39842061220E+02 -0.73850751868E+02 -0.24015808780E+03  0.25443922758E+03  0.47000000000E+01 0.  1.
         13    1    6    6    0    0  0.39308783584E+02 -0.83803420633E+01 -0.79988269365E+02  0.89518343573E+02  0.00000000000E+00 0. -1.
        -14    1    6    6    0    0 -0.12744538807E+02 -0.84732803483E+01  0.12978922147E+02  0.20066693035E+02  0.00000000000E+00 0.  1.
</event>
<event>
12    1  0.8135779E-002  0.1887459E+03  0.7818608E-02  0.1159800E+00
         21   -1    0    0  503  502  0.00000000000E+00  0.00000000000E+00  0.51847861189E+03  0.51847861189E+03  0.00000000000E+00 0. -1.
         21   -1    0    0  501  503 -0.00000000000E+00 -0.00000000000E+00 -0.83372406555E+02  0.83372406555E+02  0.00000000000E+00 0. -1.
          6    2    1    2  501    0  0.38951184358E+02  0.65917089051E+02  0.90394702243E+02  0.20927545059E+03  0.17251885298E+03 0.  0.
         24    2    3    3    0    0  0.42369485949E+02  0.64570778979E+00  0.10815292077E+03  0.14138228213E+03  0.80599659748E+02 0.  0.
         -6    2    1    2    0  502 -0.38951184358E+02 -0.65917089051E+02  0.34471150310E+03  0.39257556786E+03  0.17154386821E+03 0.  0.
        -24    2    5    5    0    0  0.23624188503E+00 -0.10056307758E+03  0.18922679820E+03  0.22846102751E+03  0.79212824424E+02 0.  0.
          5    1    3    3  501    0 -0.34183015907E+01  0.65271381261E+02 -0.17758218532E+02  0.67893168455E+02  0.47000000000E+01 0. -1.
        -11    1    4    4    0    0  0.57442896959E+02  0.24340643102E+02  0.66876082385E+02  0.91457988786E+02  0.00000000000E+00 0.  1.
         12    1    4    4    0    0 -0.15073411010E+02 -0.23694935312E+02  0.41276838389E+02  0.49924293349E+02  0.00000000000E+00 0. -1.
         -5    1    5    5    0  502 -0.39187426243E+02  0.34645988526E+02  0.15548470490E+03  0.16411454035E+03  0.47000000000E+01 0.  1.
         13    1    6    6    0    0  0.33584838790E+02 -0.65156448758E+02  0.77864138210E+02  0.10693983463E+03  0.00000000000E+00 0. -1.
        -14    1    6    6    0    0 -0.33348596905E+02 -0.35406628818E+02  0.11136265999E+03  0.12152119288E+03  0.00000000000E+00 0.  1.
</event>
<event>
12    1  0.8135779E-002  0.2633274E+03  0.7818608E-02  0.1105291E+00
         21   -1    0    0  503  502  0.00000000000E+00  0.00000000000E+00  0.12828969044E+04  0.12828969044E+04  0.00000000000E+00 0.  1.
         21   -1    0    0  501  503 -0.00000000000E+00 -0.00000000000E+00 -0.62111137779E+02  0.62111137779E+02  0.00000000000E+00 0.  1.
          6    2    1    2  501    0 -0.57710911086E+02 -0.18943188040E+03  0.36452617493E+03  0.44917223313E+03  0.17222478403E+03 0.  0.
         24    2    3    3    0    0 -0.14835644299E+02 -0.28090453766E+02  0.52535395216E+02  0.95294173514E+02  0.72882383472E+02 0.  0.
         -6    2    1    2    0  502  0.57710911086E+02  0.18943188040E+03  0.85625959170E+03  0.89583580906E+03  0.17356935744E+03 0.  0.
        -24    2    5    5    0    0  0.10510278487E+03  0.13936567635E+03  0.59427053954E+03  0.62488753367E+03  0.82810436715E+02 0.  0.
          5    1    3    3  501    0 -0.42875266787E+02 -0.16134142664E+03  0.31199077971E+03  0.35387805961E+03  0.47000000000E+01 0. -1.
        -13    1    4    4    0    0  0.36667882365E+01 -0.40764478693E+02  0.59133839763E+02  0.71916611879E+02  0.00000000000E+00 0.  1.
         14    1    4    4    0    0 -0.18502432536E+02  0.12674024926E+02 -0.65984445463E+01  0.23377561635E+02  0.00000000000E+00 0. -1.
         -5    1    5    5    0  502 -0.47391873782E+02  0.50066204056E+02  0.26198905215E+03  0.27094827539E+03  0.47000000000E+01 0.  1.
         11    1    6    6    0    0 -0.11239717749E+02  0.30940316553E+02  0.77552069142E+02  0.84249379058E+02  0.00000000000E+00 0. -1.
        -12    1    6    6    0    0  0.11634250262E+03  0.10842535979E+03  0.51671847040E+03  0.54063815461E+03  0.00000000000E+00 0.  1.
</event>
<event>
12    1  0.8135779E-002  0.2031596E+03  0.7818608E-02  0.1147295E+00
         21   -1    0    0  501  502  0.00000000000E+00  0.00000000000E+00  0.74363597685E+02  0.74363597685E+02  0.00000000000E+00 0.  1.
         21   -1    0    0  502  503 -0.00000000000E+00 -0.00000000000E+00 -0.57393579940E+03  0.57393579940E+03  0.00000000000E+00 0.  1.
         -6    2    1    2    0  503  0.88339301227E+02 -0.61345077640E+02 -0.31304604569E+03  0.37319114458E+03  0.17235647065E+03 0.  0.
        -24    2    3    3    0    0  0.32592901195E+02 -0.96014076948E+02 -0.15269950639E+03  0.19986283386E+03  0.79668142484E+02 0.  0.
          6    2    1    2  501    0 -0.88339301227E+02  0.61345077640E+02 -0.18652615603E+03  0.27510825251E+03  0.17124687742E+03 0.  0.
         24    2    5    5    0    0 -0.85456674115E+02  0.39612838069E+02 -0.43924108338E+02  0.13075440330E+03  0.79343346281E+02 0.  0.
          5    1    5    5  501    0 -0.28826271126E+01  0.21732239571E+02 -0.14260204769E+03  0.14435384921E+03  0.47000000000E+01 0. -1.
        -11    1    6    6    0    0 -0.95279814896E+02  0.14922163064E+02 -0.36989135016E+02  0.10329138486E+03  0.00000000000E+00 0.  1.
         12    1    6    6    0    0  0.98231407814E+01  0.24690675004E+02 -0.69349733216E+01  0.27463018442E+02  0.00000000000E+00 0. -1.
         -5    1    3    3    0  503  0.55746400032E+02  0.34668999308E+02 -0.16034653931E+03  0.17332831072E+03  0.47000000000E+01 0.  1.
         11    1    4    4    0    0 -0.13852659278E+02 -0.47962724248E+02 -0.25228053578E+02  0.55935442911E+02  0.00000000000E+00 0. -1.
        -12    1    4    4    0    0  0.46445560473E+02 -0.48051352701E+02 -0.12747145281E+03  0.14392739095E+03  0.00000000000E+00 0.  1.
</event>
<event>
12    1  0.8135779E-002  0.2250263E+03  0.7818608E-02  0.1130252E+00
         21   -1    0    0  503  502  0.00000000000E+00  0.00000000000E+00  0.46278747343E+02  0.46278747343E+02  0.00000000000E+00 0. -1.
         21   -1    0    0  501  503 -0.00000000000E+00 -0.00000000000E+00 -0.11285431695E+04  0.11285431695E+04  0.00000000000E+00 0.  1.
          6    2    1    2  501    0  0.92770020219E+02  0.10931007290E+03 -0.64568175983E+03  0.68365876376E+03  0.17300116066E+03 0.  0.
         24    2    3    3    0    0  0.90565699305E+00  0.69794533698E+02 -0.46995312241E+03  0.48141341009E+03  0.77658463813E+02 0.  0.
         -6    2    1    2    0  502 -0.92770020219E+02 -0.10931007290E+03 -0.43658266232E+03  0.49116315308E+03  0.17344120968E+03 0.  0.
        -24    2    5    5    0    0 -0.10462977450E+03 -0.26927810183E+02 -0.20667359700E+03  0.24660690332E+03  0.80177879707E+02 0.  0.
          5    1    3    3  501    0  0.91864363226E+02  0.39515539207E+02 -0.17572863742E+03  0.20224535367E+03  0.47000000000E+01 0. -1.
        -13    1    4    4    0    0 -0.33274035142E+02  0.51022684276E+02 -0.21376573380E+03  0.22227520031E+03  0.00000000000E+00 0.  1.
         14    1    4    4    0    0  0.34179692135E+02  0.18771849422E+02 -0.25618738860E+03  0.25913820977E+03  0.00000000000E+00 0. -1.
         -5    1    5    5    0  502  0.11859754277E+02 -0.82382262722E+02 -0.22990906532E+03  0.24455624976E+03  0.47000000000E+01 0.  1.
         13    1    6    6    0    0 -0.54874745120E+02 -0.54005980598E+02 -0.10477764964E+03  0.13002399569E+03  0.00000000000E+00 0. -1.
        -14    1    6    6    0    0 -0.49755029377E+02  0.27078170415E+02 -0.10189594736E+03  0.11658290762E+03  0.00000000000E+00 0.  1.
</event>
<event>
12    1  0.8135779E-002  0.3484625E+03  0.7818608E-02  0.1063328E+00
         21   -1    0    0  501  502  0.00000000000E+00  0.00000000000E+00  0.47986135870E+03  0.47986135870E+03  0.00000000000E+00 0. -1.
         21   -1    0    0  502  503 -0.00000000000E+00 -0.00000000000E+00 -0.33328588089E+03  0.33328588089E+03  0.00000000000E+00 0.  1.
         -6    2    1    2    0  503 -0.87537346054E+02  0.29244997634E+03 -0.12696654108E+03  0.37014458972E+03  0.16642337314E+03 0.  0.
        -24    2    3    3    0    0 -0.29688410967E+01  0.85468833738E+02 -0.96285307083E+02  0.14440922797E+03  0.65340869334E+02 0.  0.
          6    2    1    2  501    0  0.87537346054E+02 -0.29244997634E+03  0.27354201889E+03  0.44300264988E+03  0.16803671053E+03 0.  0.
         24    2    5    5    0    0  0.77702734426E+02 -0.25477716885E+03  0.28879122643E+03  0.40092429034E+03  0.79942438172E+02 0.  0.
          5    1    5    5  501    0  0.98346116274E+01 -0.37672807492E+02 -0.15249207545E+02  0.42078359533E+02  0.47000000000E+01 0. -1.
        -11    1    6    6    0    0 -0.92419013331E+01 -0.10111990239E+03  0.10388714104E+03  0.14526935490E+03  0.00000000000E+00 0.  1.
         12    1    6    6    0    0  0.86944635759E+02 -0.15365726646E+03  0.18490408539E+03  0.25565493544E+03  0.00000000000E+00 0. -1.
         -5    1    3    3    0  503 -0.84568504957E+02  0.20698114260E+03 -0.30681233998E+02  0.22573536175E+03  0.47000000000E+01 0.  1.
         11    1    4    4    0    0 -0.32850027469E+02  0.31110080380E+02 -0.46417086119E+02  0.64819034934E+02  0.00000000000E+00 0. -1.
        -12    1    4    4    0    0  0.29881186373E+02  0.54358753358E+02 -0.49868220964E+02  0.79590193038E+02  0.00000000000E+00 0.  1.
</event>
<event>
12    1  0.8135779E-002  0.1871967E+03  0.7818608E-02  0.1161040E+00
         21   -1    0    0  501  502  0.00000000000E+00  0.00000000000E+00  0.66550966182E+02  0.66550966182E+02  0.00000000000E+00 0. -1.
         21   -1    0    0  502  503 -0.00000000000E+00 -0.00000000000E+00 -0.52774080306E+03  0.52774080306E+03  0.00000000000E+00 0. -1.
         -6    2    1    2    0  503  0.67358979670E+02  0.27852369499E+02 -0.24639371567E+03  0.30937073954E+03  0.17230033295E+03 0.  0.
        -24    2    3    3    0    0  0.78784098724E+02 -0.35310153360E+02 -0.19123447786E+03  0.22460831181E+03  0.80153147600E+02 0.  0.
          6    2    1    2  501    0 -0.67358979670E+02 -0.27852369499E+02 -0.21479612121E+03  0.28492102970E+03  0.17242283158E+03 0.  0.
         24    2    5    5    0    0  0.19015903734E+02 -0.88278411368E+01 -0.16101487400E+03  0.18130121638E+03  0.80652377741E+02 0.  0.
          5    1    5    5  501    0 -0.86374883404E+02 -0.19024528362E+02 -0.53781247209E+02  0.10361981333E+03  0.47000000000E+01 0. -1.
        -11    1    6    6    0    0 -0.23846035129E+01 -0.39339899476E+02 -0.46934820061E+02  0.61287774954E+02  0.00000000000E+00 0.  1.
         12    1    6    6    0    0  0.21400507247E+02  0.30512058339E+02 -0.11408005394E+03  0.12001344142E+03  0.00000000000E+00 0. -1.
         -5    1    3    3    0  503 -0.11425119054E+02  0.63162522859E+02 -0.55159237811E+02  0.84762427733E+02  0.47000000000E+01 0.  1.
         13    1    4    4    0    0  0.87035974537E+02 -0.83545097305E+01 -0.12422835766E+03  0.15191360552E+03  0.00000000000E+00 0. -1.
        -14    1    4    4    0    0 -0.82518758122E+01 -0.26955643629E+02 -0.67006120202E+02  0.72694706289E+02  0.00000000000E+00 0.  1.
</event>
<event>
12    1  0.8135779E-002  0.1721946E+03  0.7818608E-02  0.1175782E+00
         21   -1    0    0  501  502  0.00000000000E+00  0.00000000000E+00  0.85432332847E+03  0.85432332847E+03  0.00000000000E+00 0.  1.
         21   -1    0    0  502  503 -0.00000000000E+00 -0.00000000000E+00 -0.55501828417E+02  0.55501828417E+02  0.00000000000E+00 0.  1.
         -6    2    1    2    0  503  0.10671778548E+02  0.13306615271E+01  0.12046494994E+03  0.21014943021E+03  0.17185843400E+03 0.  0.
        -24    2    3    3    0    0 -0.20467279196E+02 -0.30733747806E+02  0.72322063140E+01  0.88323687887E+02  0.79908048793E+02 0.  0.
          6    2    1    2  501    0 -0.10671778548E+02 -0.13306615271E+01  0.67835655011E+03  0.69967572668E+03  0.17106389422E+03 0.  0.
         24    2    5    5    0    0 -0.32271024085E+02  0.55813087180E+02  0.51336775267E+03  0.52367763378E+03  0.80841171059E+02 0.  0.
          5    1    5    5  501    0  0.21599245537E+02 -0.57143748707E+02  0.16498879744E+03  0.17599809290E+03  0.47000000000E+01 0. -1.
        -11    1    6    6    0    0  0.26883940001E+02  0.11590217402E+02  0.12931619034E+03  0.13258867393E+03  0.00000000000E+00 0.  1.
         12    1    6    6    0    0 -0.59154964086E+02  0.44222869778E+02  0.38405156233E+03  0.39108895985E+03  0.00000000000E+00 0. -1.
         -5    1    3    3    0  503  0.31139057744E+02  0.32064409333E+02  0.11323274363E+03  0.12182574232E+03  0.47000000000E+01 0.  1.
         11    1    4    4    0    0  0.14298848081E+00 -0.12426279035E+02  0.42087906240E+02  0.43884219350E+02  0.00000000000E+00 0. -1.
        -12    1    4    4    0    0 -0.20610267677E+02 -0.18307468771E+02 -0.34855699925E+02  0.44439468537E+02  0.00000000000E+00 0.  1.
</event>
<event>
12    1  0.8135779E-002  0.2069561E+03  0.7818608E-02  0.1145127E+00
         21   -1    0    0  501  502  0.00000000000E+00  0.00000000000E+00  0.13095769341E+03  0.13095769341E+03  0.00000000000E+00 0. -1.
         21   -1    0    0  502  503 -0.00000000000E+00 -0.00000000000E+00 -0.32502977124E+03  0.32502977124E+03  0.00000000000E+00 0. -1.
         -6    2    1    2    0  503  0.37154437255E+02  0.10368441412E+03 -0.63217913983E+02  0.21113317837E+03  0.16867069818E+03 0.  0.
        -24    2    3    3    0    0 -0.15176343440E+02  0.11818003042E+03 -0.33774143951E+02  0.14918433582E+03  0.83177113830E+02 0.  0.
          6    2    1    2  501    0 -0.37154437255E+02 -0.10368441412E+03 -0.13085416385E+03  0.24485428628E+03  0.17521386753E+03 0.  0.
         24    2    5    5    0    0  0.90665788741E+01 -0.41214895892E+02 -0.13964083578E+03  0.16650813996E+03  0.80277812375E+02 0.  0.
          5    1    5    5  501    0 -0.46221016129E+02 -0.62469518228E+02  0.87866719329E+01  0.78346146321E+02  0.47000000000E+01 0. -1.
        -11    1    6    6    0    0 -0.76914433719E+01  0.12306521296E+01 -0.11379897278E+03  0.11406524016E+03  0.00000000000E+00 0.  1.
         12    1    6    6    0    0  0.16758022246E+02 -0.42445548021E+02 -0.25841862995E+02  0.52442899801E+02  0.00000000000E+00 0. -1.
         -5    1    3    3    0  503  0.52330780695E+02 -0.14495616298E+02 -0.29443770032E+02  0.61948842553E+02  0.47000000000E+01 0.  1.
         11    1    4    4    0    0  0.30061415252E+02  0.29970244407E+02 -0.25927968448E+02  0.49740966864E+02  0.00000000000E+00 0. -1.
        -12    1    4    4    0    0 -0.45237758692E+02  0.88209786011E+02 -0.78461755030E+01  0.99443368957E+02  0.00000000000E+00 0.  1.
</event>
<event>
12    1  0.8135779E-002  0.1898667E+03  0.7818608E-02  0.1158982E+00
         21   -1    0    0  501  502  0.00000000000E+00  0.00000000000E+00  0.41975473962E+02  0.41975473962E+02  0.00000000000E+00 0.  1.
         21   -1    0    0  502  503 -0.00000000000E+00 -0.00000000000E+00 -0.11064099940E+04  0.11064099940E+04  0.00000000000E+00 0.  1.
         -6    2    1    2    0  503 -0.55708494352E+01 -0.81016324755E+02 -0.81007849412E+03  0.83203157665E+03  0.17162371245E+03 0.  0.
        -24    2    3    3    0    0  0.41166584798E+02 -0.10674930512E+03 -0.53032505949E+03  0.54719715418E+03  0.71343920385E+02 0.  0.
          6    2    1    2  501    0  0.55708494352E+01  0.81016324755E+02 -0.25435602588E+03  0.31635389127E+03  0.16967061437E+03 0.  0.
         24    2    5    5    0    0  0.34385888486E+02  0.89056324025E+02 -0.11325184050E+03  0.17203677796E+03  0.87505745050E+02 0.  0.
          5    1    5    5  501    0 -0.28815039051E+02 -0.80399992701E+01 -0.14110418538E+03  0.14431711331E+03  0.47000000000E+01 0. -1.
        -11    1    6    6    0    0  0.73006923903E+01  0.73321197543E+02 -0.24072868829E+02  0.77516457170E+02  0.00000000000E+00 0.  1.
         12    1    6    6    0    0  0.27085196095E+02  0.15735126482E+02 -0.89178971673E+02  0.94520320786E+02  0.00000000000E+00 0. -1.
         -5    1    3    3    0  503 -0.46737434233E+02  0.25732980367E+02 -0.27975343463E+03  0.28483442247E+03  0.47000000000E+01 0.  1.
         13    1    4    4    0    0  0.36934935486E+01 -0.35271668645E+00  0.11489236565E+01  0.38841124113E+01  0.00000000000E+00 0. -1.
        -14    1    4    4    0    0  0.37473091249E+02 -0.10639658844E+03 -0.53147398315E+03  0.54331304177E+03  0.00000000000E+00 0.  1.
</event>
<event>
12    1  0.8135779E-002  0.1798068E+03  0.7818608E-02  0.1168558E+00
         21   -1    0    0  503  502  0.00000000000E+00  0.00000000000E+00  0.36309390760E+02  0.36309390760E+02  0.00000000000E+00 0.  1.
         21   -1    0    0  501  503 -0.00000000000E+00 -0.00000000000E+00 -0.99204163305E+03  0.99204163305E+03  0.00000000000E+00 0.  1.
          6    2    1    2  501    0  0.20517902011E+02 -0.48178816228E+02 -0.65424126925E+03  0.67849990548E+03  0.17201250160E+03 0.  0.
         24    2    3    3    0    0 -0.42699640971E+02 -0.45297499687E+02 -0.29383105870E+03  0.31254585154E+03  0.86447067275E+02 0.  0.
         -6    2    1    2    0  502 -0.20517902011E+02  0.48178816228E+02 -0.30149097304E+03  0.34985111834E+03  0.16957834631E+03 0.  0.
        -24    2    5    5    0    0 -0.74923913970E+02  0.37527780011E+02 -0.23200743238E+03  0.26083701197E+03  0.84773645515E+02 0.  0.
          5    1    3    3  501    0  0.63217542982E+02 -0.28813165408E+01 -0.36041021055E+03  0.36595405394E+03  0.47000000000E+01 0. -1.
        -11    1    4    4    0    0 -0.24935555038E+02 -0.38227777855E+02 -0.28932492686E+03  0.29290281359E+03  0.00000000000E+00 0.  1.
         12    1    4    4    0    0 -0.17764085933E+02 -0.70697218324E+01 -0.45061318404E+01  0.19643037952E+02  0.00000000000E+00 0. -1.
         -5    1    5    5    0  502  0.54406011959E+02  0.10651036218E+02 -0.69483540660E+02  0.89014106368E+02  0.47000000000E+01 0.  1.
         11    1    6    6    0    0 -0.53394856991E+02  0.41677948751E+02 -0.70198735059E+02  0.97549600558E+02  0.00000000000E+00 0. -1.
        -12    1    6    6    0    0 -0.21529056979E+02 -0.41501687401E+01 -0.16180869733E+03  0.16328741141E+03  0.00000000000E+00 0.  1.
</event>
<event>
12    1  0.8135779E-002  0.1984749E+03  0.7818608E-02  0.1151652E+00
         21   -1    0    0  501  502  0.00000000000E+00  0.00000000000E+00  0.85145368631E+02  0.85145368631E+02  0.00000000000E+00 0. -1.
         21   -1    0    0  502  503 -0.00000000000E+00 -0.00000000000E+00 -0.94347701264E+03  0.94347701264E+03  0.00000000000E+00 0. -1.
         -6    2    1    2    0  503  0.73593914638E+02  0.62181380622E+02 -0.80039283958E+03  0.82463384197E+03  0.17352143179E+03 0.  0.
        -24    2    3    3    0    0 -0.25910670102E+01 -0.90301340335E+01 -0.19128311645E+03  0.20664357015E+03  0.77614930875E+02 0.  0.
          6    2    1    2  501    0 -0.73593914638E+02 -0.62181380622E+02 -0.57938804423E+02  0.20398853930E+03  0.17021113577E+03 0.  0.
         24    2    5    5    0    0 -0.52506236605E+02 -0.76550277514E+01 -0.94933180103E+02  0.13464528329E+03  0.79382235396E+02 0.  0.
          5    1    5    5  501    0 -0.21087678033E+02 -0.54526352871E+02  0.36994375680E+02  0.69343256010E+02  0.47000000000E+01 0. -1.
        -13    1    6    6    0    0 -0.41611109799E+02  0.14438541343E+02 -0.86133443832E+01  0.44879233909E+02  0.00000000000E+00 0.  1.
         14    1    6    6    0    0 -0.10895126806E+02 -0.22093569095E+02 -0.86319835719E+02  0.89766049384E+02  0.00000000000E+00 0. -1.
         -5    1    3    3    0  503  0.76184981648E+02  0.71211514655E+02 -0.60910972313E+03  0.61799027182E+03  0.47000000000E+01 0.  1.
         11    1    4    4    0    0 -0.32279808385E+01  0.14698684650E+02 -0.17952319837E+03  0.18015285161E+03  0.00000000000E+00 0. -1.
        -12    1    4    4    0    0  0.63691382837E+00 -0.23728818683E+02 -0.11759918084E+02  0.26490718538E+02  0.00000000000E+00 0.  1.
</event>
<event>
12    1  0.8135779E-002  0.1922366E+03  0.7818608E-02  0.1156549E+00
         21   -1    0    0  503  502  0.00000000000E+00  0.00000000000E+00  0.66870708740E+02  0.66870708740E+02  0.00000000000E+00 0. -1.
         21   -1    0    0  501  503 -0.00000000000E+00 -0.00000000000E+00 -0.76850483060E+03  0.76850483060E+03  0.00000000000E+00 0. -1.
          6    2    1    2  501    0 -0.88998735562E+01 -0.83393376625E+02 -0.57252121844E+03  0.60380466374E+03  0.17252786259E+03 0.  0.
         24    2    3    3    0    0 -0.48423107520E+02 -0.80068460979E+01 -0.41051548129E+03  0.42073865412E+03  0.78032991512E+02 0.  0.
         -6    2    1    2    0  502  0.88998735562E+01  0.83393376625E+02 -0.12911290342E+03  0.23157087560E+03  0.17297764475E+03 0.  0.
        -24    2    5    5    0    0  0.65489208081E+02  0.85934894993E+02 -0.76154880556E+02  0.15388268935E+03  0.78782445355E+02 0.  0.
          5    1    3    3  501    0  0.39523233964E+02 -0.75386530527E+02 -0.16200573715E+03  0.18306600962E+03  0.47000000000E+01 0. -1.
        -13    1    4    4    0    0 -0.46594922399E+01  0.32211391898E+02 -0.13222711912E+03  0.13617377011E+03  0.00000000000E+00 0.  1.
         14    1    4    4    0    0 -0.43763615280E+02 -0.40218237996E+02 -0.27828836217E+03  0.28456488401E+03  0.00000000000E+00 0. -1.
         -5    1    5    5    0  502 -0.56589334525E+02 -0.25415183684E+01 -0.52958022859E+02  0.77688186250E+02  0.47000000000E+01 0.  1.
         13    1    6    6    0    0  0.27061497803E+01  0.65909125317E+02 -0.25330598053E+02  0.70660988136E+02  0.00000000000E+00 0. -1.
        -14    1    6    6    0    0  0.62783058301E+02  0.20025769677E+02 -0.50824282504E+02  0.83221701213E+02  0.00000000000E+00 0.  1.
</event>
<event>
12    1  0.8135779E-002  0.1780244E+03  0.7818608E-02  0.1169948E+00
         21   -1    0    0  501  502  0.00000000000E+00  0.00000000000E+00  0.15834119089E+03  0.15834119089E+03  0.00000000000E+00 0.  1.
         21   -1    0    0  502  503 -0.00000000000E+00 -0.00000000000E+00 -0.25970463506E+03  0.25970463506E+03  0.00000000000E+00 0.  1.
         -6    2    1    2    0  503 -0.48018077628E+02  0.58889162468E+01 -0.15151096619E+03  0.23309327615E+03  0.17040096066E+03 0.  0.
        -24    2    3    3    0    0 -0.41902651659E+02  0.62967846078E+02 -0.13503479097E+03  0.17318537170E+03  0.77704545181E+02 0.  0.
          6    2    1    2  501    0  0.48018077628E+02 -0.58889162468E+01  0.50147522023E+02  0.18495254981E+03  0.17132500285E+03 0.  0.
         24    2    5    5    0    0 -0.37266993211E+02  0.12005159724E+02  0.32134792198E+02  0.95844246610E+02  0.81366590783E+02 0.  0.
          5    1    5    5  501    0  0.85285070839E+02 -0.17894075971E+02  0.18012729824E+02  0.89108303197E+02  0.47000000000E+01 0. -1.
        -11    1    6    6    0    0 -0.23625114155E+02 -0.13679451079E+02  0.53293710892E+02  0.59878986475E+02  0.00000000000E+00 0.  1.
         12    1    6    6    0    0 -0.13641879057E+02  0.25684610803E+02 -0.21158918694E+02  0.35965260135E+02  0.00000000000E+00 0. -1.
         -5    1    3    3    0  503 -0.61154259687E+01 -0.57078929831E+02 -0.16476175216E+02  0.59907904447E+02  0.47000000000E+01 0.  1.
         13    1    4    4    0    0  0.14487007201E+02  0.42816181614E+02 -0.79835190570E+02  0.91742882225E+02  0.00000000000E+00 0. -1.
        -14    1    4    4    0    0 -0.56389658861E+02  0.20151664464E+02 -0.55199600402E+02  0.81442489474E+02  0.00000000000E+00 0.  1.
</event>
<event>
12    1  0.8135779E-002  0.2446702E+03  0.7818608E-02  0.1116889E+00
         21   -1    0    0  503  502  0.00000000000E+00  0.00000000000E+00  0.16093213337E+03  0.16093213337E+03  0.00000000000E+00 0.  1.
         21   -1    0    0  501  503 -0.00000000000E+00 -0.00000000000E+00 -0.38225962495E+03  0.38225962495E+03  0.00000000000E+00 0.  1.
          6    2    1    2  501    0 -0.13404573767E+03 -0.11138443828E+03 -0.63063536384E+02  0.25266685182E+03  0.17172296151E+03 0.  0.
         24    2    3    3    0    0 -0.76147216289E+02 -0.13388454319E+03 -0.72582628395E+02  0.18964942081E+03  0.83517635348E+02 0.  0.
         -6    2    1    2    0  502  0.13404573767E+03  0.11138443828E+03 -0.15826395520E+03  0.29052490650E+03  0.17024244154E+03 0.  0.
        -24    2    5    5    0    0  0.10769709365E+03  0.19005967990E+02 -0.46190718809E+02  0.14284101053E+03  0.79436018181E+02 0.  0.
          5    1    3    3  501    0 -0.57898521378E+02  0.22500104911E+02  0.95190920114E+01  0.63017431013E+02  0.47000000000E+01 0. -1.
        -13    1    4    4    0    0 -0.24335975173E+02 -0.40060487451E+02 -0.67720793429E+02  0.82360112950E+02  0.00000000000E+00 0.  1.
         14    1    4    4    0    0 -0.51811241116E+02 -0.93824055741E+02 -0.48618349660E+01  0.10728930786E+03  0.00000000000E+00 0. -1.
         -5    1    5    5    0  502  0.26348644020E+02  0.92378470291E+02 -0.11207323639E+03  0.14768389597E+03  0.47000000000E+01 0.  1.
         13    1    6    6    0    0 -0.82828803302E+01  0.16501311886E+02 -0.11525103229E+02  0.21765279805E+02  0.00000000000E+00 0. -1.
        -14    1    6    6    0    0  0.11597997398E+03  0.25046561040E+01 -0.34665615580E+02  0.12107573072E+03  0.00000000000E+00 0.  1.
</event>
<event>
12    1  0.8135779E-002  0.3125365E+03  0.7818608E-02  0.1080018E+00
         21   -1    0    0  503  502  0.00000000000E+00  0.00000000000E+00  0.48832723048E+03  0.48832723048E+03  0.00000000000E+00 0. -1.
         21   -1    0    0  501  503 -0.00000000000E+00 -0.00000000000E+00 -0.21624917004E+03  0.21624917004E+03  0.00000000000E+00 0.  1.
          6    2    1    2  501    0  0.25502946279E+03 -0.34278386555E+02  0.24699237430E+03  0.39835195548E+03  0.17738098205E+03 0.  0.
         24    2    3    3    0    0  0.25627427144E+03  0.80373419539E+01  0.19885947992E+03  0.33407881995E+03  0.79513924073E+02 0.  0.
         -6    2    1    2    0  502 -0.25502946279E+03  0.34278386555E+02  0.25085686139E+02  0.30622444505E+03  0.16410083615E+03 0.  0.
        -24    2    5    5    0    0 -0.17640180641E+03  0.48182661356E+02 -0.39766086161E+02  0.20325124672E+03  0.79313060232E+02 0.  0.
          5    1    3    3  501    0 -0.12448086544E+01 -0.42315728509E+02  0.48132894385E+02  0.64273135521E+02  0.47000000000E+01 0. -1.
        -13    1    4    4    0    0  0.92656507491E+02  0.39012025188E+02  0.91559883860E+02  0.13597933233E+03  0.00000000000E+00 0.  1.
         14    1    4    4    0    0  0.16361776395E+03 -0.30974683234E+02  0.10729959606E+03  0.19809948762E+03  0.00000000000E+00 0. -1.
         -5    1    5    5    0  502 -0.78627656373E+02 -0.13904274801E+02  0.64851772300E+02  0.10297319833E+03  0.47000000000E+01 0.  1.
         11    1    6    6    0    0 -0.62002853091E+02  0.50609245923E+02  0.54409023218E+01  0.80220028562E+02  0.00000000000E+00 0. -1.
        -12    1    6    6    0    0 -0.11439895332E+03 -0.24265845671E+01 -0.45206988483E+02  0.12303121816E+03  0.00000000000E+00 0.  1.
</event>
<event>
12    1  0.8135779E-002  0.2498269E+03  0.7818608E-02  0.1113812E+00
         21   -1    0    0  503  502  0.00000000000E+00  0.00000000000E+00  0.14410867514E+04  0.14410867514E+04  0.00000000000E+00 0. -1.
         21   -1    0    0  501  503 -0.00000000000E+00 -0.00000000000E+00 -0.31748799417E+03  0.31748799417E+03  0.00000000000E+00 0. -1.
          6    2    1    2  501    0 -0.12920805600E+03  0.12297042110E+03 -0.25557754209E+03  0.35739805043E+03  0.17492009670E+03 0.  0.
         24    2    3    3    0    0 -0.66111560270E+01  0.13011094830E+02 -0.10975385849E+03  0.13738057381E+03  0.81329678693E+02 0.  0.
         -6    2    1    2    0  502  0.12920805600E+03 -0.12297042110E+03  0.13791762993E+04  0.14011766951E+04  0.17132548033E+03 0.  0.
        -24    2    5    5    0    0  0.47299554772E+02 -0.38851779141E+02  0.97789973711E+03  0.98305001832E+03  0.79704040307E+02 0.  0.
          5    1    3    3  501    0 -0.12259689997E+03  0.10995932627E+03 -0.14582368360E+03  0.22001747662E+03  0.47000000000E+01 0. -1.
        -11    1    4    4    0    0  0.42453528911E+01  0.38579729886E+02 -0.20479168595E+02  0.43884107893E+02  0.00000000000E+00 0.  1.
         12    1    4    4    0    0 -0.10856508918E+02 -0.25568635056E+02 -0.89274689892E+02  0.93496465921E+02  0.00000000000E+00 0. -1.
         -5    1    5    5    0  502  0.81908501224E+02 -0.84118641963E+02  0.40127656218E+03  0.41812667681E+03  0.47000000000E+01 0.  1.
         11    1    6    6    0    0  0.67201924686E+02 -0.21962236235E+02  0.81627332007E+03  0.81932934255E+03  0.00000000000E+00 0. -1.
        -12    1    6    6    0    0 -0.19902369914E+02 -0.16889542906E+02  0.16162641705E+03  0.16372067577E+03  0.00000000000E+00 0.  1.
</event>
<event>
12    1  0.8135779E-002  0.2498631E+03  0.7818608E-02  0.1113936E+00
         21   -1    0    0  501  502  0.00000000000E+00  0.00000000000E+00  0.12016348376E+03  0.12016348376E+03  0.00000000000E+00 0.  1.
         21   -1    0    0  502  503 -0.00000000000E+00 -0.00000000000E+00 -0.20216133921E+04  0.20216133921E+04  0.00000000000E+00 0. -1.
         -6    2    1    2    0  503 -0.16880700456E+03  0.61953459940E+02 -0.18743120643E+04  0.18904443890E+04  0.16852369942E+03 0.  0.
        -24    2    3    3    0    0 -0.28611780594E+02 -0.63431208701E+01 -0.90998033590E+03  0.91357341681E+03  0.75454005881E+02 0.  0.
          6    2    1    2  501    0  0.16880700456E+03 -0.61953459940E+02 -0.27137844045E+02  0.25133248693E+03  0.17348636955E+03 0.  0.
         24    2    5    5    0    0  0.15136260106E+03 -0.76371980921E+02 -0.71119637800E+02  0.20164658206E+03  0.82825266109E+02 0.  0.
          5    1    5    5  501    0  0.17444403504E+02  0.14418520981E+02  0.43981793755E+02  0.49685904871E+02  0.47000000000E+01 0. -1.
        -13    1    6    6    0    0  0.48973220507E+02  0.98702985100E+01  0.21046420041E+00  0.49958416856E+02  0.00000000000E+00 0.  1.
         14    1    6    6    0    0  0.10238938055E+03 -0.86242279431E+02 -0.71330102001E+02  0.15168816520E+03  0.00000000000E+00 0. -1.
         -5    1    3    3    0  503 -0.14019522397E+03  0.68296580810E+02 -0.96433172844E+03  0.97687097216E+03  0.47000000000E+01 0.  1.
         11    1    4    4    0    0 -0.16071407946E+02 -0.36243290751E+02 -0.28400985284E+03  0.28676377524E+03  0.00000000000E+00 0. -1.
        -12    1    4    4    0    0 -0.12540372648E+02  0.29900169881E+02 -0.62597048306E+03  0.62680964158E+03  0.00000000000E+00 0.  1.
</event>
<event>
12    1  0.8135779E-002  0.2510308E+03  0.7818608E-02  0.1112763E+00
         21   -1    0    0  503  502  0.00000000000E+00  0.00000000000E+00  0.11263956757E+04  0.11263956757E+04  0.00000000000E+00 0. -1.
         21   -1    0    0  501  503 -0.00000000000E+00 -0.00000000000E+00 -0.77853092492E+02  0.77853092492E+02  0.00000000000E+00 0. -1.
          6    2    1    2  501    0 -0.17115126044E+03  0.54784691369E+02  0.20426258827E+03  0.32363508274E+03  0.17527790920E+03 0.  0.
         24    2    3    3    0    0 -0.14432291220E+03  0.88366326240E+01  0.66593863893E+02  0.17596737455E+03  0.74983899173E+02 0.  0.
         -6    2    1    2    0  502  0.17115126044E+03 -0.54784691369E+02  0.84427999499E+03  0.88061368550E+03  0.17429181504E+03 0.  0.
        -24    2    5    5    0    0  0.16779843548E+03 -0.20965796202E+00  0.73824301503E+03  0.76121683954E+03  0.79321930445E+02 0.  0.
          5    1    3    3  501    0 -0.26828348245E+02  0.45948058745E+02  0.13766872437E+03  0.14766770819E+03  0.47000000000E+01 0. -1.
        -13    1    4    4    0    0 -0.13905511172E+02  0.23276148408E+02 -0.32749166842E+01  0.27310573135E+02  0.00000000000E+00 0.  1.
         14    1    4    4    0    0 -0.13041740103E+03 -0.14439515784E+02  0.69868780577E+02  0.14865680141E+03  0.00000000000E+00 0. -1.
         -5    1    5    5    0  502  0.33528249642E+01 -0.54575033407E+02  0.10603697996E+03  0.11939684596E+03  0.47000000000E+01 0.  1.
         11    1    6    6    0    0  0.41862245381E+02 -0.28577990665E+02  0.30382733505E+03  0.30802629540E+03  0.00000000000E+00 0. -1.
        -12    1    6    6    0    0  0.12593619010E+03  0.28368332703E+02  0.43441567998E+03  0.45319054413E+03  0.00000000000E+00 0.  1.
</event>
<event>
12    1  0.8135779E-002  0.2252174E+03  0.7818608E-02  0.1130315E+00
         21   -1    0    0  503  502  0.00000000000E+00  0.00000000000E+00  0.96012052407E+02  0.96012052407E+02  0.00000000000E+00 0. -1.
         21   -1    0    0  501  503 -0.00000000000E+00 -0.00000000000E+00 -0.59953749693E+03  0.59953749693E+03  0.00000000000E+00 0.  1.
          6    2    1    2  501    0  0.13541391481E+03  0.53320154305E+02 -0.37518308783E+03  0.43759022689E+03  0.17188045294E+03 0.  0.
         24    2    3    3    0    0  0.76886767978E+02  0.96223321021E+02 -0.19994296737E+03  0.24786068663E+03  0.79292037293E+02 0.  0.
         -6    2    1    2    0  502 -0.13541391481E+03 -0.53320154305E+02 -0.12834235669E+03  0.25795932244E+03  0.16997436376E+03 0.  0.
        -24    2    5    5    0    0 -0.12919118190E+03 -0.87792378312E+02 -0.13613840683E+03  0.22176643597E+03  0.79049498041E+02 0.  0.
          5    1    3    3  501    0  0.58527146827E+02 -0.42903166716E+02 -0.17524012046E+03  0.18972954026E+03  0.47000000000E+01 0. -1.
        -11    1    4    4    0    0 -0.92554392397E+01  0.17019446584E+02 -0.42271968988E+01  0.19829117761E+02  0.00000000000E+00 0.  1.
         12    1    4    4    0    0  0.86142207218E+02  0.79203874437E+02 -0.19571577048E+03  0.22803156887E+03  0.00000000000E+00 0. -1.
         -5    1    5    5    0  502 -0.62227329065E+01  0.34472224007E+02  0.77960501410E+01  0.36192886464E+02  0.47000000000E+01 0.  1.
         13    1    6    6    0    0 -0.71262156539E+02 -0.25757036023E+01 -0.45960690845E+02  0.84836986666E+02  0.00000000000E+00 0. -1.
        -14    1    6    6    0    0 -0.57929025360E+02 -0.85216674710E+02 -0.90177715984E+02  0.13692944931E+03  0.00000000000E+00 0.  1.
</event>
<event>
12    1  0.8135779E-002  0.2021238E+03  0.7818608E-02  0.1148050E+00
         21   -1    0    0  503  502  0.00000000000E+00  0.00000000000E+00  0.55011536077E+02  0.55011536077E+02  0.00000000000E+00 0.  1.
         21   -1    0    0  501  503 -0.00000000000E+00 -0.00000000000E+00 -0.23600568837E+04  0.23600568837E+04  0.00000000000E+00 0.  1.
          6    2    1    2  501    0  0.10356766026E+03 -0.21763454215E+02 -0.21530519284E+04  0.21625185832E+04  0.17220368221E+03 0.  0.
         24    2    3    3    0    0  0.11598103210E+03 -0.85075960745E+01 -0.21184734218E+04  0.21231793827E+04  0.80231374372E+02 0.  0.
         -6    2    1    2    0  502 -0.10356766026E+03  0.21763454215E+02 -0.15199341922E+03  0.25254983656E+03  0.17169598793E+03 0.  0.
        -24    2    5    5    0    0 -0.91369136757E+02 -0.20675806712E+02 -0.33326633428E+02  0.12584628139E+03  0.77141518705E+02 0.  0.
          5    1    3    3  501    0 -0.12413371847E+02 -0.13255858140E+02 -0.34578506672E+02  0.39339200543E+02  0.47000000000E+01 0. -1.
        -11    1    4    4    0    0  0.51171008614E+02  0.15266425461E+02 -0.43113800309E+03  0.43443240392E+03  0.00000000000E+00 0.  1.
         12    1    4    4    0    0  0.64810023489E+02 -0.23774021535E+02 -0.16873354187E+04  0.16887469788E+04  0.00000000000E+00 0. -1.
         -5    1    5    5    0  502 -0.12198523499E+02  0.42439260927E+02 -0.11866678579E+03  0.12670355517E+03  0.47000000000E+01 0.  1.
         13    1    6    6    0    0 -0.43498001264E+02 -0.38376074763E+02  0.10042726836E+02  0.58869819012E+02  0.00000000000E+00 0. -1.
        -14    1    6    6    0    0 -0.47871135493E+02  0.17700268051E+02 -0.43369360264E+02  0.66976462374E+02  0.00000000000E+00 0.  1.
</event>
<event>
12    1  0.8135779E-002  0.2156634E+03  0.7818608E-02  0.1137165E+00
         21   -1    0    0  503  502  0.00000000000E+00  0.00000000000E+00  0.23417669186E+03  0.23417669186E+03  0.00000000000E+00 0. -1.
         21   -1    0    0  501  503 -0.00000000000E+00 -0.00000000000E+00 -0.35209427780E+03  0.35209427780E+03  0.00000000000E+00 0.  1.
          6    2    1    2  501    0  0.13044617423E+03 -0.12300373830E+02 -0.25251458370E+03  0.33205241183E+03  0.17125327926E+03 0.  0.
         24    2    3    3    0    0  0.15423746132E+03  0.11247201349E+02 -0.16606764180E+03  0.23923173848E+03  0.75747402804E+02 0.  0.
         -6    2    1    2    0  502 -0.13044617423E+03  0.12300373830E+02  0.13459699776E+03  0.25421855782E+03  0.17129862746E+03 0.  0.
        -24    2    5    5    0    0 -0.16191334886E+03  0.10608325159E+02  0.12667901281E+03  0.22138822743E+03  0.81465979754E+02 0.  0.
          5    1    3    3  501    0 -0.23791287088E+02 -0.23547575179E+02 -0.86446941892E+02  0.92820673347E+02  0.47000000000E+01 0. -1.
        -11    1    4    4    0    0  0.52171733083E+02 -0.27877686586E+02 -0.83097500076E+02  0.10200122382E+03  0.00000000000E+00 0.  1.
         12    1    4    4    0    0  0.10206572823E+03  0.39124887935E+02 -0.82970141727E+02  0.13723051466E+03  0.00000000000E+00 0. -1.
         -5    1    5    5    0  502  0.31467174633E+02  0.16920486709E+01  0.79179849494E+01  0.32830330394E+02  0.47000000000E+01 0.  1.
         11    1    6    6    0    0 -0.91351012328E+02 -0.31352976553E+02  0.48719688102E+02  0.10817404772E+03  0.00000000000E+00 0. -1.
        -12    1    6    6    0    0 -0.70562336533E+02  0.41961301713E+02  0.77959324705E+02  0.11321417971E+03  0.00000000000E+00 0.  1.
</event>
<event>
12    1  0.8135779E-002  0.3251757E+03  0.7818608E-02  0.1073405E+00
         21   -1    0    0  501  502  0.00000000000E+00  0.00000000000E+00  0.53819935526E+02  0.53819935526E+02  0.00000000000E+00 0. -1.
         21   -1    0    0  502  503 -0.00000000000E+00 -0.00000000000E+00 -0.20952697767E+04  0.20952697767E+04  0.00000000000E+00 0.  1.
         -6    2    1    2    0  503  0.21050908102E+03 -0.17777288984E+03 -0.12966341182E+04  0.13367869111E+04  0.17269028809E+03 0.  0.
        -24    2    3    3    0    0  0.45858302701E+02 -0.11047741249E+03 -0.67070976935E+03  0.68606274482E+03  0.80760463904E+02 0.  0.
          6    2    1    2  501    0 -0.21050908102E+03  0.17777288984E+03 -0.74481572302E+03  0.81230280119E+03  0.17078672668E+03 0.  0.
         24    2    5    5    0    0 -0.13471515580E+03  0.16514356460E+03 -0.65838855309E+03  0.69656186350E+03  0.79387484575E+02 0.  0.
          5    1    5    5  501    0 -0.75793925218E+02  0.12629325248E+02 -0.86427169927E+02  0.11574093769E+03  0.47000000000E+01 0. -1.
        -13    1    6    6    0    0 -0.12891750615E+03  0.10316780847E+03 -0.47066402710E+03  0.49878647385E+03  0.00000000000E+00 0.  1.
         14    1    6    6    0    0 -0.57976496509E+01  0.61975756122E+02 -0.18772452600E+03  0.19777538965E+03  0.00000000000E+00 0. -1.
         -5    1    3    3    0  503  0.16465077832E+03 -0.67295477352E+02 -0.62592434886E+03  0.65072416627E+03  0.47000000000E+01 0.  1.
         11    1    4    4    0    0  0.48688967085E+02 -0.11550784163E+03 -0.50751290619E+03  0.52276383476E+03  0.00000000000E+00 0. -1.
        -12    1    4    4    0    0 -0.28306643844E+01  0.50304291372E+01 -0.16319686316E+03  0.16329891005E+03  0.00000000000E+00 0.  1.
</event>
<event>
12    1  0.8135779E-002  0.2207103E+03  0.7818608E-02  0.1133374E+00
         21   -1    0    0  501  502  0.00000000000E+00  0.00000000000E+00  0.10762567529E+04  0.10762567529E+04  0.00000000000E+00 0.  1.
         21   -1    0    0  502  503 -0.00000000000E+00 -0.00000000000E+00 -0.91882883470E+02  0.91882883470E+02  0.00000000000E+00 0.  1.
         -6    2    1    2    0  503  0.13929840085E+03  0.42405643904E+01  0.75986714516E+02  0.23332401013E+03  0.17100902332E+03 0.  0.
        -24    2    3    3    0    0  0.99386410386E+02 -0.43044809097E+02  0.91608845566E+02  0.16933170976E+03  0.92469093132E+02 0.  0.
          6    2    1    2  501    0 -0.13929840085E+03 -0.42405643904E+01  0.90838715488E+03  0.93481562620E+03  0.17114615092E+03 0.  0.
         24    2    5    5    0    0 -0.22269724378E+02  0.45355484046E+02  0.36805011476E+03  0.37971051358E+03  0.78524687770E+02 0.  0.
          5    1    5    5  501    0 -0.11702867647E+03 -0.49596048437E+02  0.54033704012E+03  0.55510511262E+03  0.47000000000E+01 0. -1.
        -11    1    6    6    0    0 -0.56605270297E+01  0.37508637440E+01  0.28719134370E+03  0.28727161092E+03  0.00000000000E+00 0.  1.
         12    1    6    6    0    0 -0.16609197348E+02  0.41604620302E+02  0.80858771067E+02  0.92438902663E+02  0.00000000000E+00 0. -1.
         -5    1    3    3    0  503  0.39911990464E+02  0.47285373487E+02 -0.15622131049E+02  0.63992300374E+02  0.47000000000E+01 0.  1.
         11    1    4    4    0    0  0.11033990582E+03 -0.30043090766E+02  0.50817682042E+02  0.12513959776E+03  0.00000000000E+00 0. -1.
        -12    1    4    4    0    0 -0.10953495431E+02 -0.13001718331E+02  0.40791163524E+02  0.44192112003E+02  0.00000000000E+00 0.  1.
</event>
<event>
12    1  0.8135779E-002  0.2047143E+03  0.7818608E-02  0.1146374E+00
         21   -1    0    0  503  502  0.00000000000E+00  0.00000000000E+00  0.10173831943E+04  0.10173831943E+04  0.00000000000E+00 0.  1.
         21   -1    0    0  501  503 -0.00000000000E+00 -0.00000000000E+00 -0.45848149520E+02  0.45848149520E+02  0.00000000000E+00 0.  1.
          6    2    1    2  501    0 -0.12964178523E+02 -0.10671280834E+03  0.30399076192E+03  0.36500264515E+03  0.17105804350E+03 0.  0.
         24    2    3    3    0    0  0.10228390300E+02 -0.69646168929E+02  0.30309314754E+03  0.32101711665E+03  0.78938737536E+02 0.  0.
         -6    2    1    2    0  502  0.12964178523E+02  0.10671280834E+03  0.66754428287E+03  0.69822869868E+03  0.17421897910E+03 0.  0.
        -24    2    5    5    0    0 -0.58699671753E+02  0.44756923109E+02  0.31601117007E+03  0.33412451229E+03  0.79544305102E+02 0.  0.
          5    1    3    3  501    0 -0.23192568823E+02 -0.37066639412E+02  0.89761438315E+00  0.43985528501E+02  0.47000000000E+01 0. -1.
        -11    1    4    4    0    0  0.14096735076E+01  0.93284257540E+00 -0.47614128889E+01  0.50525664140E+01  0.00000000000E+00 0.  1.
         12    1    4    4    0    0  0.88187167921E+01 -0.70579011505E+02  0.30785456043E+03  0.31596455024E+03  0.00000000000E+00 0. -1.
         -5    1    5    5    0  502  0.71663850276E+02  0.61955885233E+02  0.35153311280E+03  0.36410418639E+03  0.47000000000E+01 0.  1.
         13    1    6    6    0    0  0.16780005500E+02  0.24266951321E+02  0.69481833204E+02  0.75486281247E+02  0.00000000000E+00 0. -1.
        -14    1    6    6    0    0 -0.75479677253E+02  0.20489971788E+02  0.24652933686E+03  0.25863823104E+03  0.00000000000E+00 0.  1.
</event>
<event>
12    1  0.8135779E-002  0.1873884E+03  0.7818608E-02  0.1161061E+00
         21   -1    0    0  501  502  0.00000000000E+00  0.00000000000E+00  0.32931850776E+03  0.32931850776E+03  0.00000000000E+00 0.  1.
         21   -1    0    0  502  503 -0.00000000000E+00 -0.00000000000E+00 -0.15113864529E+03  0.15113864529E+03  0.00000000000E+00 0. -1.
         -6    2    1    2    0  503  0.53420739344E+02 -0.39234798743E+02  0.22042288106E+03  0.28931069258E+03  0.17527488559E+03 0.  0.
        -24    2    3    3    0    0 -0.58419204594E+01 -0.70254739133E+02  0.18405386623E+03  0.21302770110E+03  0.80840085082E+02 0.  0.
          6    2    1    2  501    0 -0.53420739344E+02  0.39234798743E+02 -0.42243018597E+02  0.19114646047E+03  0.17423935235E+03 0.  0.
         24    2    5    5    0    0 -0.56746382741E+02 -0.37404807683E+02 -0.38453375776E+01  0.10523277655E+03  0.80248856989E+02 0.  0.
          5    1    5    5  501    0  0.33256433970E+01  0.76639606427E+02 -0.38397681019E+02  0.85913683921E+02  0.47000000000E+01 0. -1.
        -11    1    6    6    0    0  0.24163355601E+01  0.17645004519E+02  0.13782382208E+02  0.22519745143E+02  0.00000000000E+00 0.  1.
         12    1    6    6    0    0 -0.59162718301E+02 -0.55049812202E+02 -0.17627719786E+02  0.82713031410E+02  0.00000000000E+00 0. -1.
         -5    1    3    3    0  503  0.59262659803E+02  0.31019940389E+02  0.36369014832E+02  0.76282991476E+02  0.47000000000E+01 0.  1.
         11    1    4    4    0    0 -0.40000217688E+02 -0.36013565324E+02  0.64164651821E+02  0.83750205049E+02  0.00000000000E+00 0. -1.
        -12    1    4    4    0    0  0.34158297229E+02 -0.34241173808E+02  0.11988921441E+03  0.12927749605E+03  0.00000000000E+00 0.  1.
</event>
<event>
12    1  0.8135779E-002  0.1848554E+03  0.7818608E-02  0.1164974E+00
         21   -1    0    0  503  502  0.00000000000E+00  0.00000000000E+00  0.11067678644E+04  0.11067678644E+04  0.00000000000E+00 0.  1.
         21   -1    0    0  501  503 -0.00000000000E+00 -0.00000000000E+00 -0.49608583119E+02  0.49608583119E+02  0.00000000000E+00 0. -1.
          6    2    1    2  501    0 -0.15609576489E+02  0.59123164770E+02  0.16829893569E+03  0.24999209193E+03  0.17444857919E+03 0.  0.
         24    2    3    3    0    0 -0.13213139937E+02 -0.36045682965E+02  0.70859526098E+02  0.11368588873E+03  0.80184353405E+02 0.  0.
         -6    2    1    2    0  502  0.15609576489E+02 -0.59123164770E+02  0.88886034562E+03  0.90638435562E+03  0.16649528104E+03 0.  0.
        -24    2    5    5    0    0 -0.39762118127E+02 -0.67697580355E+02  0.71257628152E+03  0.72135001712E+03  0.80105566573E+02 0.  0.
          5    1    3    3  501    0 -0.23964365515E+01  0.95168847735E+02  0.97439409590E+02  0.13630620319E+03  0.47000000000E+01 0. -1.
        -11    1    4    4    0    0  0.21010148254E+02  0.15134733290E+02  0.12112693563E+02  0.28586777132E+02  0.00000000000E+00 0.  1.
         12    1    4    4    0    0 -0.34223288191E+02 -0.51180416255E+02  0.58746832534E+02  0.85099111602E+02  0.00000000000E+00 0. -1.
         -5    1    5    5    0  502  0.55371694615E+02  0.85744155850E+01  0.17628406410E+03  0.18503433850E+03  0.47000000000E+01 0.  1.
         11    1    6    6    0    0 -0.37353359700E+02 -0.17168548584E+01  0.13742188536E+03  0.14241838241E+03  0.00000000000E+00 0. -1.
        -12    1    6    6    0    0 -0.24087584271E+01 -0.65980725497E+02  0.57515439616E+03  0.57893163471E+03  0.00000000000E+00 0.  1.
</event>
<event>
12    1  0.8135779E-002  0.1938169E+03  0.7818608E-02  0.1155374E+00
         21   -1    0    0  501  502  0.00000000000E+00  0.00000000000E+00  0.23788116087E+03  0.23788116087E+03  0.00000000000E+00 0.  1.
         21   -1    0    0  502  503 -0.00000000000E+00 -0.00000000000E+00 -0.18854997414E+03  0.18854997414E+03  0.00000000000E+00 0. -1.
         -6    2    1    2    0  503 -0.86543107797E+02 -0.13158699363E+01  0.11227893449E+03  0.22399007619E+03  0.17341728310E+03 0.  0.
        -24    2    3    3    0    0 -0.63593828842E+02 -0.48387553241E+02  0.12606388065E+03  0.16963451056E+03  0.80611629388E+02 0.  0.
          6    2    1    2  501    0  0.86543107797E+02  0.13158699363E+01 -0.62947747764E+02  0.20244105883E+03  0.17183865202E+03 0.  0.
         24    2    5    5    0    0  0.24541857042E+01  0.10316928659E+02 -0.80158139498E+02  0.11601043080E+03  0.83190328060E+02 0.  0.
          5    1    5    5  501    0  0.84088922093E+02 -0.90010587228E+01  0.17210391734E+02  0.86430628023E+02  0.47000000000E+01 0. -1.
        -11    1    6    6    0    0  0.24290770585E+02 -0.22510614345E+02 -0.84507869285E+01  0.34178722819E+02  0.00000000000E+00 0.  1.
         12    1    6    6    0    0 -0.21836584881E+02  0.32827543004E+02 -0.71707352569E+02  0.81831707983E+02  0.00000000000E+00 0. -1.
         -5    1    3    3    0  503 -0.22949278955E+02  0.47071683304E+02 -0.13784946164E+02  0.54355565625E+02  0.47000000000E+01 0.  1.
         13    1    4    4    0    0  0.10683192710E+02 -0.36703430671E+02  0.39334219042E+02  0.54849368430E+02  0.00000000000E+00 0. -1.
        -14    1    4    4    0    0 -0.74277021552E+02 -0.11684122569E+02  0.86729661610E+02  0.11478514213E+03  0.00000000000E+00 0.  1.
</event>
<event>
12    1  0.8135779E-002  0.1884201E+03  0.7818608E-02  0.1160332E+00
         21   -1    0    0  503  502  0.00000000000E+00  0.00000000000E+00  0.10710167395E+04  0.10710167395E+04  0.00000000000E+00 0.  1.
         21   -1    0    0  501  503 -0.00000000000E+00 -0.00000000000E+00 -0.30046910678E+03  0.30046910678E+03  0.00000000000E+00 0.  1.
          6    2    1    2  501    0 -0.28316631390E+02  0.71360201548E+02 -0.26172816376E+03  0.32249612064E+03  0.17206977114E+03 0.  0.
         24    2    3    3    0    0  0.36908211742E+02  0.84696587847E+02 -0.17423255311E+03  0.21245198747E+03  0.79013519915E+02 0.  0.
         -6    2    1    2    0  502  0.28316631390E+02 -0.71360201548E+02  0.10322757964E+04  0.10489897256E+04  0.16997651165E+03 0.  0.
        -24    2    5    5    0    0 -0.25049584976E+02 -0.18376554746E+02  0.31643439688E+03  0.32919376895E+03  0.85279719257E+02 0.  0.
          5    1    3    3  501    0 -0.65224843132E+02 -0.13336386299E+02 -0.87495610654E+02  0.11004413317E+03  0.47000000000E+01 0. -1.
        -13    1    4    4    0    0 -0.26208536986E+01  0.78105312637E+02 -0.90150454762E+02  0.11930806021E+03  0.00000000000E+00 0.  1.
         14    1    4    4    0    0  0.39529065440E+02  0.65912752098E+01 -0.84082098346E+02  0.93143927262E+02  0.00000000000E+00 0. -1.
         -5    1    5    5    0  502  0.53366216366E+02 -0.52983646801E+02  0.71584139957E+03  0.71979595665E+03  0.47000000000E+01 0.  1.
         13    1    6    6    0    0 -0.13298054413E+02 -0.58294871370E+01  0.31074765663E+03  0.31108668772E+03  0.00000000000E+00 0. -1.
        -14    1    6    6    0    0 -0.11751530563E+02 -0.12547067609E+02  0.56867402434E+01  0.18107081233E+02  0.00000000000E+00 0.  1.
</event>
<event>
12    1  0.8135779E-002  0.2481731E+03  0.7818608E-02  0.1114561E+00
         21   -1    0    0  503  502  0.00000000000E+00  0.00000000000E+00  0.38234932070E+03  0.38234932070E+03  0.00000000000E+00 0.  1.
         21   -1    0    0  501  503 -0.00000000000E+00 -0.00000000000E+00 -0.17917968820E+03  0.17917968820E+03  0.00000000000E+00 0.  1.
          6    2    1    2  501    0  0.13503951156E+03  0.11893853577E+03  0.11289497362E+02  0.24782871347E+03  0.17002815502E+03 0.  0.
         24    2    3    3    0    0  0.14495415370E+03  0.59733512061E+02  0.42857971420E+02  0.17984199775E+03  0.76984019773E+02 0.  0.
         -6    2    1    2    0  502 -0.13503951156E+03 -0.11893853577E+03  0.19188013514E+03  0.31370029542E+03  0.17090302546E+03 0.  0.
        -24    2    5    5    0    0 -0.23575112865E+02 -0.22574690835E+02  0.12166191835E+03  0.15041223475E+03  0.82199850211E+02 0.  0.
          5    1    3    3  501    0 -0.99146421419E+01  0.59205023710E+02 -0.31568474058E+02  0.67986715729E+02  0.47000000000E+01 0. -1.
        -11    1    4    4    0    0  0.17005294382E+02  0.28954436214E+02 -0.14134029952E+02  0.36432268886E+02  0.00000000000E+00 0.  1.
         12    1    4    4    0    0  0.12794885932E+03  0.30779075846E+02  0.56992001371E+02  0.14340972886E+03  0.00000000000E+00 0. -1.
         -5    1    5    5    0  502 -0.11146439869E+03 -0.96363844935E+02  0.70218216796E+02  0.16328806067E+03  0.47000000000E+01 0.  1.
         11    1    6    6    0    0 -0.24732235653E+02 -0.52541745753E+02  0.86685499000E+02  0.10433932271E+03  0.00000000000E+00 0. -1.
        -12    1    6    6    0    0  0.11571227878E+01  0.29967054918E+02  0.34976419348E+02  0.46072912042E+02  0.00000000000E+00 0.  1.
</event>
<event>
12    1  0.8135779E-002  0.1903864E+03  0.7818608E-02  0.1158395E+00
         21   -1    0    0  501  502  0.00000000000E+00  0.00000000000E+00  0.26963598505E+03  0.26963598505E+03  0.00000000000E+00 0. -1.
         21   -1    0    0  502  503 -0.00000000000E+00 -0.00000000000E+00 -0.14308425611E+03  0.14308425611E+03  0.00000000000E+00 0. -1.
         -6    2    1    2    0  503  0.78902834921E+02 -0.29534310834E+01  0.10201482981E+02  0.19065954157E+03  0.17324148009E+03 0.  0.
        -24    2    3    3    0    0  0.64210347469E+02 -0.57156448471E+02 -0.30082121534E+02  0.12138692740E+03  0.80249758777E+02 0.  0.
          6    2    1    2  501    0 -0.78902834921E+02  0.29534310834E+01  0.11635024596E+03  0.22206069958E+03  0.17186970196E+03 0.  0.
         24    2    5    5    0    0 -0.10238309613E+03  0.45300574617E+01  0.13818443669E+03  0.18961643504E+03  0.79728502419E+02 0.  0.
          5    1    5    5  501    0  0.23480261210E+02 -0.15766263784E+01 -0.21834190732E+02  0.32444264549E+02  0.47000000000E+01 0. -1.
        -13    1    6    6    0    0 -0.94246438533E+01 -0.18688977735E+02  0.67166483771E+02  0.70352244759E+02  0.00000000000E+00 0.  1.
         14    1    6    6    0    0 -0.92958452277E+02  0.23219035197E+02  0.71017952920E+02  0.11926419028E+03  0.00000000000E+00 0. -1.
         -5    1    3    3    0  503  0.14692487452E+02  0.54203017387E+02  0.40283604515E+02  0.69272614171E+02  0.47000000000E+01 0.  1.
         13    1    4    4    0    0  0.27402761199E+02 -0.23496212529E+02  0.27373128755E+02  0.45302003293E+02  0.00000000000E+00 0. -1.
        -14    1    4    4    0    0  0.36807586270E+02 -0.33660235942E+02 -0.57455250288E+02  0.76084924107E+02  0.00000000000E+00 0.  1.
</event>
<event>
12    1  0.8135779E-002  0.2063375E+03  0.7818608E-02  0.1144671E+00
         21   -1    0    0  503  502  0.00000000000E+00  0.00000000000E+00  0.14805666114E+03  0.14805666114E+03  0.00000000000E+00 0.  1.
         21   -1    0    0  501  503 -0.00000000000E+00 -0.00000000000E+00 -0.30826987808E+03  0.30826987808E+03  0.00000000000E+00 0.  1.
          6    2    1    2  501    0 -0.48861818975E+02 -0.10085205736E+03 -0.19463573863E+02  0.20725343924E+03  0.17325282838E+03 0.  0.
         24    2    3    3    0    0 -0.48098008480E+02  0.11881179460E+02 -0.23523570772E+02  0.94346665018E+02  0.76768183338E+02 0.  0.
         -6    2    1    2    0  502  0.48861818975E+02  0.10085205736E+03 -0.14074964308E+03  0.24907309998E+03  0.17224497751E+03 0.  0.
        -24    2    5    5    0    0 -0.14782644393E+02  0.11464935916E+03 -0.98596415950E+02  0.17135587015E+03  0.79237483973E+02 0.  0.
          5    1    3    3  501    0 -0.76381049510E+00 -0.11273323682E+03  0.40599969096E+01  0.11290677423E+03  0.47000000000E+01 0. -1.
        -13    1    4    4    0    0  0.18373060957E+02 -0.10019009605E+02 -0.94397571333E+01  0.22957764201E+02  0.00000000000E+00 0.  1.
         14    1    4    4    0    0 -0.66471069437E+02  0.21900189065E+02 -0.14083813639E+02  0.71388900817E+02  0.00000000000E+00 0. -1.
         -5    1    5    5    0  502  0.63644463368E+02 -0.13797301796E+02 -0.42153227131E+02  0.77717229826E+02  0.47000000000E+01 0.  1.
         13    1    6    6    0    0 -0.16486931217E+02 -0.30287557653E+01  0.15349408162E+01  0.16832952972E+02  0.00000000000E+00 0. -1.
        -14    1    6    6    0    0  0.17042868249E+01  0.11767811493E+03 -0.10013135677E+03  0.15452291718E+03  0.00000000000E+00 0.  1.
</event>
<event>
12    1  0.8135779E-002  0.1778263E+03  0.7818608E-02  0.1170229E+00
         21   -1    0    0  503  502  0.00000000000E+00  0.00000000000E+00  0.25140053536E+03  0.25140053536E+03  0.00000000000E+00 0. -1.
         21   -1    0    0  501  503 -0.00000000000E+00 -0.00000000000E+00 -0.16901172228E+03  0.16901172228E+03  0.00000000000E+00 0. -1.
          6    2    1    2  501    0  0.41889926691E+02  0.10243493399E+02 -0.66289393824E+02  0.18862056276E+03  0.17124175264E+03 0.  0.
         24    2    3    3    0    0  0.91748113874E+02  0.35948200934E+01 -0.56411809803E+02  0.13714532257E+03  0.84828698491E+02 0.  0.
         -6    2    1    2    0  502 -0.41889926691E+02 -0.10243493399E+02  0.14867820690E+03  0.23179169488E+03  0.17251807295E+03 0.  0.
        -24    2    5    5    0    0 -0.32236354296E+02 -0.72519653926E+02  0.70377512644E+02  0.13117062179E+03  0.77165115112E+02 0.  0.
          5    1    3    3  501    0 -0.49858187183E+02  0.66486733056E+01 -0.98775840209E+01  0.51475240184E+02  0.47000000000E+01 0. -1.
        -13    1    4    4    0    0  0.53811923878E+02 -0.51613203309E+01  0.14744873105E+02  0.56033683280E+02  0.00000000000E+00 0.  1.
         14    1    4    4    0    0  0.37936189995E+02  0.87561404243E+01 -0.71156682908E+02  0.81111639294E+02  0.00000000000E+00 0. -1.
         -5    1    5    5    0  502 -0.96535723946E+01  0.62276160527E+02  0.78300694256E+02  0.10062107310E+03  0.47000000000E+01 0.  1.
         11    1    6    6    0    0  0.17128256523E+02 -0.24821680021E+02  0.51995189770E+02  0.60108175233E+02  0.00000000000E+00 0. -1.
        -12    1    6    6    0    0 -0.49364610820E+02 -0.47697973905E+02  0.18382322874E+02  0.71062446554E+02  0.00000000000E+00 0.  1.
</event>
<event>
12    1  0.8135779E-002  0.1737132E+03  0.7818608E-02  0.1174526E+00
         21   -1    0    0  503  502  0.00000000000E+00  0.00000000000E+00  0.87149820471E+02  0.87149820471E+02  0.00000000000E+00 0. -1.
         21   -1    0    0  501  503 -0.00000000000E+00 -0.00000000000E+00 -0.39330240136E+03  0.39330240136E+03  0.00000000000E+00 0. -1.
          6    2    1    2  501    0  0.12085056269E+01 -0.24724661369E+02 -0.24025686191E+03  0.29647871954E+03  0.17194040270E+03 0.  0.
         24    2    3    3    0    0 -0.62756005810E+02 -0.48571461469E+01 -0.17714683052E+03  0.20433132161E+03  0.80052365942E+02 0.  0.
         -6    2    1    2    0  502 -0.12085056269E+01  0.24724661369E+02 -0.65895718980E+02  0.18397350229E+03  0.16997421686E+03 0.  0.
        -24    2    5    5    0    0 -0.21441184752E+02  0.18116555056E+02  0.26016111156E+02  0.89512383870E+02  0.80917827799E+02 0.  0.
          5    1    3    3  501    0  0.63964511436E+02 -0.19867515222E+02 -0.63110031388E+02  0.92147397935E+02  0.47000000000E+01 0. -1.
        -13    1    4    4    0    0 -0.23565254365E+02 -0.35898982140E+02 -0.41312088099E+02  0.59588142739E+02  0.00000000000E+00 0.  1.
         14    1    4    4    0    0 -0.39190751444E+02  0.31041835993E+02 -0.13583474242E+03  0.14474317887E+03  0.00000000000E+00 0. -1.
         -5    1    5    5    0  502  0.20232679125E+02  0.66081063132E+01 -0.91911830137E+02  0.94461118418E+02  0.47000000000E+01 0.  1.
         13    1    6    6    0    0 -0.71021156112E+01 -0.77147647579E+01 -0.26919773893E+02  0.28889995983E+02  0.00000000000E+00 0. -1.
        -14    1    6    6    0    0 -0.14339069141E+02  0.25831319813E+02  0.52935885050E+02  0.60622387887E+02  0.00000000000E+00 0.  1.
</event>
<event>
12    1  0.8135779E-002  0.1951609E+03  0.7818608E-02  0.1155045E+00
         21   -1    0    0  501  502  0.00000000000E+00  0.00000000000E+00  0.56256026498E+03  0.56256026498E+03  0.00000000000E+00 0.  1.
         21   -1    0    0  502  503 -0.00000000000E+00 -0.00000000000E+00 -0.66513718134E+02  0.66513718134E+02  0.00000000000E+00 0.  1.
         -6    2    1    2    0  503  0.36651206069E+02  0.83507188587E+02  0.22112546424E+03  0.29493089856E+03  0.17254275567E+03 0.  0.
        -24    2    3    3    0    0  0.44460052937E+02 -0.28088311231E+02  0.10581279835E+03  0.13420244873E+03  0.63626247845E+02 0.  0.
          6    2    1    2  501    0 -0.36651206069E+02 -0.83507188587E+02  0.27492108261E+03  0.33414308456E+03  0.16659303060E+03 0.  0.
         24    2    5    5    0    0 -0.50273903332E+02 -0.79542358539E+02  0.28843874167E+03  0.31399079277E+03  0.80863206001E+02 0.  0.
          5    1    5    5  501    0  0.13622697264E+02 -0.39648300476E+01 -0.13517659065E+02  0.20152291797E+02  0.47000000000E+01 0. -1.
        -11    1    6    6    0    0  0.15656492789E+02  0.31797882419E+00  0.15360487199E+02  0.21935620437E+02  0.00000000000E+00 0.  1.
         12    1    6    6    0    0 -0.65930396121E+02 -0.79860337364E+02  0.27307825448E+03  0.29205517233E+03  0.00000000000E+00 0. -1.
         -5    1    3    3    0  503 -0.78088468686E+01  0.11159549982E+03  0.11531266589E+03  0.16072844983E+03  0.47000000000E+01 0.  1.
         13    1    4    4    0    0  0.20482993434E+02 -0.13569404564E+01 -0.19441682155E+01  0.20619750180E+02  0.00000000000E+00 0. -1.
        -14    1    4    4    0    0  0.23977059503E+02 -0.26731370774E+02  0.10775696657E+03  0.11358269855E+03  0.00000000000E+00 0.  1.
</event>
<event>
12    1  0.8135779E-002  0.2172636E+03  0.7818608E-02  0.1136238E+00
         21   -1    0    0  501  502  0.00000000000E+00  0.00000000000E+00  0.68767404894E+02  0.68767404894E+02  0.00000000000E+00 0.  1.
         21   -1    0    0  502  503 -0.00000000000E+00 -0.00000000000E+00 -0.76743366840E+03  0.76743366840E+03  0.00000000000E+00 0.  1.
         -6    2    1    2    0  503  0.38277919716E+02  0.12353318674E+03 -0.20828338923E+03  0.29984408573E+03  0.17262345771E+03 0.  0.
        -24    2    3    3    0    0  0.58534274658E+01  0.35308727838E+02 -0.18200808782E+03  0.20213336824E+03  0.80311802688E+02 0.  0.
          6    2    1    2  501    0 -0.38277919716E+02 -0.12353318674E+03 -0.49038287427E+03  0.53635698756E+03  0.17457894308E+03 0.  0.
         24    2    5    5    0    0 -0.35190999909E+01 -0.15203700896E+03 -0.38226191038E+03  0.41916963218E+03  0.80320459760E+02 0.  0.
          5    1    5    5  501    0 -0.34758819725E+02  0.28503822214E+02 -0.10812096389E+03  0.11718735538E+03  0.47000000000E+01 0. -1.
        -11    1    6    6    0    0 -0.25222845933E+02 -0.10566775887E+03 -0.32339279348E+03  0.34115211577E+03  0.00000000000E+00 0.  1.
         12    1    6    6    0    0  0.21703745942E+02 -0.46369250087E+02 -0.58869116901E+02  0.78017516406E+02  0.00000000000E+00 0. -1.
         -5    1    3    3    0  503  0.32424492250E+02  0.88224458905E+02 -0.26275301413E+02  0.97710717483E+02  0.47000000000E+01 0.  1.
         11    1    4    4    0    0  0.19010471519E+01 -0.99809284333E+01  0.37975899676E+01  0.10846870619E+02  0.00000000000E+00 0. -1.
        -12    1    4    4    0    0  0.39523803139E+01  0.45289656271E+02 -0.18580567779E+03  0.19128649763E+03  0.00000000000E+00 0.  1.
</event>
<event>
12    1  0.8135779E-002  0.1790227E+03  0.7818608E-02  0.1169589E+00
         21   -1    0    0  503  502  0.00000000000E+00  0.00000000000E+00  0.17102536267E+03  0.17102536267E+03  0.00000000000E+00 0.  1.
         21   -1    0    0  501  503 -0.00000000000E+00 -0.00000000000E+00 -0.86785036663E+03  0.86785036663E+03  0.00000000000E+00 0.  1.
          6    2    1    2  501    0 -0.81580738752E+01 -0.45478565946E+02 -0.81026195494E+03  0.82980332597E+03  0.17295742260E+03 0.  0.
         24    2    3    3    0    0  0.57635169225E+02 -0.50889682872E+01 -0.31671055586E+03  0.33022836265E+03  0.73467577729E+02 0.  0.
         -6    2    1    2    0  502  0.81580738752E+01  0.45478565946E+02  0.11343695098E+03  0.20907240333E+03  0.16943575141E+03 0.  0.
        -24    2    5    5    0    0  0.10920119383E+02  0.80343013097E+02  0.25453958452E+02  0.11427654084E+03  0.76400098333E+02 0.  0.
          5    1    3    3  501    0 -0.65793243100E+02 -0.40389597659E+02 -0.49355139909E+03  0.49957496332E+03  0.47000000000E+01 0. -1.
        -13    1    4    4    0    0 -0.15835840063E+01  0.23094737412E+02 -0.13662953544E+03  0.13857671013E+03  0.00000000000E+00 0.  1.
         14    1    4    4    0    0  0.59218753231E+02 -0.28183705699E+02 -0.18008102042E+03  0.19165165252E+03  0.00000000000E+00 0. -1.
         -5    1    5    5    0  502 -0.27620455078E+01 -0.34864447151E+02  0.87982992525E+02  0.94795862484E+02  0.47000000000E+01 0.  1.
         11    1    6    6    0    0  0.19258845265E+02 -0.15195052556E+01 -0.13165673093E+02  0.23378343935E+02  0.00000000000E+00 0. -1.
        -12    1    6    6    0    0 -0.83387258822E+01  0.81862518353E+02  0.38619631545E+02  0.90898196908E+02  0.00000000000E+00 0.  1.
</event>
<event>
12    1  0.8135779E-002  0.2836451E+03  0.7818608E-02  0.1094296E+00
         21   -1    0    0  503  502  0.00000000000E+00  0.00000000000E+00  0.58819521158E+03  0.58819521158E+03  0.00000000000E+00 0. -1.
         21   -1    0    0  501  503 -0.00000000000E+00 -0.00000000000E+00 -0.14255811693E+03  0.14255811693E+03  0.00000000000E+00 0.  1.
          6    2    1    2  501    0 -0.11138592342E+03 -0.19028766770E+03  0.13875160459E+03  0.31576340792E+03  0.17843290502E+03 0.  0.
         24    2    3    3    0    0 -0.98037911624E+02 -0.21819668681E+03  0.12511970558E+03  0.28163129054E+03  0.80249715473E+02 0.  0.
         -6    2    1    2    0  502  0.11138592342E+03  0.19028766770E+03  0.30688549006E+03  0.41498992058E+03  0.17152757724E+03 0.  0.
        -24    2    5    5    0    0  0.39038841542E+02  0.14679179878E+03  0.27573546225E+03  0.32488772803E+03  0.80312684833E+02 0.  0.
          5    1    3    3  501    0 -0.13348011796E+02  0.27909019114E+02  0.13631899005E+02  0.34132117387E+02  0.47000000000E+01 0. -1.
        -11    1    4    4    0    0 -0.37921387030E+02 -0.61958374106E+02  0.11420234805E-01  0.72642080411E+02  0.00000000000E+00 0.  1.
         12    1    4    4    0    0 -0.60116524594E+02 -0.15623831271E+03  0.12510828535E+03  0.20898921013E+03  0.00000000000E+00 0. -1.
         -5    1    5    5    0  502  0.72347081878E+02  0.43495868914E+02  0.31150027817E+02  0.90102192548E+02  0.47000000000E+01 0.  1.
         11    1    6    6    0    0 -0.66205758777E+01  0.46869184213E+02  0.15305254053E+03  0.16020497064E+03  0.00000000000E+00 0. -1.
        -12    1    6    6    0    0  0.45659417420E+02  0.99922614572E+02  0.12268292171E+03  0.16468275739E+03  0.00000000000E+00 0.  1.
</event>
<event>
12    1  0.8135779E-002  0.2267013E+03  0.7818608E-02  0.1131149E+00
         21   -1    0    0  501  502  0.00000000000E+00  0.00000000000E+00  0.21189087772E+04  0.21189087772E+04  0.00000000000E+00 0.  1.
         21   -1    0    0  502  503 -0.00000000000E+00 -0.00000000000E+00 -0.42702707096E+02  0.42702707096E+02  0.00000000000E+00 0.  1.
         -6    2    1    2    0  503  0.11984581078E+03  0.40087084057E+02  0.31924301187E+03  0.39154765235E+03  0.18821123975E+03 0.  0.
        -24    2    3    3    0    0  0.71196726391E+02  0.55706846725E+02  0.31860971261E+03  0.34023292283E+03  0.77936295699E+02 0.  0.
          6    2    1    2  501    0 -0.11984581078E+03 -0.40087084057E+02  0.17569630582E+04  0.17700638319E+04  0.17388728668E+03 0.  0.
         24    2    5    5    0    0 -0.78089088697E+02 -0.85604626815E+02  0.90076310899E+03  0.91162576567E+03  0.79128378009E+02 0.  0.
          5    1    5    5  501    0 -0.41756722087E+02  0.45517542758E+02  0.85619994920E+03  0.85843806623E+03  0.47000000000E+01 0. -1.
        -13    1    6    6    0    0 -0.26666892082E+02 -0.27616357180E+02  0.99920500622E+02  0.10704154689E+03  0.00000000000E+00 0.  1.
         14    1    6    6    0    0 -0.51422196615E+02 -0.57988269635E+02  0.80084260837E+03  0.80458421878E+03  0.00000000000E+00 0. -1.
         -5    1    3    3    0  503  0.48649084393E+02 -0.15619762668E+02  0.63329925667E+00  0.51314729523E+02  0.47000000000E+01 0.  1.
         13    1    4    4    0    0 -0.21164033545E+01  0.27313192873E+02  0.16917469134E+03  0.17137842880E+03  0.00000000000E+00 0. -1.
        -14    1    4    4    0    0  0.73313129745E+02  0.28393653852E+02  0.14943502127E+03  0.16885449403E+03  0.00000000000E+00 0.  1.
</event>
<event>
12    1  0.8135779E-002  0.1920754E+03  0.7818608E-02  0.1156613E+00
         21   -1    0    0  503  502  0.00000000000E+00  0.00000000000E+00  0.51739004898E+03  0.51739004898E+03  0.00000000000E+00 0. -1.
         21   -1    0    0  501  503 -0.00000000000E+00 -0.00000000000E+00 -0.95693064439E+02  0.95693064439E+02  0.00000000000E+00 0. -1.
          6    2    1    2  501    0  0.82408662096E+02 -0.98220735602E+01  0.56063599493E+02  0.20009021685E+03  0.17322039999E+03 0.  0.
         24    2    3    3    0    0  0.32830114975E+02  0.53640610715E+02  0.62928619587E+02  0.11912872519E+03  0.79224430799E+02 0.  0.
         -6    2    1    2    0  502 -0.82408662096E+02  0.98220735602E+01  0.36563338505E+03  0.41299289657E+03  0.17316956904E+03 0.  0.
        -24    2    5    5    0    0 -0.10414201865E+03  0.19243129662E+02  0.19120089437E+03  0.23689667603E+03  0.91358606702E+02 0.  0.
          5    1    3    3  501    0  0.49578547121E+02 -0.63462684275E+02 -0.68650200939E+01  0.80961491654E+02  0.47000000000E+01 0. -1.
        -11    1    4    4    0    0 -0.23454176093E+00  0.23631492562E+02  0.70034759855E+02  0.73914613159E+02  0.00000000000E+00 0.  1.
         12    1    4    4    0    0  0.33064656736E+02  0.30009118153E+02 -0.71061402677E+01  0.45214112032E+02  0.00000000000E+00 0. -1.
         -5    1    5    5    0  502  0.21733356556E+02 -0.94210561014E+01  0.17443249068E+03  0.17609622055E+03  0.47000000000E+01 0.  1.
         13    1    6    6    0    0  0.36125537890E+01 -0.90184458149E+01  0.76092580467E+02  0.76710258192E+02  0.00000000000E+00 0. -1.
        -14    1    6    6    0    0 -0.10775457244E+03  0.28261575477E+02  0.11510831390E+03  0.16018641784E+03  0.00000000000E+00 0.  1.
</event>
<event>
12    1  0.8135779E-002  0.1922417E+03  0.7818608E-02  0.1156719E+00
         21   -1    0    0  501  502  0.00000000000E+00  0.00000000000E+00  0.15581457699E+04  0.15581457699E+04  0.00000000000E+00 0.  1.
         21   -1    0    0  502  503 -0.00000000000E+00 -0.00000000000E+00 -0.26355619639E+02  0.26355619639E+02  0.00000000000E+00 0. -1.
         -6    2    1    2    0  503 -0.31758647955E+02  0.78193393845E+02  0.51055830757E+03  0.54555169588E+03  0.17272535684E+03 0.  0.
        -24    2    3    3    0    0  0.31263193306E+02  0.81516881570E+02  0.22974020524E+03  0.25769114868E+03  0.77471136326E+02 0.  0.
          6    2    1    2  501    0  0.31758647955E+02 -0.78193393845E+02  0.10212318427E+04  0.10389496937E+04  0.17140353221E+03 0.  0.
         24    2    5    5    0    0 -0.50750257534E+01 -0.34199252092E+02  0.90444801436E+03  0.90874694181E+03  0.81236991821E+02 0.  0.
          5    1    5    5  501    0  0.36833673709E+02 -0.43994141753E+02  0.11678382833E+03  0.13020275184E+03  0.47000000000E+01 0. -1.
        -13    1    6    6    0    0  0.54629314995E+01  0.15181577305E+02  0.44791706781E+02  0.47609042275E+02  0.00000000000E+00 0.  1.
         14    1    6    6    0    0 -0.10537957253E+02 -0.49380829397E+02  0.85965630758E+03  0.86113789954E+03  0.00000000000E+00 0. -1.
         -5    1    3    3    0  503 -0.63021841261E+02 -0.33234877246E+01  0.28081810232E+03  0.28786054721E+03  0.47000000000E+01 0.  1.
         11    1    4    4    0    0 -0.11993471175E+02  0.18709915961E+02  0.87018702554E+01  0.23866856769E+02  0.00000000000E+00 0. -1.
        -12    1    4    4    0    0  0.43256664481E+02  0.62806965609E+02  0.22103833499E+03  0.23382429191E+03  0.00000000000E+00 0.  1.
</event>
<event>
12    1  0.8135779E-002  0.3098123E+03  0.7818608E-02  0.1080564E+00
         21   -1    0    0  501  502  0.00000000000E+00  0.00000000000E+00  0.16419018816E+03  0.16419018816E+03  0.00000000000E+00 0.  1.
         21   -1    0    0  502  503 -0.00000000000E+00 -0.00000000000E+00 -0.64325038679E+03  0.64325038679E+03  0.00000000000E+00 0.  1.
         -6    2    1    2    0  503  0.25075998728E+03 -0.53250533905E+02 -0.11516384343E+03  0.32952401040E+03  0.17206734732E+03 0.  0.
        -24    2    3    3    0    0  0.16645337963E+03 -0.94381824897E+02 -0.45235039393E+02  0.21242783272E+03  0.80403475450E+02 0.  0.
          6    2    1    2  501    0 -0.25075998728E+03  0.53250533905E+02 -0.36389635520E+03  0.47791656455E+03  0.17397555795E+03 0.  0.
         24    2    5    5    0    0 -0.88454890198E+02  0.76072695036E+02 -0.12619927078E+03  0.18915058747E+03  0.78995988925E+02 0.  0.
          5    1    5    5  501    0 -0.16230509708E+03 -0.22822161131E+02 -0.23769708442E+03  0.28876597708E+03  0.47000000000E+01 0. -1.
        -13    1    6    6    0    0 -0.18485898228E+02  0.47729122420E+02 -0.94096279485E+02  0.10711632636E+03  0.00000000000E+00 0.  1.
         14    1    6    6    0    0 -0.69968991970E+02  0.28343572616E+02 -0.32102991292E+02  0.82034261110E+02  0.00000000000E+00 0. -1.
         -5    1    3    3    0  503  0.84306607650E+02  0.41131290993E+02 -0.69928804041E+02  0.11709617768E+03  0.47000000000E+01 0.  1.
         11    1    4    4    0    0  0.13496175758E+03 -0.10542287235E+03 -0.50720045514E+02  0.17860901725E+03  0.00000000000E+00 0. -1.
        -12    1    4    4    0    0  0.31491622041E+02  0.11041047454E+02  0.54850061211E+01  0.33818815470E+02  0.00000000000E+00 0.  1.
</event>
<event>
12    1  0.8135779E-002  0.2448613E+03  0.7818608E-02  0.1116806E+00
         21   -1    0    0  503  502  0.00000000000E+00  0.00000000000E+00  0.65797726697E+02  0.65797726697E+02  0.00000000000E+00 0. -1.
         21   -1    0    0  501  503 -0.00000000000E+00 -0.00000000000E+00 -0.95090810318E+03  0.95090810318E+03  0.00000000000E+00 0. -1.
          6    2    1    2  501    0  0.15424916537E+03 -0.78623517218E+02 -0.55136788718E+03  0.60277213970E+03  0.17132788129E+03 0.  0.
         24    2    3    3    0    0  0.13117973598E+03 -0.11674612099E+03 -0.38722383678E+03  0.43262252680E+03  0.79888491164E+02 0.  0.
         -6    2    1    2    0  502 -0.15424916537E+03  0.78623517218E+02 -0.33374248930E+03  0.41393369017E+03  0.17315480998E+03 0.  0.
        -24    2    5    5    0    0 -0.12518123910E+03  0.20790607134E+00 -0.26834914630E+03  0.30766830674E+03  0.83535242854E+02 0.  0.
          5    1    3    3  501    0  0.23069429393E+02  0.38122603770E+02 -0.16414405040E+03  0.17014961291E+03  0.47000000000E+01 0. -1.
        -13    1    4    4    0    0  0.36655197887E+02  0.64359380800E+01 -0.63871897699E+02  0.73923231441E+02  0.00000000000E+00 0.  1.
         14    1    4    4    0    0  0.94524538093E+02 -0.12318205907E+03 -0.32335193908E+03  0.35869929535E+03  0.00000000000E+00 0. -1.
         -5    1    5    5    0  502 -0.29067926270E+02  0.78415611147E+02 -0.65393342995E+02  0.10626538344E+03  0.47000000000E+01 0.  1.
         13    1    6    6    0    0 -0.64426637579E+01  0.14609298466E+02 -0.25129563611E+01  0.16163368078E+02  0.00000000000E+00 0. -1.
        -14    1    6    6    0    0 -0.11873857535E+03 -0.14401392394E+02 -0.26583618994E+03  0.29150493866E+03  0.00000000000E+00 0.  1.
</event>
<event>
12    1  0.8135779E-002  0.2674688E+03  0.7818608E-02  0.1102838E+00
         21   -1    0    0  503  502  0.00000000000E+00  0.00000000000E+00  0.67141284770E+03  0.67141284770E+03  0.00000000000E+00 0. -1.
         21   -1    0    0  501  503 -0.00000000000E+00 -0.00000000000E+00 -0.15564011880E+03  0.15564011880E+03  0.00000000000E+00 0.  1.
          6    2    1    2  501    0 -0.17586164934E+03 -0.10530168693E+03  0.24760223588E+02  0.26791715097E+03  0.17073595443E+03 0.  0.
         24    2    3    3    0    0 -0.20115425583E+03 -0.74129879150E+02  0.28902404317E+02  0.22728901781E+03  0.69761558309E+02 0.  0.
         -6    2    1    2    0  502  0.17586164934E+03  0.10530168693E+03  0.49101250531E+03  0.55913581553E+03  0.17182495413E+03 0.  0.
        -24    2    5    5    0    0  0.11106587441E+03  0.13773867838E+03  0.36931990065E+03  0.41742543874E+03  0.80865542146E+02 0.  0.
          5    1    3    3  501    0  0.25292606493E+02 -0.31171807777E+02 -0.41421807285E+01  0.40628133165E+02  0.47000000000E+01 0. -1.
        -13    1    4    4    0    0 -0.44342793045E+02  0.10777869309E+02 -0.45327882778E+01  0.45858389978E+02  0.00000000000E+00 0.  1.
         14    1    4    4    0    0 -0.15681146279E+03 -0.84907748459E+02  0.33435192595E+02  0.18143062783E+03  0.00000000000E+00 0. -1.
         -5    1    5    5    0  502  0.64795774928E+02 -0.32436991450E+02  0.12169260466E+03  0.14171037679E+03  0.47000000000E+01 0.  1.
         11    1    6    6    0    0  0.63307445210E+02  0.36233058640E+02  0.21206100348E+03  0.22425551577E+03  0.00000000000E+00 0. -1.
        -12    1    6    6    0    0  0.47758429203E+02  0.10150561974E+03  0.15725889717E+03  0.19316992297E+03  0.00000000000E+00 0.  1.
</event>
<event>
12    1  0.8135779E-002  0.2146943E+03  0.7818608E-02  0.1138567E+00
         21   -1    0    0  501  502  0.00000000000E+00  0.00000000000E+00  0.89440688985E+02  0.89440688985E+02  0.00000000000E+00 0.  1.
         21   -1    0    0  502  503 -0.00000000000E+00 -0.00000000000E+00 -0.50896763339E+03  0.50896763339E+03  0.00000000000E+00 0.  1.
         -6    2    1    2    0  503  0.52503687275E+02 -0.11104737240E+03 -0.22595178389E+03  0.30933222827E+03  0.17188386401E+03 0.  0.
        -24    2    3    3    0    0  0.63308146451E+01 -0.44671632389E+01 -0.15017379287E+03  0.17056743059E+03  0.80504941161E+02 0.  0.
          6    2    1    2  501    0 -0.52503687275E+02  0.11104737240E+03 -0.19357516051E+03  0.28907609411E+03  0.17608375656E+03 0.  0.
         24    2    5    5    0    0 -0.35006402969E+02  0.23528265895E+02 -0.17657469171E+03  0.19809887223E+03  0.79281232847E+02 0.  0.
          5    1    5    5  501    0 -0.17497284306E+02  0.87519106501E+02 -0.17000468800E+02  0.90977221876E+02  0.47000000000E+01 0. -1.
        -13    1    6    6    0    0 -0.28253381097E+02 -0.13659167739E+02 -0.20432656704E+02  0.37447561559E+02  0.00000000000E+00 0.  1.
         14    1    6    6    0    0 -0.67530218717E+01  0.37187433634E+02 -0.15614203501E+03  0.16065131067E+03  0.00000000000E+00 0. -1.
         -5    1    3    3    0  503  0.46172872630E+02 -0.10658020916E+03 -0.75777991020E+02  0.13876479768E+03  0.47000000000E+01 0.  1.
         13    1    4    4    0    0 -0.14316612258E+02 -0.37882648462E+02 -0.90214511790E+02  0.98887403539E+02  0.00000000000E+00 0. -1.
        -14    1    4    4    0    0  0.20647426903E+02  0.33415485223E+02 -0.59959281081E+02  0.71680027052E+02  0.00000000000E+00 0.  1.
</event>
<event>
12    1  0.8135779E-002  0.1888408E+03  0.7818608E-02  0.1160163E+00
         21   -1    0    0  501  502  0.00000000000E+00  0.00000000000E+00  0.36012293339E+02  0.36012293339E+02  0.00000000000E+00 0.  1.
         21   -1    0    0  502  503 -0.00000000000E+00 -0.00000000000E+00 -0.10022821646E+04  0.10022821646E+04  0.00000000000E+00 0.  1.
         -6    2    1    2    0  503  0.37267864490E+02  0.63292678331E+02 -0.56462578936E+03  0.59447149427E+03  0.17087778859E+03 0.  0.
        -24    2    3    3    0    0  0.30678391853E+02  0.10154954489E+03 -0.51224732764E+03  0.52910634881E+03  0.79389734116E+02 0.  0.
          6    2    1    2  501    0 -0.37267864490E+02 -0.63292678331E+02 -0.40164408185E+03  0.44382296362E+03  0.17397125538E+03 0.  0.
         24    2    5    5    0    0 -0.48570699349E+02  0.10326981979E+02 -0.19337046756E+03  0.22258192568E+03  0.98411465401E+02 0.  0.
          5    1    5    5  501    0  0.11302834859E+02 -0.73619660310E+02 -0.20827361429E+03  0.22124103794E+03  0.47000000000E+01 0. -1.
        -13    1    6    6    0    0 -0.28113244519E+02 -0.35934129132E+02 -0.38624040400E+02  0.59778195445E+02  0.00000000000E+00 0.  1.
         14    1    6    6    0    0 -0.20457454831E+02  0.46261111111E+02 -0.15474642716E+03  0.16280373023E+03  0.00000000000E+00 0. -1.
         -5    1    3    3    0  503  0.65894726374E+01 -0.38256866559E+02 -0.52378461724E+02  0.65365145461E+02  0.47000000000E+01 0.  1.
         11    1    4    4    0    0  0.16689841669E+02  0.43967010433E+02 -0.79867035699E+02  0.92684368761E+02  0.00000000000E+00 0. -1.
        -12    1    4    4    0    0  0.13988550183E+02  0.57582534457E+02 -0.43238029194E+03  0.43642198005E+03  0.00000000000E+00 0.  1.
</event>
<event>
12    1  0.8135779E-002  0.2270599E+03  0.7818608E-02  0.1129201E+00
         21   -1    0    0  501  502  0.00000000000E+00  0.00000000000E+00  0.98364003294E+02  0.98364003294E+02  0.00000000000E+00 0. -1.
         21   -1    0    0  502  503 -0.00000000000E+00 -0.00000000000E+00 -0.65788393804E+03  0.65788393804E+03  0.00000000000E+00 0.  1.
         -6    2    1    2    0  503  0.83614224921E+02  0.11981484204E+03 -0.45535567868E+03  0.50882706991E+03  0.17380810679E+03 0.  0.
        -24    2    3    3    0    0 -0.25023142876E+00  0.85029727588E+02 -0.14743715850E+03  0.18776764193E+03  0.79302297946E+02 0.  0.
          6    2    1    2  501    0 -0.83614224921E+02 -0.11981484204E+03 -0.10416425607E+03  0.24742087142E+03  0.17035245930E+03 0.  0.
         24    2    5    5    0    0 -0.78113611508E+02 -0.24405503693E+02 -0.10659663105E+02  0.11363597879E+03  0.78116210511E+02 0.  0.
          5    1    5    5  501    0 -0.55006134133E+01 -0.95409338348E+02 -0.93504592962E+02  0.13378489263E+03  0.47000000000E+01 0. -1.
        -13    1    6    6    0    0 -0.43008737498E+02 -0.27607780581E+02 -0.42243530134E+02  0.66305783216E+02  0.00000000000E+00 0.  1.
         14    1    6    6    0    0 -0.35104874010E+02  0.32022768876E+01  0.31583867029E+02  0.47330195574E+02  0.00000000000E+00 0. -1.
         -5    1    3    3    0  503  0.83864456350E+02  0.34785114453E+02 -0.30791852018E+03  0.32105942798E+03  0.47000000000E+01 0.  1.
         13    1    4    4    0    0 -0.42102467915E+01  0.72325682080E+02 -0.15595963780E+03  0.17196551715E+03  0.00000000000E+00 0. -1.
        -14    1    4    4    0    0  0.39600153627E+01  0.12704045508E+02  0.85224793028E+01  0.15802124775E+02  0.00000000000E+00 0.  1.
</event>
<event>
12    1  0.8135779E-002  0.1745662E+03  0.7818608E-02  0.1173832E+00
         21   -1    0    0  501  502  0.00000000000E+00  0.00000000000E+00  0.72469929946E+03  0.72469929946E+03  0.00000000000E+00 0.  1.
         21   -1    0    0  502  503 -0.00000000000E+00 -0.00000000000E+00 -0.50950676691E+02  0.50950676691E+02  0.00000000000E+00 0.  1.
         -6    2    1    2    0  503 -0.12450586228E+02  0.21055224297E+02  0.16709035991E+03  0.23976197694E+03  0.17020069814E+03 0.  0.
        -24    2    3    3    0    0  0.25930565165E+02  0.36446737751E+02  0.17515173937E+03  0.19736991038E+03  0.79221151330E+02 0.  0.
          6    2    1    2  501    0  0.12450586228E+02 -0.21055224297E+02  0.50665826286E+03  0.53588799921E+03  0.17284389720E+03 0.  0.
         24    2    5    5    0    0  0.64789090215E+02 -0.39069373875E+02  0.24959408886E+03  0.27289007500E+03  0.80297830925E+02 0.  0.
          5    1    5    5  501    0 -0.52338503986E+02  0.18014149577E+02  0.25706417400E+03  0.26299792421E+03  0.47000000000E+01 0. -1.
        -13    1    6    6    0    0  0.16103263250E+01 -0.36765947125E+02  0.41801354293E+02  0.55692739559E+02  0.00000000000E+00 0.  1.
         14    1    6    6    0    0  0.63178763890E+02 -0.23034267492E+01  0.20779273457E+03  0.21719733544E+03  0.00000000000E+00 0. -1.
         -5    1    3    3    0  503 -0.38381151393E+02 -0.15391513454E+02 -0.80613794601E+01  0.42392066563E+02  0.47000000000E+01 0.  1.
         11    1    4    4    0    0  0.52724814480E+00 -0.43153961915E+01 -0.74125077973E+01  0.85933641108E+01  0.00000000000E+00 0. -1.
        -12    1    4    4    0    0  0.25403317020E+02  0.40762133943E+02  0.18256424716E+03  0.18877654627E+03  0.00000000000E+00 0.  1.
</event>
<event>
12    1  0.8135779E-002  0.2106954E+03  0.7818608E-02  0.1141107E+00
         21   -1    0    0  501  502  0.00000000000E+00  0.00000000000E+00  0.30741748283E+03  0.30741748283E+03  0.00000000000E+00 0. -1.
         21   -1    0    0  502  503 -0.00000000000E+00 -0.00000000000E+00 -0.14539491759E+03  0.14539491759E+03  0.00000000000E+00 0. -1.
         -6    2    1    2    0  503 -0.61729387854E+02  0.10363981763E+03  0.59481038986E+02  0.21848934028E+03  0.17218556470E+03 0.  0.
        -24    2    3    3    0    0 -0.69320129661E+02  0.13690544594E+03  0.35255030760E+02  0.17637982992E+03  0.79489280452E+02 0.  0.
          6    2    1    2  501    0  0.61729387854E+02 -0.10363981763E+03  0.10254152625E+03  0.23432306014E+03  0.17274490669E+03 0.  0.
         24    2    5    5    0    0 -0.14347916078E+02 -0.59704129930E+01  0.13316118898E+02  0.81645844774E+02  0.79039334633E+02 0.  0.
          5    1    5    5  501    0  0.76077303932E+02 -0.97669404641E+02  0.89225407347E+02  0.15267721537E+03  0.47000000000E+01 0. -1.
        -11    1    6    6    0    0 -0.42524408880E+02 -0.24181203642E+01  0.26679828585E+02  0.50259187320E+02  0.00000000000E+00 0.  1.
         12    1    6    6    0    0  0.28176492803E+02 -0.35522926288E+01 -0.13363709686E+02  0.31386657454E+02  0.00000000000E+00 0. -1.
         -5    1    3    3    0  503  0.75907418069E+01 -0.33265628302E+02  0.24226008227E+02  0.42109510352E+02  0.47000000000E+01 0.  1.
         11    1    4    4    0    0 -0.48339424764E+02  0.20840942879E+02  0.24139414386E+02  0.57911624166E+02  0.00000000000E+00 0. -1.
        -12    1    4    4    0    0 -0.20980704896E+02  0.11606450306E+03  0.11115616373E+02  0.11846820576E+03  0.00000000000E+00 0.  1.
</event>
<event>
12    1  0.8135779E-002  0.2063907E+03  0.7818608E-02  0.1145104E+00
         21   -1    0    0  501  502  0.00000000000E+00  0.00000000000E+00  0.32486380617E+03  0.32486380617E+03  0.00000000000E+00 0.  1.
         21   -1    0    0  502  503 -0.00000000000E+00 -0.00000000000E+00 -0.13307825957E+03  0.13307825957E+03  0.00000000000E+00 0.  1.
         -6    2    1    2    0  503 -0.85793265144E+02 -0.77506910389E+02  0.13468567640E+03  0.24379841796E+03  0.16712160743E+03 0.  0.
        -24    2    3    3    0    0 -0.11447957074E+03 -0.44255945736E+02  0.13375901239E+03  0.19962286493E+03  0.83028031165E+02 0.  0.
          6    2    1    2  501    0  0.85793265144E+02  0.77506910389E+02  0.57099870195E+02  0.21414364779E+03  0.17096578959E+03 0.  0.
         24    2    5    5    0    0  0.12507553002E+03  0.62159083919E+02  0.58197624438E+02  0.17169429944E+03  0.81143878679E+02 0.  0.
          5    1    5    5  501    0 -0.39282264872E+02  0.15347826469E+02 -0.10977542430E+01  0.42449348348E+02  0.47000000000E+01 0. -1.
        -11    1    6    6    0    0 -0.73434213077E+01  0.21523631426E+02  0.47891981365E+01  0.23240674798E+02  0.00000000000E+00 0.  1.
         12    1    6    6    0    0  0.13241895132E+03  0.40635452493E+02  0.53408426301E+02  0.14845362464E+03  0.00000000000E+00 0. -1.
         -5    1    3    3    0  503  0.28686305595E+02 -0.33250964653E+02  0.92666401422E+00  0.44175553027E+02  0.47000000000E+01 0.  1.
         13    1    4    4    0    0 -0.37797662850E+02 -0.38042346934E+02  0.10992286272E+02  0.54742249083E+02  0.00000000000E+00 0. -1.
        -14    1    4    4    0    0 -0.76681907889E+02 -0.62135988013E+01  0.12276672612E+03  0.14488061585E+03  0.00000000000E+00 0.  1.
</event>
<event>
12    1  0.8135779E-002  0.4827438E+03  0.7818608E-02  0.1018659E+00
         21   -1    0    0  503  502  0.00000000000E+00  0.00000000000E+00  0.48355986654E+03  0.48355986654E+03  0.00000000000E+00 0. -1.
         21   -1    0    0  501  503 -0.00000000000E+00 -0.00000000000E+00 -0.96582692335E+03  0.96582692335E+03  0.00000000000E+00 0.  1.
          6    2    1    2  501    0 -0.14563146730E+03 -0.42226825227E+03 -0.75570602162E+03  0.89458014636E+03  0.17222963163E+03 0.  0.
         24    2    3    3    0    0 -0.45417708656E+02 -0.19954767041E+03 -0.46989181387E+03  0.51860261198E+03  0.79172668190E+02 0.  0.
         -6    2    1    2    0  502  0.14563146730E+03  0.42226825227E+03  0.27343896481E+03  0.55480664353E+03  0.18309162484E+03 0.  0.
        -24    2    5    5    0    0  0.12083325888E+03  0.41632222939E+03  0.21493674603E+03  0.49081519151E+03  0.82321760752E+02 0.  0.
          5    1    3    3  501    0 -0.10021375864E+03 -0.22272058186E+03 -0.28581420775E+03  0.37597753437E+03  0.47000000000E+01 0. -1.
        -13    1    4    4    0    0 -0.55950380429E+02 -0.19302806430E+03 -0.46224731810E+03  0.50404648770E+03  0.00000000000E+00 0.  1.
         14    1    4    4    0    0  0.10532671772E+02 -0.65196061123E+01 -0.76444957771E+01  0.14556124285E+02  0.00000000000E+00 0. -1.
         -5    1    5    5    0  502  0.24798208426E+02  0.59460228815E+01  0.58502218776E+02  0.63991452014E+02  0.47000000000E+01 0.  1.
         13    1    6    6    0    0  0.12829062006E+03  0.36466207981E+03  0.20541493076E+03  0.43775816318E+03  0.00000000000E+00 0. -1.
        -14    1    6    6    0    0 -0.74573611836E+01  0.51660149574E+02  0.95218152713E+01  0.53057028337E+02  0.00000000000E+00 0.  1.
</event>
<event>
12    1  0.8135779E-002  0.1740201E+03  0.7818608E-02  0.1174225E+00
         21   -1    0    0  503  502  0.00000000000E+00  0.00000000000E+00  0.43603130294E+02  0.43603130294E+02  0.00000000000E+00 0.  1.
         21   -1    0    0  501  503 -0.00000000000E+00 -0.00000000000E+00 -0.97450288704E+03  0.97450288704E+03  0.00000000000E+00 0.  1.
          6    2    1    2  501    0 -0.39069880891E+01 -0.20055015724E+02 -0.74025228869E+03  0.75997919376E+03  0.17081409725E+03 0.  0.
         24    2    3    3    0    0 -0.46589033896E+01  0.34741141925E+01 -0.15822008943E+03  0.17745215034E+03  0.80136721373E+02 0.  0.
         -6    2    1    2    0  502  0.39069880891E+01  0.20055015724E+02 -0.19064746805E+03  0.25812682357E+03  0.17281646843E+03 0.  0.
        -24    2    5    5    0    0  0.42795447930E+02 -0.36523850997E+02 -0.14833732436E+03  0.17734490278E+03  0.79257874605E+02 0.  0.
          5    1    3    3  501    0  0.75191530049E+00 -0.23529129916E+02 -0.58203219926E+03  0.58252704341E+03  0.47000000000E+01 0. -1.
        -13    1    4    4    0    0 -0.72874841423E+01  0.31865354566E+02 -0.13965173289E+03  0.14342633909E+03  0.00000000000E+00 0.  1.
         14    1    4    4    0    0  0.26285807526E+01 -0.28391240373E+02 -0.18568356541E+02  0.34025811252E+02  0.00000000000E+00 0. -1.
         -5    1    5    5    0  502 -0.38888459841E+02  0.56578866721E+02 -0.42310143688E+02  0.80781920794E+02  0.47000000000E+01 0.  1.
         13    1    6    6    0    0 -0.17218676252E+02 -0.18074798320E+02 -0.83241585936E+02  0.86904216096E+02  0.00000000000E+00 0. -1.
        -14    1    6    6    0    0  0.60014124182E+02 -0.18449052677E+02 -0.65095738426E+02  0.90440686681E+02  0.00000000000E+00 0.  1.
</event>
<event>
12    1  0.8135779E-002  0.1763877E+03  0.7818608E-02  0.1171541E+00
         21   -1    0    0  501  502  0.00000000000E+00  0.00000000000E+00  0.51905752854E+03  0.51905752854E+03  0.00000000000E+00 0. -1.
         21   -1    0    0  502  503 -0.00000000000E+00 -0.00000000000E+00 -0.68452369788E+02  0.68452369788E+02  0.00000000000E+00 0. -1.
         -6    2    1    2    0  503 -0.19240037519E+02  0.28810435110E+02  0.11967227765E+03  0.21250431601E+03  0.17215228743E+03 0.  0.
        -24    2    3    3    0    0 -0.65738585823E+02 -0.17032846907E+02  0.49260463130E+02  0.11636049080E+03  0.80631824063E+02 0.  0.
          6    2    1    2  501    0  0.19240037519E+02 -0.28810435110E+02  0.33093288110E+03  0.37500558232E+03  0.17295200134E+03 0.  0.
         24    2    5    5    0    0  0.70912795101E+02 -0.22339488896E+02  0.14356056350E+03  0.18047429326E+03  0.80210085794E+02 0.  0.
          5    1    5    5  501    0 -0.51672757582E+02 -0.64709462139E+01  0.18737231760E+03  0.19453128906E+03  0.47000000000E+01 0. -1.
        -11    1    6    6    0    0 -0.46680268510E+01 -0.31986747508E+02  0.53487142360E+02  0.62496535013E+02  0.00000000000E+00 0.  1.
         12    1    6    6    0    0  0.75580821952E+02  0.96472586121E+01  0.90073421137E+02  0.11797775825E+03  0.00000000000E+00 0. -1.
         -5    1    3    3    0  503  0.46498548304E+02  0.45843282017E+02  0.70411814523E+02  0.96143825204E+02  0.47000000000E+01 0.  1.
         13    1    4    4    0    0 -0.44054604377E+02  0.26842765486E+02  0.42727530343E+02  0.66984954094E+02  0.00000000000E+00 0. -1.
        -14    1    4    4    0    0 -0.21683981446E+02 -0.43875612393E+02  0.65329327869E+01  0.49375536706E+02  0.00000000000E+00 0.  1.
</event>
<event>
12    1  0.8135779E-002  0.2065645E+03  0.7818608E-02  0.1144502E+00
         21   -1    0    0  501  502  0.00000000000E+00  0.00000000000E+00  0.38311633179E+03  0.38311633179E+03  0.00000000000E+00 0.  1.
         21   -1    0    0  502  503 -0.00000000000E+00 -0.00000000000E+00 -0.11763910808E+03  0.11763910808E+03  0.00000000000E+00 0. -1.
         -6    2    1    2    0  503 -0.38067756655E+02  0.10658519183E+03  0.72993669554E+02  0.21908212436E+03  0.17279856540E+03 0.  0.
        -24    2    3    3    0    0  0.21488468215E+02  0.25641400663E+02 -0.12032993527E+02  0.87360961728E+02  0.79799179235E+02 0.  0.
          6    2    1    2  501    0  0.38067756655E+02 -0.10658519183E+03  0.19248355415E+03  0.28167331551E+03  0.17169851728E+03 0.  0.
         24    2    5    5    0    0 -0.92502006641E+01 -0.37854033607E+02  0.17543218262E+03  0.19637501267E+03  0.79171969980E+02 0.  0.
          5    1    5    5  501    0  0.47317957319E+02 -0.68731158224E+02  0.17051371534E+02  0.85298302837E+02  0.47000000000E+01 0. -1.
        -13    1    6    6    0    0  0.17987450056E+02 -0.39783427409E+02  0.15813479508E+03  0.16405146409E+03  0.00000000000E+00 0.  1.
         14    1    6    6    0    0 -0.27237650720E+02  0.19293938017E+01  0.17297387545E+02  0.32323548584E+02  0.00000000000E+00 0. -1.
         -5    1    3    3    0  503 -0.59556224870E+02  0.80943791169E+02  0.85026663082E+02  0.13172116263E+03  0.47000000000E+01 0.  1.
         11    1    4    4    0    0  0.82925907456E+01 -0.27004957062E+02  0.82346683722E+01  0.29425236284E+02  0.00000000000E+00 0. -1.
        -12    1    4    4    0    0  0.13195877470E+02  0.52646357724E+02 -0.20267661899E+02  0.57935725444E+02  0.00000000000E+00 0.  1.
</event>
<event>
12    1  0.8135779E-002  0.2623241E+03  0.7818608E-02  0.1105892E+00
         21   -1    0    0  501  502  0.00000000000E+00  0.00000000000E+00  0.11611148973E+04  0.11611148973E+04  0.00000000000E+00 0. -1.
         21   -1    0    0  502  503 -0.00000000000E+00 -0.00000000000E+00 -0.16267558943E+03  0.16267558943E+03  0.00000000000E+00 0.  1.
         -6    2    1    2    0  503  0.85945822459E+01  0.19895198187E+03 -0.29357866262E+02  0.26304501128E+03  0.16933704767E+03 0.  0.
        -24    2    3    3    0    0  0.30734150844E+02  0.11806308052E+03  0.42238336703E+02  0.15267616994E+03  0.81501268521E+02 0.  0.
          6    2    1    2  501    0 -0.85945822459E+01 -0.19895198187E+03  0.10277971741E+04  0.10607454754E+04  0.17075764873E+03 0.  0.
         24    2    5    5    0    0 -0.21877772370E+01 -0.18134146490E+03  0.10214222773E+04  0.10404007767E+04  0.78998697392E+02 0.  0.
          5    1    5    5  501    0 -0.64068050089E+01 -0.17610516973E+02  0.63748967595E+01  0.20344698748E+02  0.47000000000E+01 0. -1.
        -13    1    6    6    0    0 -0.23006762586E+02 -0.29113617826E+02  0.10926417044E+03  0.11539312289E+03  0.00000000000E+00 0.  1.
         14    1    6    6    0    0  0.20818985349E+02 -0.15222784707E+03  0.91215810688E+03  0.92500765377E+03  0.00000000000E+00 0. -1.
         -5    1    3    3    0  503 -0.22139568598E+02  0.80888901351E+02 -0.71596202965E+02  0.11036884134E+03  0.47000000000E+01 0.  1.
         11    1    4    4    0    0  0.10286641320E+02  0.26145948825E+02  0.50873978038E+02  0.58117013610E+02  0.00000000000E+00 0. -1.
        -12    1    4    4    0    0  0.20447509524E+02  0.91917131695E+02 -0.86356413346E+01  0.94559156331E+02  0.00000000000E+00 0.  1.
</event>
<event>
12    1  0.8135779E-002  0.2703840E+03  0.7818608E-02  0.1101806E+00
         21   -1    0    0  501  502  0.00000000000E+00  0.00000000000E+00  0.30132157527E+03  0.30132157527E+03  0.00000000000E+00 0.  1.
         21   -1    0    0  502  503 -0.00000000000E+00 -0.00000000000E+00 -0.25135791865E+03  0.25135791865E+03  0.00000000000E+00 0.  1.
         -6    2    1    2    0  503 -0.15121757546E+03  0.13393726616E+03 -0.38939183318E+02  0.26805476905E+03  0.17184630580E+03 0.  0.
        -24    2    3    3    0    0 -0.10400405956E+03  0.11039561164E+02 -0.34173267744E+02  0.13623001444E+03  0.80324892095E+02 0.  0.
          6    2    1    2  501    0  0.15121757546E+03 -0.13393726616E+03  0.88902839933E+02  0.28462472488E+03  0.17972638278E+03 0.  0.
         24    2    5    5    0    0  0.10993791574E+03 -0.33643115302E+02  0.10435815575E+03  0.17497125348E+03  0.80660463347E+02 0.  0.
          5    1    5    5  501    0  0.41279659723E+02 -0.10029415086E+03 -0.15455315818E+02  0.10965347140E+03  0.47000000000E+01 0. -1.
        -13    1    6    6    0    0  0.81848020308E+02 -0.45058132301E+02  0.35885139552E+02  0.10008534836E+03  0.00000000000E+00 0.  1.
         14    1    6    6    0    0  0.28089895430E+02  0.11415016998E+02  0.68473016200E+02  0.74885905121E+02  0.00000000000E+00 0. -1.
         -5    1    3    3    0  503 -0.47213515901E+02  0.12289770499E+03 -0.47659155744E+01  0.13182475461E+03  0.47000000000E+01 0.  1.
         11    1    4    4    0    0  0.13001271513E+02  0.31289227547E+01 -0.94642506319E+01  0.16382773226E+02  0.00000000000E+00 0. -1.
        -12    1    4    4    0    0 -0.11700533107E+03  0.79106384095E+01 -0.24709017112E+02  0.11984724121E+03  0.00000000000E+00 0.  1.
</event>
<event>
12    1  0.8135779E-002  0.2573313E+03  0.7818608E-02  0.1108765E+00
         21   -1    0    0  501  502  0.00000000000E+00  0.00000000000E+00  0.62658859569E+03  0.62658859569E+03  0.00000000000E+00 0. -1.
         21   -1    0    0  502  503 -0.00000000000E+00 -0.00000000000E+00 -0.13558530260E+03  0.13558530260E+03  0.00000000000E+00 0.  1.
         -6    2    1    2    0  503  0.14905959604E+02  0.19090984177E+03  0.42455060370E+03  0.49645001715E+03  0.17190302241E+03 0.  0.
        -24    2    3    3    0    0  0.87634249454E+01  0.89365713718E+02  0.34824295826E+03  0.36919481127E+03  0.83478274304E+02 0.  0.
          6    2    1    2  501    0 -0.14905959604E+02 -0.19090984177E+03  0.66452689389E+02  0.26572388114E+03  0.17182684820E+03 0.  0.
         24    2    5    5    0    0  0.18876832079E+02 -0.85856986498E+02 -0.25919083648E+02  0.12173772254E+03  0.80128130339E+02 0.  0.
          5    1    5    5  501    0 -0.33782791682E+02 -0.10505285527E+03  0.92371773037E+02  0.14398615860E+03  0.47000000000E+01 0. -1.
        -13    1    6    6    0    0 -0.22032161818E+02 -0.21923164449E+02 -0.33211111586E+02  0.45486473007E+02  0.00000000000E+00 0.  1.
         14    1    6    6    0    0  0.40908993897E+02 -0.63933822049E+02  0.72920279382E+01  0.76251249530E+02  0.00000000000E+00 0. -1.
         -5    1    3    3    0  503  0.61425346584E+01  0.10154412805E+03  0.76307645440E+02  0.12725520589E+03  0.47000000000E+01 0.  1.
         11    1    4    4    0    0 -0.17429379338E+02  0.81346800346E+02  0.17462903982E+03  0.19343315833E+03  0.00000000000E+00 0. -1.
        -12    1    4    4    0    0  0.26192804284E+02  0.80189133716E+01  0.17361391844E+03  0.17576165294E+03  0.00000000000E+00 0.  1.
</event>
<event>
12    1  0.8135779E-002  0.1733287E+03  0.7818608E-02  0.1174738E+00
         21   -1    0    0  501  502  0.00000000000E+00  0.00000000000E+00  0.50522020119E+03  0.50522020119E+03  0.00000000000E+00 0.  1.
         21   -1    0    0  502  503 -0.00000000000E+00 -0.00000000000E+00 -0.94197392530E+02  0.94197392530E+02  0.00000000000E+00 0.  1.
         -6    2    1    2    0  503  0.14840792934E+02  0.14247918343E+02  0.21942407514E+02  0.17347583318E+03  0.17084830446E+03 0.  0.
        -24    2    3    3    0    0  0.20047065604E+01  0.20749874935E+02  0.79581089223E+02  0.11388264412E+03  0.78749798174E+02 0.  0.
          6    2    1    2  501    0 -0.14840792934E+02 -0.14247918343E+02  0.38908040115E+03  0.42594176054E+03  0.17210337737E+03 0.  0.
         24    2    5    5    0    0  0.69068245605E+01  0.30649142040E+02  0.88967145873E+02  0.12167417947E+03  0.76826940407E+02 0.  0.
          5    1    5    5  501    0 -0.21747617495E+02 -0.44897060383E+02  0.30011325528E+03  0.30426758107E+03  0.47000000000E+01 0. -1.
        -13    1    6    6    0    0  0.46827174213E+01  0.36577974198E+02  0.10130399003E+03  0.10780711681E+03  0.00000000000E+00 0.  1.
         14    1    6    6    0    0  0.22241071392E+01 -0.59288321577E+01 -0.12336844153E+02  0.13867062666E+02  0.00000000000E+00 0. -1.
         -5    1    3    3    0  503  0.12836086374E+02 -0.65019565920E+01 -0.57638681709E+02  0.59593189057E+02  0.47000000000E+01 0.  1.
         13    1    4    4    0    0 -0.24043603971E+02 -0.38651138220E+01  0.73630737294E+02  0.77553333076E+02  0.00000000000E+00 0. -1.
        -14    1    4    4    0    0  0.26048310531E+02  0.24614988757E+02  0.59503519285E+01  0.36329311047E+02  0.00000000000E+00 0.  1.
</event>
<event>
12    1  0.8135779E-002  0.1895155E+03  0.7818608E-02  0.1159069E+00
         21   -1    0    0  501  502  0.00000000000E+00  0.00000000000E+00  0.37082828241E+03  0.37082828241E+03  0.00000000000E+00 0. -1.
         21   -1    0    0  502  503 -0.00000000000E+00 -0.00000000000E+00 -0.96626897017E+02  0.96626897017E+02  0.00000000000E+00 0. -1.
         -6    2    1    2    0  503 -0.56427501731E+02  0.54852873906E+02  0.12743293479E+03  0.22775308574E+03  0.17157917841E+03 0.  0.
        -24    2    3    3    0    0 -0.97153470100E+02  0.56680535579E+02  0.12551871650E+03  0.18667147089E+03  0.80248426691E+02 0.  0.
          6    2    1    2  501    0  0.56427501731E+02 -0.54852873906E+02  0.14676845061E+03  0.23970209370E+03  0.17240421950E+03 0.  0.
         24    2    5    5    0    0  0.73486404929E+01  0.38372741864E+02  0.11915571470E+02  0.68508813841E+02  0.55000062684E+02 0.  0.
          5    1    5    5  501    0  0.49078861238E+02 -0.93225615770E+02  0.13485287914E+03  0.17119327986E+03  0.47000000000E+01 0. -1.
        -11    1    6    6    0    0 -0.16861441154E+02 -0.39887708196E+01 -0.27882634840E+01  0.17549726599E+02  0.00000000000E+00 0.  1.
         12    1    6    6    0    0  0.24210081647E+02  0.42361512683E+02  0.14703834955E+02  0.50959087242E+02  0.00000000000E+00 0. -1.
         -5    1    3    3    0  503  0.40725968370E+02 -0.18276616731E+01  0.19142182948E+01  0.41081614848E+02  0.47000000000E+01 0.  1.
         11    1    4    4    0    0 -0.21079777239E+02  0.41692197471E+02  0.10376847249E+02  0.47856820801E+02  0.00000000000E+00 0. -1.
        -12    1    4    4    0    0 -0.76073692862E+02  0.14988338108E+02  0.11514186925E+03  0.13881465009E+03  0.00000000000E+00 0.  1.
</event>
<event>
12    1  0.8135779E-002  0.2076870E+03  0.7818608E-02  0.1144666E+00
         21   -1    0    0  503  502  0.00000000000E+00  0.00000000000E+00  0.42251776980E+03  0.42251776980E+03  0.00000000000E+00 0.  1.
         21   -1    0    0  501  503 -0.00000000000E+00 -0.00000000000E+00 -0.99744361786E+02  0.99744361786E+02  0.00000000000E+00 0.  1.
          6    2    1    2  501    0  0.93572213763E+02  0.69422703167E+02  0.18016380517E+03  0.27032685968E+03  0.16444556385E+03 0.  0.
         24    2    3    3    0    0  0.12414632871E+03  0.29892144907E+02  0.12827756834E+03  0.19813466403E+03  0.80599995589E+02 0.  0.
         -6    2    1    2    0  502 -0.93572213763E+02 -0.69422703167E+02  0.14260960285E+03  0.25193527191E+03  0.17192618039E+03 0.  0.
        -24    2    5    5    0    0 -0.35573681470E+02 -0.38552009844E+01  0.13960051345E+03  0.16421941411E+03  0.78736035121E+02 0.  0.
          5    1    3    3  501    0 -0.30574114951E+02  0.39530558261E+02  0.51886236824E+02  0.72192195653E+02  0.47000000000E+01 0. -1.
        -11    1    4    4    0    0  0.80676160050E+02  0.26154463199E+02  0.28895722369E+02  0.89597218243E+02  0.00000000000E+00 0.  1.
         12    1    4    4    0    0  0.43470168664E+02  0.37376817081E+01  0.99381845975E+02  0.10853744579E+03  0.00000000000E+00 0. -1.
         -5    1    5    5    0  502 -0.57998532293E+02 -0.65567502183E+02  0.30090894006E+01  0.87715857800E+02  0.47000000000E+01 0.  1.
         13    1    6    6    0    0  0.11598723560E+02 -0.30212867284E+02  0.48783106678E+02  0.58541773418E+02  0.00000000000E+00 0. -1.
        -14    1    6    6    0    0 -0.47172405031E+02  0.26357666300E+02  0.90817406769E+02  0.10567764069E+03  0.00000000000E+00 0.  1.
</event>
<event>
12    1  0.8135779E-002  0.3732167E+03  0.7818608E-02  0.1053540E+00
         21   -1    0    0  503  502  0.00000000000E+00  0.00000000000E+00  0.51684828704E+03  0.51684828704E+03  0.00000000000E+00 0.  1.
         21   -1    0    0  501  503 -0.00000000000E+00 -0.00000000000E+00 -0.46964447735E+03  0.46964447735E+03  0.00000000000E+00 0. -1.
          6    2    1    2  501    0 -0.12325484893E+03 -0.30686589433E+03  0.34604484224E+03  0.50895750428E+03  0.17300946054E+03 0.  0.
         24    2    3    3    0    0 -0.43771911119E+02 -0.22606054731E+03  0.29963163086E+03  0.38638785999E+03  0.80604670361E+02 0.  0.
         -6    2    1    2    0  502  0.12325484893E+03  0.30686589433E+03 -0.29884103255E+03  0.47753526010E+03  0.17139290248E+03 0.  0.
        -24    2    5    5    0    0  0.54926422616E+02  0.28719788201E+03 -0.23296545179E+03  0.38049255460E+03  0.70725858368E+02 0.  0.
          5    1    3    3  501    0 -0.79482937815E+02 -0.80805347022E+02  0.46413211381E+02  0.12256964429E+03  0.47000000000E+01 0. -1.
        -11    1    4    4    0    0 -0.46446098482E+02 -0.61699983010E+02  0.12179447305E+03  0.14421519210E+03  0.00000000000E+00 0.  1.
         12    1    4    4    0    0  0.26741873625E+01 -0.16436056430E+03  0.17783715781E+03  0.24217266789E+03  0.00000000000E+00 0. -1.
         -5    1    5    5    0  502  0.68328426319E+02  0.19668012313E+02 -0.65875580763E+02  0.97042705509E+02  0.47000000000E+01 0.  1.
         11    1    6    6    0    0  0.65295322463E+02  0.25558957153E+03 -0.22391826440E+03  0.34601863727E+03  0.00000000000E+00 0. -1.
        -12    1    6    6    0    0 -0.10368899848E+02  0.31608310488E+02 -0.90471873868E+01  0.34473917323E+02  0.00000000000E+00 0.  1.
</event>
<event>
12    1  0.8135779E-002  0.1858079E+03  0.7818608E-02  0.1162397E+00
         21   -1    0    0  503  502  0.00000000000E+00  0.00000000000E+00  0.85370256875E+02  0.85370256875E+02  0.00000000000E+00 0.  1.
         21   -1    0    0  501  503 -0.00000000000E+00 -0.00000000000E+00 -0.42241839721E+03  0.42241839721E+03  0.00000000000E+00 0.  1.
          6    2    1    2  501    0 -0.38419131729E+02  0.58405929797E+02 -0.22247025315E+03  0.28985790113E+03  0.17215489244E+03 0.  0.
         24    2    3    3    0    0 -0.41274612567E+02  0.10268210382E+03 -0.13818738893E+03  0.19449425733E+03  0.80529830414E+02 0.  0.
         -6    2    1    2    0  502  0.38419131729E+02 -0.58405929797E+02 -0.11457788719E+03  0.21793075296E+03  0.17169286105E+03 0.  0.
        -24    2    5    5    0    0  0.82461359794E+02 -0.99155645114E+01 -0.94516761905E+02  0.14926072947E+03  0.80294164188E+02 0.  0.
          5    1    3    3  501    0  0.28554808377E+01 -0.44276174027E+02 -0.84282864220E+02  0.95363643798E+02  0.47000000000E+01 0. -1.
        -13    1    4    4    0    0 -0.21471894973E+02  0.10310966230E+03 -0.13932506074E+03  0.17465427932E+03  0.00000000000E+00 0.  1.
         14    1    4    4    0    0 -0.19802717595E+02 -0.42755847518E+00  0.11376718113E+01  0.19839978012E+02  0.00000000000E+00 0. -1.
         -5    1    5    5    0  502 -0.44042228065E+02 -0.48490365286E+02 -0.20061125281E+02  0.68670023489E+02  0.47000000000E+01 0.  1.
         11    1    6    6    0    0 -0.16100084049E+02  0.81346590338E+00 -0.16835301959E+02  0.23308835776E+02  0.00000000000E+00 0. -1.
        -12    1    6    6    0    0  0.98561443843E+02 -0.10729030415E+02 -0.77681459946E+02  0.12595189370E+03  0.00000000000E+00 0.  1.
</event>
<event>
12    1  0.8135779E-002  0.2393703E+03  0.7818608E-02  0.1120326E+00
         21   -1    0    0  503  502  0.00000000000E+00  0.00000000000E+00  0.38615707088E+03  0.38615707088E+03  0.00000000000E+00 0. -1.
         21   -1    0    0  501  503 -0.00000000000E+00 -0.00000000000E+00 -0.17998481654E+03  0.17998481654E+03  0.00000000000E+00 0. -1.
          6    2    1    2  501    0 -0.16294566912E+03 -0.30515552754E+02  0.22260452915E+03  0.32688059656E+03  0.17267211113E+03 0.  0.
         24    2    3    3    0    0 -0.14973233237E+03 -0.69709578703E+02  0.12752499468E+03  0.22308766899E+03  0.78906825231E+02 0.  0.
         -6    2    1    2    0  502  0.16294566912E+03  0.30515552754E+02 -0.16432274814E+02  0.23926129086E+03  0.17173658784E+03 0.  0.
        -24    2    5    5    0    0  0.17377794313E+03 -0.11678120642E+02 -0.28368592647E+02  0.19384972936E+03  0.80235830547E+02 0.  0.
          5    1    3    3  501    0 -0.13213336753E+02  0.39194025949E+02  0.95079534471E+02  0.10379292757E+03  0.47000000000E+01 0. -1.
        -13    1    4    4    0    0  0.29185618735E+01 -0.21264157950E+02  0.67532630619E+01  0.22500866177E+02  0.00000000000E+00 0.  1.
         14    1    4    4    0    0 -0.15265089424E+03 -0.48445420752E+02  0.12077173161E+03  0.20058680281E+03  0.00000000000E+00 0. -1.
         -5    1    5    5    0  502 -0.10832274004E+02  0.42193673396E+02  0.11936317833E+02  0.45411561503E+02  0.47000000000E+01 0.  1.
         11    1    6    6    0    0  0.11829162683E+03 -0.25797611337E+02 -0.52184320164E+02  0.13183940609E+03  0.00000000000E+00 0. -1.
        -12    1    6    6    0    0  0.55486316299E+02  0.14119490695E+02  0.23815727516E+02  0.62010323262E+02  0.00000000000E+00 0.  1.
</event>
<event>
12    1  0.8135779E-002  0.2034019E+03  0.7818608E-02  0.1147685E+00
         21   -1    0    0  503  502  0.00000000000E+00  0.00000000000E+00  0.13140639130E+04  0.13140639130E+04  0.00000000000E+00 0. -1.
         21   -1    0    0  501  503 -0.00000000000E+00 -0.00000000000E+00 -0.37911922195E+02  0.37911922195E+02  0.00000000000E+00 0. -1.
          6    2    1    2  501    0  0.67561609989E+01 -0.10428482485E+03  0.92383730305E+03  0.94516142389E+03  0.17009933657E+03 0.  0.
         24    2    3    3    0    0 -0.45838096012E+02 -0.23896037270E+02  0.32962250646E+03  0.34321306438E+03  0.80449109069E+02 0.  0.
         -6    2    1    2    0  502 -0.67561609989E+01  0.10428482485E+03  0.35231468776E+03  0.40681441131E+03  0.17450316797E+03 0.  0.
        -24    2    5    5    0    0  0.65172750633E+02  0.55017241565E+02  0.23731219271E+03  0.26242352877E+03  0.72626767453E+02 0.  0.
          5    1    3    3  501    0  0.52594257010E+02 -0.80388787580E+02  0.59421479659E+03  0.60194835952E+03  0.47000000000E+01 0. -1.
        -11    1    4    4    0    0  0.13973894596E+02  0.17855598635E+02  0.76196717582E+02  0.79498628309E+02  0.00000000000E+00 0.  1.
         12    1    4    4    0    0 -0.59811990608E+02 -0.41751635905E+02  0.25342578888E+03  0.26371443607E+03  0.00000000000E+00 0. -1.
         -5    1    5    5    0  502 -0.71928911632E+02  0.49267583285E+02  0.11500249505E+03  0.14439088253E+03  0.47000000000E+01 0.  1.
         11    1    6    6    0    0  0.20561821216E+02  0.10305971692E+01  0.70731654185E+01  0.21768791682E+02  0.00000000000E+00 0. -1.
        -12    1    6    6    0    0  0.44610929417E+02  0.53986644395E+02  0.23023902729E+03  0.24065473709E+03  0.00000000000E+00 0.  1.
</event>
<event>
12    1  0.8135779E-002  0.3044269E+03  0.7818608E-02  0.1083049E+00
         21   -1    0    0  501  502  0.00000000000E+00  0.00000000000E+00  0.77290069278E+03  0.77290069278E+03  0.00000000000E+00 0. -1.
         21   -1    0    0  502  503 -0.00000000000E+00 -0.00000000000E+00 -0.19808382196E+03  0.19808382196E+03  0.00000000000E+00 0.  1.
         -6    2    1    2    0  503  0.28243285538E+02 -0.24958498465E+03 -0.17600084835E+02  0.30492629107E+03  0.17198817476E+03 0.  0.
        -24    2    3    3    0    0 -0.10341203749E+02 -0.24874561472E+03  0.17447637207E+01  0.26150071657E+03  0.79989119418E+02 0.  0.
          6    2    1    2  501    0 -0.28243285538E+02  0.24958498465E+03  0.59241695566E+03  0.66605822367E+03  0.17200395410E+03 0.  0.
         24    2    5    5    0    0  0.24256365656E+02  0.18429856064E+03  0.29919903874E+03  0.36107073649E+03  0.79357931151E+02 0.  0.
          5    1    5    5  501    0 -0.52499651193E+02  0.65286424011E+02  0.29321791692E+03  0.30498748718E+03  0.47000000000E+01 0. -1.
        -11    1    6    6    0    0 -0.28410598262E+02  0.73304568019E+02  0.10289114938E+03  0.12948864972E+03  0.00000000000E+00 0.  1.
         12    1    6    6    0    0  0.52666963918E+02  0.11099399263E+03  0.19630788936E+03  0.23158208677E+03  0.00000000000E+00 0. -1.
         -5    1    3    3    0  503  0.38584489286E+02 -0.83936993110E+00 -0.19344848556E+02  0.43425574504E+02  0.47000000000E+01 0.  1.
         11    1    4    4    0    0  0.22966448277E+02 -0.50028915037E+02  0.21386086451E+02  0.59056877499E+02  0.00000000000E+00 0. -1.
        -12    1    4    4    0    0 -0.33307652026E+02 -0.19871669969E+03 -0.19641322730E+02  0.20244383907E+03  0.00000000000E+00 0.  1.
</event>
<event>
12    1  0.8135779E-002  0.1998919E+03  0.7818608E-02  0.1150162E+00
         21   -1    0    0  501  502  0.00000000000E+00  0.00000000000E+00  0.90684229795E+03  0.90684229795E+03  0.00000000000E+00 0. -1.
         21   -1    0    0  502  503 -0.00000000000E+00 -0.00000000000E+00 -0.51326173257E+03  0.51326173257E+03  0.00000000000E+00 0.  1.
         -6    2    1    2    0  503  0.84136419492E+02 -0.56684022668E+02 -0.48241520555E+03  0.52159116442E+03  0.17041389834E+03 0.  0.
        -24    2    3    3    0    0  0.86530792519E+02 -0.58074050355E+02 -0.49269375285E+03  0.50995485342E+03  0.80291002263E+02 0.  0.
          6    2    1    2  501    0 -0.84136419492E+02  0.56684022668E+02  0.87599577092E+03  0.89851286610E+03  0.17223462009E+03 0.  0.
         24    2    5    5    0    0 -0.46488902179E+02  0.95510166077E+02  0.73845424477E+03  0.75064614778E+03  0.82894859281E+02 0.  0.
          5    1    5    5  501    0 -0.37647517313E+02 -0.38826143410E+02  0.13754152615E+03  0.14786671832E+03  0.47000000000E+01 0. -1.
        -13    1    6    6    0    0 -0.29049013517E+02  0.75356314895E+02  0.27991083150E+03  0.29132883992E+03  0.00000000000E+00 0.  1.
         14    1    6    6    0    0 -0.17439888662E+02  0.20153851182E+02  0.45854341328E+03  0.45931730786E+03  0.00000000000E+00 0. -1.
         -5    1    3    3    0  503 -0.23943730266E+01  0.13900276870E+01  0.10278547304E+02  0.11636311006E+02  0.47000000000E+01 0.  1.
         11    1    4    4    0    0 -0.57717011282E+00  0.12864357773E+01  0.29267505357E+01  0.32486783538E+01  0.00000000000E+00 0. -1.
        -12    1    4    4    0    0  0.87107962632E+02 -0.59360486132E+02 -0.49562050339E+03  0.50670617506E+03  0.00000000000E+00 0.  1.
</event>
<event>
12    1  0.8135779E-002  0.2018962E+03  0.7818608E-02  0.1148269E+00
         21   -1    0    0  503  502  0.00000000000E+00  0.00000000000E+00  0.95485308134E+03  0.95485308134E+03  0.00000000000E+00 0. -1.
         21   -1    0    0  501  503 -0.00000000000E+00 -0.00000000000E+00 -0.18349986109E+03  0.18349986109E+03  0.00000000000E+00 0. -1.
          6    2    1    2  501    0 -0.98760641293E+02  0.34072293334E+02 -0.11300396743E+03  0.23136980252E+03  0.17276430019E+03 0.  0.
         24    2    3    3    0    0 -0.91519001096E+02  0.82799312092E+02 -0.10712611245E+03  0.18153605001E+03  0.79043531297E+02 0.  0.
         -6    2    1    2    0  502  0.98760641293E+02 -0.34072293334E+02  0.88435718768E+03  0.90698313991E+03  0.17209356538E+03 0.  0.
        -24    2    5    5    0    0  0.13325494673E+03 -0.10391634674E+02  0.75095199789E+03  0.76709151984E+03  0.81459375060E+02 0.  0.
          5    1    3    3  501    0 -0.72416401972E+01 -0.48727018758E+02 -0.58778549783E+01  0.49833752507E+02  0.47000000000E+01 0. -1.
        -11    1    4    4    0    0  0.10826442003E+01  0.40192993184E+02 -0.11623745582E+02  0.41854035420E+02  0.00000000000E+00 0.  1.
         12    1    4    4    0    0 -0.92601645296E+02  0.42606318907E+02 -0.95502366867E+02  0.13968201459E+03  0.00000000000E+00 0. -1.
         -5    1    5    5    0  502 -0.34494305437E+02 -0.23680658660E+02  0.13340518979E+03  0.13989162007E+03  0.47000000000E+01 0.  1.
         13    1    6    6    0    0 -0.82514382953E+01 -0.10708009017E+02  0.10190787736E+03  0.10280059902E+03  0.00000000000E+00 0. -1.
        -14    1    6    6    0    0  0.14150638503E+03  0.31637434282E+00  0.64904412052E+03  0.66429092082E+03  0.00000000000E+00 0.  1.
</event>
<event>
12    1  0.8135779E-002  0.1833626E+03  0.7818608E-02  0.1166735E+00
         21   -1    0    0  501  502  0.00000000000E+00  0.00000000000E+00  0.50944360367E+03  0.50944360367E+03  0.00000000000E+00 0.  1.
         21   -1    0    0  502  503 -0.00000000000E+00 -0.00000000000E+00 -0.10147699109E+03  0.10147699109E+03  0.00000000000E+00 0.  1.
         -6    2    1    2    0  503  0.51849530969E+02  0.34528069936E+02  0.12432917741E+02  0.17495182912E+03  0.16301228050E+03 0.  0.
        -24    2    3    3    0    0 -0.32330090536E+02  0.22812619554E+02  0.65478443824E+01  0.89627831662E+02  0.80153749615E+02 0.  0.
          6    2    1    2  501    0 -0.51849530969E+02 -0.34528069936E+02  0.39553369484E+03  0.43596876563E+03  0.17245665942E+03 0.  0.
         24    2    5    5    0    0  0.34369166765E+02 -0.42447070084E+02  0.22232116565E+03  0.24226526884E+03  0.79263903556E+02 0.  0.
          5    1    5    5  501    0 -0.86218697734E+02  0.79190001481E+01  0.17321252919E+03  0.19370349679E+03  0.47000000000E+01 0. -1.
        -13    1    6    6    0    0  0.10713633226E+01 -0.34243533408E+02  0.19616783558E+03  0.19913710632E+03  0.00000000000E+00 0.  1.
         14    1    6    6    0    0  0.33297803442E+02 -0.82035366767E+01  0.26153330071E+02  0.43128162515E+02  0.00000000000E+00 0. -1.
         -5    1    3    3    0  503  0.84179621505E+02  0.11715450382E+02  0.58850733581E+01  0.85323997461E+02  0.47000000000E+01 0.  1.
         13    1    4    4    0    0 -0.36306696510E+02  0.38045748394E+00  0.36839755600E+02  0.51725124959E+02  0.00000000000E+00 0. -1.
        -14    1    4    4    0    0  0.39766059738E+01  0.22432162070E+02 -0.30291911217E+02  0.37902706703E+02  0.00000000000E+00 0.  1.
</event>
<event>
12    1  0.8135779E-002  0.3032556E+03  0.7818608E-02  0.1083718E+00
         21   -1    0    0  501  502  0.00000000000E+00  0.00000000000E+00  0.23196612576E+03  0.23196612576E+03  0.00000000000E+00 0. -1.
         21   -1    0    0  502  503 -0.00000000000E+00 -0.00000000000E+00 -0.40985526941E+03  0.40985526941E+03  0.00000000000E+00 0.  1.
         -6    2    1    2    0  503  0.12522765279E+02  0.24902226840E+03 -0.14918829721E+03  0.33796609144E+03  0.17261234350E+03 0.  0.
        -24    2    3    3    0    0  0.10243087401E+02  0.19097990491E+03 -0.17784337979E+03  0.27302522104E+03  0.79600619789E+02 0.  0.
          6    2    1    2  501    0 -0.12522765279E+02 -0.24902226840E+03 -0.28700846447E+02  0.30385530373E+03  0.17127579283E+03 0.  0.
         24    2    5    5    0    0  0.33079604118E+02 -0.23847032852E+03 -0.12041181405E+02  0.25394985343E+03  0.79894807190E+02 0.  0.
          5    1    5    5  501    0 -0.45602369398E+02 -0.10551939879E+02 -0.16659665042E+02  0.49905450295E+02  0.47000000000E+01 0. -1.
        -13    1    6    6    0    0  0.45665366256E+02 -0.77706006585E+02 -0.20642569229E+02  0.92464397467E+02  0.00000000000E+00 0.  1.
         14    1    6    6    0    0 -0.12585762138E+02 -0.16076432194E+03  0.86013878242E+01  0.16148545597E+03  0.00000000000E+00 0. -1.
         -5    1    3    3    0  503  0.22796778781E+01  0.58042363488E+02  0.28655082579E+02  0.64940870398E+02  0.47000000000E+01 0.  1.
         13    1    4    4    0    0  0.37476027341E+02  0.68411285185E+02 -0.44211307793E+02  0.89661565360E+02  0.00000000000E+00 0. -1.
        -14    1    4    4    0    0 -0.27232939940E+02  0.12256861973E+03 -0.13363207199E+03  0.18336365568E+03  0.00000000000E+00 0.  1.
</event>
<event>
12    1  0.8135779E-002  0.2809073E+03  0.7818608E-02  0.1095524E+00
         21   -1    0    0  501  502  0.00000000000E+00  0.00000000000E+00  0.58386912375E+03  0.58386912375E+03  0.00000000000E+00 0.  1.
         21   -1    0    0  502  503 -0.00000000000E+00 -0.00000000000E+00 -0.21290972067E+03  0.21290972067E+03  0.00000000000E+00 0. -1.
         -6    2    1    2    0  503  0.26140459815E+02  0.21706778991E+03  0.42752397956E+03  0.51023313682E+03  0.17250899037E+03 0.  0.
        -24    2    3    3    0    0  0.32429479990E+02  0.45679665539E+02  0.93910090207E+02  0.13508815403E+03  0.79318354112E+02 0.  0.
          6    2    1    2  501    0 -0.26140459815E+02 -0.21706778991E+03 -0.56564576477E+02  0.28654570760E+03  0.17637216951E+03 0.  0.
         24    2    5    5    0    0 -0.68700140813E+02 -0.76658710998E+02 -0.73456907718E+01  0.13172121149E+03  0.81855061318E+02 0.  0.
          5    1    5    5  501    0  0.42559680997E+02 -0.14040907891E+03 -0.49218885706E+02  0.15482449612E+03  0.47000000000E+01 0. -1.
        -11    1    6    6    0    0 -0.68679001222E+02 -0.49668034359E+02 -0.36241917011E+02  0.92180233210E+02  0.00000000000E+00 0.  1.
         12    1    6    6    0    0 -0.21139590923E-01 -0.26990676639E+02  0.28896226239E+02  0.39540978278E+02  0.00000000000E+00 0. -1.
         -5    1    3    3    0  503 -0.62890201748E+01  0.17138812437E+03  0.33361388935E+03  0.37514498280E+03  0.47000000000E+01 0.  1.
         13    1    4    4    0    0  0.42259598781E+02  0.45780595938E+02  0.10385158271E+03  0.12110692749E+03  0.00000000000E+00 0. -1.
        -14    1    4    4    0    0 -0.98301187906E+01 -0.10093039918E+00 -0.99414925025E+01  0.13981226540E+02  0.00000000000E+00 0.  1.
</event>
<event>
12    1  0.8135779E-002  0.1984174E+03  0.7818608E-02  0.1151513E+00
         21   -1    0    0  501  502  0.00000000000E+00  0.00000000000E+00  0.17497433395E+03  0.17497433395E+03  0.00000000000E+00 0. -1.
         21   -1    0    0  502  503 -0.00000000000E+00 -0.00000000000E+00 -0.22872104285E+03  0.22872104285E+03  0.00000000000E+00 0. -1.
         -6    2    1    2    0  503  0.97735069615E+02 -0.16396502054E+02 -0.59699725601E+02  0.20720407635E+03  0.17189672163E+03 0.  0.
        -24    2    3    3    0    0  0.11332286080E+03 -0.28504472989E+02 -0.92419335408E+02  0.16870414050E+03  0.79152875529E+02 0.  0.
          6    2    1    2  501    0 -0.97735069615E+02  0.16396502054E+02  0.59530166991E+01  0.19649130046E+03  0.16956533737E+03 0.  0.
         24    2    5    5    0    0 -0.13478778647E+03  0.19120811482E+02 -0.30097220960E+01  0.15798485457E+03  0.80104950109E+02 0.  0.
          5    1    5    5  501    0  0.37052716858E+02 -0.27243094286E+01  0.89627387951E+01  0.38506445890E+02  0.47000000000E+01 0. -1.
        -13    1    6    6    0    0 -0.73184041182E+01 -0.19393515834E+02  0.12047944943E+02  0.23975413919E+02  0.00000000000E+00 0.  1.
         14    1    6    6    0    0 -0.12746938235E+03  0.38514327316E+02 -0.15057667039E+02  0.13400944065E+03  0.00000000000E+00 0. -1.
         -5    1    3    3    0  503 -0.15587791187E+02  0.12107970935E+02  0.32719609807E+02  0.38499935846E+02  0.47000000000E+01 0.  1.
         13    1    4    4    0    0  0.25810593970E+02 -0.43053782785E+02 -0.19441934534E+02  0.53831252926E+02  0.00000000000E+00 0. -1.
        -14    1    4    4    0    0  0.87512266832E+02  0.14549309797E+02 -0.72977400874E+02  0.11487288758E+03  0.00000000000E+00 0.  1.
</event>
<event>
12    1  0.8135779E-002  0.1884429E+03  0.7818608E-02  0.1161114E+00
         21   -1    0    0  501  502  0.00000000000E+00  0.00000000000E+00  0.33681992822E+03  0.33681992822E+03  0.00000000000E+00 0.  1.
         21   -1    0    0  502  503 -0.00000000000E+00 -0.00000000000E+00 -0.10800292023E+03  0.10800292023E+03  0.00000000000E+00 0.  1.
         -6    2    1    2    0  503  0.15812247166E+02 -0.68272889626E+02  0.62429957029E+02  0.19343596965E+03  0.16914124335E+03 0.  0.
        -24    2    3    3    0    0 -0.13020751156E+02 -0.33158646099E+02 -0.29070536908E+02  0.91167781631E+02  0.78723773535E+02 0.  0.
          6    2    1    2  501    0 -0.15812247166E+02  0.68272889626E+02  0.16638705096E+03  0.25138687880E+03  0.17492712050E+03 0.  0.
         24    2    5    5    0    0  0.19629342614E+02 -0.11519768090E+02  0.13628351405E+03  0.15891370731E+03  0.78500662544E+02 0.  0.
          5    1    5    5  501    0 -0.35441589781E+02  0.79792657717E+02  0.30103536913E+02  0.92473171495E+02  0.47000000000E+01 0. -1.
        -11    1    6    6    0    0  0.27524665504E+01  0.33513435838E+02  0.54561890991E+02  0.64091547043E+02  0.00000000000E+00 0.  1.
         12    1    6    6    0    0  0.16876876064E+02 -0.45033203929E+02  0.81721623058E+02  0.94822160263E+02  0.00000000000E+00 0. -1.
         -5    1    3    3    0  503  0.28832998323E+02 -0.35114243528E+02  0.91500493937E+02  0.10226818802E+03  0.47000000000E+01 0.  1.
         11    1    4    4    0    0 -0.97309752042E+00  0.23499614313E+02 -0.23048811873E+02  0.32930631946E+02  0.00000000000E+00 0. -1.
        -12    1    4    4    0    0 -0.12047653636E+02 -0.56658260411E+02 -0.60217250347E+01  0.58237149684E+02  0.00000000000E+00 0.  1.
</event>
<event>
12    1  0.8135779E-002  0.1729073E+03  0.7818608E-02  0.1174903E+00
         21   -1    0    0  503  502  0.00000000000E+00  0.00000000000E+00  0.89844947930E+02  0.89844947930E+02  0.00000000000E+00 0. -1.
         21   -1    0    0  501  503 -0.00000000000E+00 -0.00000000000E+00 -0.39487335273E+03  0.39487335273E+03  0.00000000000E+00 0. -1.
          6    2    1    2  501    0  0.12991221152E+02 -0.78181870069E+01 -0.56001016437E+02  0.18154910086E+03  0.17202926003E+03 0.  0.
         24    2    3    3    0    0 -0.41084986216E+02  0.45347848992E+02 -0.22128242355E+02  0.98360649674E+02  0.73761472287E+02 0.  0.
         -6    2    1    2    0  502 -0.12991221152E+02  0.78181870069E+01 -0.24902738836E+03  0.30316919979E+03  0.17224119041E+03 0.  0.
        -24    2    5    5    0    0 -0.80152220437E+01 -0.98752717443E+01 -0.26552361271E+03  0.27802890410E+03  0.81458687912E+02 0.  0.
          5    1    3    3  501    0  0.54076207367E+02 -0.53166035999E+02 -0.33872774082E+02  0.83188451188E+02  0.47000000000E+01 0. -1.
        -13    1    4    4    0    0 -0.29124444019E+02  0.65868037546E+02 -0.18233780672E+02  0.74292007425E+02  0.00000000000E+00 0.  1.
         14    1    4    4    0    0 -0.11960542197E+02 -0.20520188554E+02 -0.38944616826E+01  0.24068642249E+02  0.00000000000E+00 0. -1.
         -5    1    5    5    0  502 -0.49759991078E+01  0.17693458751E+02  0.16496224346E+02  0.25140295690E+02  0.47000000000E+01 0.  1.
         13    1    6    6    0    0  0.33405648534E+02  0.73911056838E+01 -0.77359600217E+02  0.84587667795E+02  0.00000000000E+00 0. -1.
        -14    1    6    6    0    0 -0.41420870578E+02 -0.17266377428E+02 -0.18816401249E+03  0.19344123631E+03  0.00000000000E+00 0.  1.
</event>
<event>
12    1  0.8135779E-002  0.3933707E+03  0.7818608E-02  0.1046151E+00
         21   -1    0    0  503  502  0.00000000000E+00  0.00000000000E+00  0.10544062275E+03  0.10544062275E+03  0.00000000000E+00 0. -1.
         21   -1    0    0  501  503 -0.00000000000E+00 -0.00000000000E+00 -0.16165411458E+04  0.16165411458E+04  0.00000000000E+00 0.  1.
          6    2    1    2  501    0  0.28952945455E+03 -0.20250055781E+03 -0.10193408165E+04  0.10926097980E+04  0.17293550724E+03 0.  0.
         24    2    3    3    0    0  0.88929157335E+02 -0.58356107143E+02 -0.26082244611E+03  0.29486904435E+03  0.87209945868E+02 0.  0.
         -6    2    1    2    0  502 -0.28952945455E+03  0.20250055781E+03 -0.49175970659E+03  0.62937197054E+03  0.17160328468E+03 0.  0.
        -24    2    5    5    0    0 -0.90356628425E+02  0.53810142636E+02 -0.10345675478E+03  0.16830806324E+03  0.81021307638E+02 0.  0.
          5    1    3    3  501    0  0.20060029721E+03 -0.14414445066E+03 -0.75851837038E+03  0.79774075369E+03  0.47000000000E+01 0. -1.
        -11    1    4    4    0    0  0.68412956119E+02 -0.28929219840E+02 -0.24435895235E+03  0.25539876648E+03  0.00000000000E+00 0.  1.
         12    1    4    4    0    0  0.20516201216E+02 -0.29426887303E+02 -0.16463493758E+02  0.39470277873E+02  0.00000000000E+00 0. -1.
         -5    1    5    5    0  502 -0.19917282612E+03  0.14869041517E+03 -0.38830295181E+03  0.46106390730E+03  0.47000000000E+01 0.  1.
         13    1    6    6    0    0 -0.90786505243E+02  0.52018493474E+02 -0.11566037555E+03  0.15596613629E+03  0.00000000000E+00 0. -1.
        -14    1    6    6    0    0  0.42987681761E+00  0.17916491616E+01  0.12203620772E+02  0.12341926947E+02  0.00000000000E+00 0.  1.
</event>
<event>
12    1  0.8135779E-002  0.2234238E+03  0.7818608E-02  0.1133106E+00
         21   -1    0    0  501  502  0.00000000000E+00  0.00000000000E+00  0.85176355964E+02  0.85176355964E+02  0.00000000000E+00 0. -1.
         21   -1    0    0  502  503 -0.00000000000E+00 -0.00000000000E+00 -0.90612747613E+03  0.90612747613E+03  0.00000000000E+00 0. -1.
         -6    2    1    2    0  503 -0.75958606115E+01  0.12423651775E+03 -0.72143800950E+03  0.75524235053E+03  0.18554190103E+03 0.  0.
        -24    2    3    3    0    0  0.11542116257E+02  0.67748648780E+02 -0.66386058928E+03  0.67220988207E+03  0.80200646465E+02 0.  0.
          6    2    1    2  501    0  0.75958606115E+01 -0.12423651775E+03 -0.99513110657E+02  0.23606148156E+03  0.17415439828E+03 0.  0.
         24    2    5    5    0    0 -0.17286200623E+02 -0.15352719941E+03 -0.69654880110E+02  0.18716705514E+03  0.79437337054E+02 0.  0.
          5    1    5    5  501    0  0.24882061234E+02  0.29290681656E+02 -0.29858230547E+02  0.48894426416E+02  0.47000000000E+01 0. -1.
        -13    1    6    6    0    0 -0.12147593811E+02  0.61262631444E+01 -0.89499786481E+01  0.16284878056E+02  0.00000000000E+00 0.  1.
         14    1    6    6    0    0 -0.51386068123E+01 -0.15965346255E+03 -0.60704901462E+02  0.17088217709E+03  0.00000000000E+00 0. -1.
         -5    1    3    3    0  503 -0.19137976868E+02  0.56487868970E+02 -0.57577420227E+02  0.83032468465E+02  0.47000000000E+01 0.  1.
         11    1    4    4    0    0  0.10543683378E+02 -0.13605084892E+02 -0.23967393186E+03  0.24029120085E+03  0.00000000000E+00 0. -1.
        -12    1    4    4    0    0  0.99843287840E+00  0.81353733672E+02 -0.42418665742E+03  0.43191868122E+03  0.00000000000E+00 0.  1.
</event>
<event>
12    1  0.8135779E-002  0.2623365E+03  0.7818608E-02  0.1105775E+00
         21   -1    0    0  503  502  0.00000000000E+00  0.00000000000E+00  0.25552702816E+04  0.25552702816E+04  0.00000000000E+00 0.  1.
         21   -1    0    0  501  503 -0.00000000000E+00 -0.00000000000E+00 -0.29476621542E+02  0.29476621542E+02  0.00000000000E+00 0.  1.
          6    2    1    2  501    0  0.48677440146E+02 -0.19202150840E+03  0.88221694163E+03  0.92039512042E+03  0.17198457123E+03 0.  0.
         24    2    3    3    0    0 -0.31781438899E+02 -0.71465166393E+02  0.29175890967E+03  0.31238998860E+03  0.79667520002E+02 0.  0.
         -6    2    1    2    0  502 -0.48677440146E+02  0.19202150840E+03  0.16435767185E+04  0.16643517827E+04  0.17169937215E+03 0.  0.
        -24    2    5    5    0    0  0.46065213727E+01  0.54633376435E+02  0.38069971340E+03  0.39289785150E+03  0.80189925011E+02 0.  0.
          5    1    3    3  501    0  0.80458879045E+02 -0.12055634201E+03  0.59045803196E+03  0.60800513182E+03  0.47000000000E+01 0. -1.
        -13    1    4    4    0    0 -0.36756391605E+02 -0.65440512997E+02  0.29464971666E+03  0.30405912022E+03  0.00000000000E+00 0.  1.
         14    1    4    4    0    0  0.49749527060E+01 -0.60246533963E+01 -0.28908069869E+01  0.83308683825E+01  0.00000000000E+00 0. -1.
         -5    1    5    5    0  502 -0.53283961519E+02  0.13738813197E+03  0.12628770051E+04  0.12714539312E+04  0.47000000000E+01 0.  1.
         13    1    6    6    0    0  0.37212113105E+02  0.59100863614E+01  0.12453918428E+03  0.13011409956E+03  0.00000000000E+00 0. -1.
        -14    1    6    6    0    0 -0.32605591732E+02  0.48723290074E+02  0.25616052911E+03  0.26278375194E+03  0.00000000000E+00 0.  1.
</event>
<event>
12    1  0.8135779E-002  0.1903103E+03  0.7818608E-02  0.1158413E+00
         21   -1    0    0  501  502  0.00000000000E+00  0.00000000000E+00  0.10084223645E+03  0.10084223645E+03  0.00000000000E+00 0. -1.
         21   -1    0    0  502  503 -0.00000000000E+00 -0.00000000000E+00 -0.89775390383E+03  0.89775390383E+03  0.00000000000E+00 0. -1.
         -6    2    1    2    0  503  0.97550949201E+01 -0.79360077228E+02 -0.78631029093E+03  0.80901291520E+03  0.17269869601E+03 0.  0.
        -24    2    3    3    0    0  0.47803022514E+02 -0.10342383329E+03 -0.49748640555E+03  0.51666374740E+03  0.80418193910E+02 0.  0.
          6    2    1    2  501    0 -0.97550949201E+01  0.79360077228E+02 -0.10601376455E+02  0.18958322507E+03  0.17156988754E+03 0.  0.
         24    2    5    5    0    0  0.40501351843E+02  0.76278288783E+01 -0.36774970794E+02  0.98049772526E+02  0.81011209972E+02 0.  0.
          5    1    5    5  501    0 -0.50256446763E+02  0.71732248350E+02  0.26173594339E+02  0.91533452547E+02  0.47000000000E+01 0. -1.
        -13    1    6    6    0    0  0.34440162979E+02  0.50884436573E+01 -0.62476420537E+02  0.71521466763E+02  0.00000000000E+00 0.  1.
         14    1    6    6    0    0  0.60611888641E+01  0.25393852210E+01  0.25701449743E+02  0.26528305763E+02  0.00000000000E+00 0. -1.
         -5    1    3    3    0  503 -0.38047927594E+02  0.24063756066E+02 -0.28882388538E+03  0.29234916780E+03  0.47000000000E+01 0.  1.
         11    1    4    4    0    0  0.37815571672E+01 -0.82551294837E+02 -0.38988904709E+03  0.39855048049E+03  0.00000000000E+00 0. -1.
        -12    1    4    4    0    0  0.44021465347E+02 -0.20872538457E+02 -0.10759735846E+03  0.11811326691E+03  0.00000000000E+00 0.  1.
</event>
<event>
12    1  0.8135779E-002  0.1856408E+03  0.7818608E-02  0.1164418E+00
         21   -1    0    0  501  502  0.00000000000E+00  0.00000000000E+00  0.79938393148E+03  0.79938393148E+03  0.00000000000E+00 0.  1.
         21   -1    0    0  502  503 -0.00000000000E+00 -0.00000000000E+00 -0.65788021724E+02  0.65788021724E+02  0.00000000000E+00 0.  1.
         -6    2    1    2    0  503 -0.60158665386E+02  0.25355373759E+02  0.10769133358E+03  0.21461576375E+03  0.17378303347E+03 0.  0.
        -24    2    3    3    0    0 -0.10355010655E+01  0.25803468286E+02 -0.80138259447E+01  0.84594522063E+02  0.80156849481E+02 0.  0.
          6    2    1    2  501    0  0.60158665386E+02 -0.25355373759E+02  0.62590457618E+03  0.65055618946E+03  0.16493894982E+03 0.  0.
         24    2    5    5    0    0 -0.43737932427E+01  0.35703077809E+02  0.27382773767E+03  0.28741329343E+03  0.79567150827E+02 0.  0.
          5    1    5    5  501    0  0.64532458629E+02 -0.61058451568E+02  0.35207683851E+03  0.36314289603E+03  0.47000000000E+01 0. -1.
        -11    1    6    6    0    0 -0.13767403137E+02  0.32624917664E+02  0.27516856882E+03  0.27743768293E+03  0.00000000000E+00 0.  1.
         12    1    6    6    0    0  0.93936098943E+01  0.30781601455E+01 -0.13408311504E+01  0.99756105027E+01  0.00000000000E+00 0. -1.
         -5    1    3    3    0  503 -0.59123164320E+02 -0.44809452722E+00  0.11570515953E+03  0.13002124168E+03  0.47000000000E+01 0.  1.
         13    1    4    4    0    0  0.37836315444E+02  0.21941328892E+01  0.22652257730E+01  0.37967515501E+02  0.00000000000E+00 0. -1.
        -14    1    4    4    0    0 -0.38871816510E+02  0.23609335397E+02 -0.10279051718E+02  0.46627006561E+02  0.00000000000E+00 0.  1.
</event>
<event>
12    1  0.8135779E-002  0.1796252E+03  0.7818608E-02  0.1168493E+00
         21   -1    0    0  501  502  0.00000000000E+00  0.00000000000E+00  0.73879917035E+03  0.73879917035E+03  0.00000000000E+00 0.  1.
         21   -1    0    0  502  503 -0.00000000000E+00 -0.00000000000E+00 -0.56107144011E+02  0.56107144011E+02  0.00000000000E+00 0.  1.
         -6    2    1    2    0  503  0.42839895329E+02 -0.31063335173E+02  0.52990008433E+03  0.55908731618E+03  0.17024787904E+03 0.  0.
        -24    2    3    3    0    0  0.30733551440E+02  0.47188328669E+02  0.25369828102E+03  0.27172097750E+03  0.79361087902E+02 0.  0.
          6    2    1    2  501    0 -0.42839895329E+02  0.31063335173E+02  0.15279194201E+03  0.23581899818E+03  0.17165382296E+03 0.  0.
         24    2    5    5    0    0  0.25008676102E+02  0.49844229077E+02  0.48372298219E+02  0.10979637073E+03  0.81274120956E+02 0.  0.
          5    1    5    5  501    0 -0.67848571432E+02 -0.18780893905E+02  0.10441964379E+03  0.12602262746E+03  0.47000000000E+01 0. -1.
        -11    1    6    6    0    0  0.27048878436E+00  0.64243597342E+02  0.49574049920E+02  0.81147392990E+02  0.00000000000E+00 0.  1.
         12    1    6    6    0    0  0.24738187318E+02 -0.14399368265E+02 -0.12017517007E+01  0.28648977737E+02  0.00000000000E+00 0. -1.
         -5    1    3    3    0  503  0.12106343890E+02 -0.78251663842E+02  0.27620180331E+03  0.28736633868E+03  0.47000000000E+01 0.  1.
         11    1    4    4    0    0  0.16663468806E+02  0.23582318607E+02  0.23864793243E+03  0.24038850347E+03  0.00000000000E+00 0. -1.
        -12    1    4    4    0    0  0.14070082634E+02  0.23606010062E+02  0.15050348586E+02  0.31332474031E+02  0.00000000000E+00 0.  1.
</event>
<event>
12    1  0.8135779E-002  0.1803389E+03  0.7818608E-02  0.1167780E+00
         21   -1    0    0  501  502  0.00000000000E+00  0.00000000000E+00  0.39116050927E+03  0.39116050927E+03  0.00000000000E+00 0.  1.
         21   -1    0    0  502  503 -0.00000000000E+00 -0.00000000000E+00 -0.88844779585E+02  0.88844779585E+02  0.00000000000E+00 0.  1.
         -6    2    1    2    0  503 -0.13245521441E+02 -0.50574845006E+02  0.87839820950E+02  0.20059399921E+03  0.17259449466E+03 0.  0.
        -24    2    3    3    0    0 -0.72364663384E+02 -0.15060472894E+02  0.30510395555E+02  0.11078811640E+03  0.76678942013E+02 0.  0.
          6    2    1    2  501    0  0.13245521441E+02  0.50574845006E+02  0.21447590874E+03  0.27941128965E+03  0.17128191548E+03 0.  0.
         24    2    5    5    0    0 -0.58492265385E+02  0.31699732952E+02  0.12199290596E+03  0.16076148680E+03  0.80844099071E+02 0.  0.
          5    1    5    5  501    0  0.71737786826E+02  0.18875112054E+02  0.92483002780E+02  0.11864980285E+03  0.47000000000E+01 0. -1.
        -11    1    6    6    0    0 -0.40154916433E+02  0.54104238221E+02  0.52297858575E+02  0.85292156255E+02  0.00000000000E+00 0.  1.
         12    1    6    6    0    0 -0.18337348951E+02 -0.22404505269E+02  0.69695047382E+02  0.75469330542E+02  0.00000000000E+00 0. -1.
         -5    1    3    3    0  503  0.59119141942E+02 -0.35514372112E+02  0.57329425395E+02  0.89805882807E+02  0.47000000000E+01 0.  1.
         11    1    4    4    0    0 -0.27808009467E+02  0.25794222020E+02  0.33013921237E+02  0.50284652486E+02  0.00000000000E+00 0. -1.
        -12    1    4    4    0    0 -0.44556653917E+02 -0.40854694915E+02 -0.25035256826E+01  0.60503463915E+02  0.00000000000E+00 0.  1.
</event>
<event>
12    1  0.8135779E-002  0.1975680E+03  0.7818608E-02  0.1156977E+00
         21   -1    0    0  501  502  0.00000000000E+00  0.00000000000E+00  0.31844651984E+02  0.31844651984E+02  0.00000000000E+00 0.  1.
         21   -1    0    0  502  503 -0.00000000000E+00 -0.00000000000E+00 -0.13421011751E+04  0.13421011751E+04  0.00000000000E+00 0.  1.
         -6    2    1    2    0  503  0.87182562960E+02 -0.10315457583E+02 -0.98501849627E+03  0.10046365226E+04  0.17699123293E+03 0.  0.
        -24    2    3    3    0    0  0.54935504668E+02 -0.31523255010E+02 -0.28307270253E+03  0.30161473714E+03  0.82641814246E+02 0.  0.
          6    2    1    2  501    0 -0.87182562960E+02  0.10315457583E+02 -0.32523802679E+03  0.36930930446E+03  0.15133532417E+03 0.  0.
         24    2    5    5    0    0 -0.57437272908E+01  0.38744761978E+02 -0.11766572704E+03  0.14447857052E+03  0.74126156205E+02 0.  0.
          5    1    5    5  501    0 -0.81438835669E+02 -0.28429304395E+02 -0.20757229975E+03  0.22483073395E+03  0.47000000000E+01 0. -1.
        -11    1    6    6    0    0 -0.23380696859E+02 -0.58956677374E+01 -0.90942668190E+01  0.25770556313E+02  0.00000000000E+00 0.  1.
         12    1    6    6    0    0  0.17636969569E+02  0.44640429715E+02 -0.10857146022E+03  0.11870801420E+03  0.00000000000E+00 0. -1.
         -5    1    3    3    0  503  0.32247058292E+02  0.21207797428E+02 -0.70194579374E+03  0.70302178543E+03  0.47000000000E+01 0.  1.
         11    1    4    4    0    0  0.25474553298E+01  0.87521803957E+01  0.17027239656E+01  0.92730501583E+01  0.00000000000E+00 0. -1.
        -12    1    4    4    0    0  0.52388049338E+02 -0.40275435406E+02 -0.28477542650E+03  0.29234168698E+03  0.00000000000E+00 0.  1.
</event>
<event>
12    1  0.8135779E-002  0.2104477E+03  0.7818608E-02  0.1141242E+00
         21   -1    0    0  501  502  0.00000000000E+00  0.00000000000E+00  0.13009351629E+04  0.13009351629E+04  0.00000000000E+00 0.  1.
         21   -1    0    0  502  503 -0.00000000000E+00 -0.00000000000E+00 -0.42724125256E+02  0.42724125256E+02  0.00000000000E+00 0.  1.
         -6    2    1    2    0  503  0.10364052836E+03  0.61968114342E+02  0.32565422264E+03  0.38765172976E+03  0.17216789639E+03 0.  0.
        -24    2    3    3    0    0  0.12673025492E+01  0.25146313676E+02  0.60126535301E+02  0.10066189525E+03  0.76705109089E+02 0.  0.
          6    2    1    2  501    0 -0.10364052836E+03 -0.61968114342E+02  0.93255681504E+03  0.95600755843E+03  0.17235670047E+03 0.  0.
         24    2    5    5    0    0 -0.13096955191E+03 -0.80259136866E+02  0.81063722515E+03  0.82964334898E+03  0.87067922506E+02 0.  0.
          5    1    5    5  501    0  0.27329023545E+02  0.18291022524E+02  0.12191958989E+03  0.12636420945E+03  0.47000000000E+01 0. -1.
        -11    1    6    6    0    0 -0.70871930875E+02  0.44800967394E+01  0.38641253758E+03  0.39288363551E+03  0.00000000000E+00 0.  1.
         12    1    6    6    0    0 -0.60097621031E+02 -0.84739233605E+02  0.42422468758E+03  0.43675971348E+03  0.00000000000E+00 0. -1.
         -5    1    3    3    0  503  0.10237322581E+03  0.36821800666E+02  0.26552768734E+03  0.28698983451E+03  0.47000000000E+01 0.  1.
         13    1    4    4    0    0  0.96897267968E+01  0.22007517607E+02  0.77476287886E+02  0.81122110557E+02  0.00000000000E+00 0. -1.
        -14    1    4    4    0    0 -0.84224242476E+01  0.31387960689E+01 -0.17349752586E+02  0.19539784691E+02  0.00000000000E+00 0.  1.
</event>
<event>
12    1  0.8135779E-002  0.2385695E+03  0.7818608E-02  0.1122524E+00
         21   -1    0    0  503  502  0.00000000000E+00  0.00000000000E+00  0.31465304354E+03  0.31465304354E+03  0.00000000000E+00 0.  1.
         21   -1    0    0  501  503 -0.00000000000E+00 -0.00000000000E+00 -0.37069518734E+03  0.37069518734E+03  0.00000000000E+00 0.  1.
          6    2    1    2  501    0 -0.61072298272E+02 -0.13795975536E+03 -0.27786356419E+03  0.35958735872E+03  0.17126642558E+03 0.  0.
         24    2    3    3    0    0 -0.84766748297E+01 -0.23608661660E+02 -0.18588624157E+03  0.20362457434E+03  0.79246763647E+02 0.  0.
         -6    2    1    2    0  502  0.61072298272E+02  0.13795975536E+03  0.22182142039E+03  0.32576087216E+03  0.18480444685E+03 0.  0.
        -24    2    5    5    0    0 -0.41586806735E+02  0.53804177744E+02  0.10657076832E+03  0.14990338473E+03  0.80556465017E+02 0.  0.
          5    1    3    3  501    0 -0.52595623442E+02 -0.11435109370E+03 -0.91977322617E+02  0.15596278438E+03  0.47000000000E+01 0. -1.
        -13    1    4    4    0    0 -0.26751273243E+02 -0.44877954319E+02 -0.93867881036E+02  0.10742830397E+03  0.00000000000E+00 0.  1.
         14    1    4    4    0    0  0.18274598413E+02  0.21269292660E+02 -0.92018360534E+02  0.96196270368E+02  0.00000000000E+00 0. -1.
         -5    1    5    5    0  502  0.10265910501E+03  0.84155577614E+02  0.11525065206E+03  0.17585748743E+03  0.47000000000E+01 0.  1.
         13    1    6    6    0    0 -0.98302303825E+01  0.19222982069E+02 -0.10324173304E+02  0.23932091914E+02  0.00000000000E+00 0. -1.
        -14    1    6    6    0    0 -0.31756576352E+02  0.34581195675E+02  0.11689494163E+03  0.12597129282E+03  0.00000000000E+00 0.  1.
</event>
<event>
12    1  0.8135779E-002  0.2156478E+03  0.7818608E-02  0.1137500E+00
         21   -1    0    0  503  502  0.00000000000E+00  0.00000000000E+00  0.28548356186E+03  0.28548356186E+03  0.00000000000E+00 0. -1.
         21   -1    0    0  501  503 -0.00000000000E+00 -0.00000000000E+00 -0.38790353626E+03  0.38790353626E+03  0.00000000000E+00 0.  1.
          6    2    1    2  501    0  0.64804419681E+02 -0.11223333736E+03 -0.30829333948E+03  0.37524653401E+03  0.17020353490E+03 0.  0.
         24    2    3    3    0    0  0.66362832949E+02 -0.10260762670E+03 -0.32431494208E+03  0.35591095263E+03  0.80994283075E+02 0.  0.
         -6    2    1    2    0  502 -0.64804419681E+02  0.11223333736E+03  0.20587336508E+03  0.29814056411E+03  0.17236014243E+03 0.  0.
        -24    2    5    5    0    0 -0.10447827046E+03  0.89066429832E+02  0.19545145783E+03  0.25079686136E+03  0.76480424808E+02 0.  0.
          5    1    3    3  501    0 -0.15584132681E+01 -0.96257106562E+01  0.16021602598E+02  0.19335581381E+02  0.47000000000E+01 0. -1.
        -13    1    4    4    0    0  0.54333169554E+02 -0.12600244242E+02 -0.12627818467E+03  0.13804723609E+03  0.00000000000E+00 0.  1.
         14    1    4    4    0    0  0.12029663395E+02 -0.90007382457E+02 -0.19803675741E+03  0.21786371654E+03  0.00000000000E+00 0. -1.
         -5    1    5    5    0  502  0.39673850775E+02  0.23166907523E+02  0.10421907243E+02  0.47343702751E+02  0.47000000000E+01 0.  1.
         13    1    6    6    0    0 -0.74336781312E+02  0.99454620817E+02  0.16673902283E+03  0.20789199213E+03  0.00000000000E+00 0. -1.
        -14    1    6    6    0    0 -0.30141489144E+02 -0.10388190986E+02  0.28712434999E+02  0.42904869227E+02  0.00000000000E+00 0.  1.
</event>
<event>
12    1  0.8135779E-002  0.3480679E+03  0.7818608E-02  0.1063611E+00
         21   -1    0    0  503  502  0.00000000000E+00  0.00000000000E+00  0.14929710631E+04  0.14929710631E+04  0.00000000000E+00 0. -1.
         21   -1    0    0  501  503 -0.00000000000E+00 -0.00000000000E+00 -0.11242627505E+03  0.11242627505E+03  0.00000000000E+00 0.  1.
          6    2    1    2  501    0 -0.60973366179E+02  0.29435441982E+03  0.26523257890E+03  0.43760664325E+03  0.17546788155E+03 0.  0.
         24    2    3    3    0    0 -0.67390526749E+02  0.30273017168E+03  0.21398418128E+03  0.38507264066E+03  0.79401944603E+02 0.  0.
         -6    2    1    2    0  502  0.60973366179E+02 -0.29435441982E+03  0.11153122091E+04  0.11677906949E+04  0.17161441485E+03 0.  0.
        -24    2    5    5    0    0 -0.15764407661E+02 -0.21460246490E+03  0.67389785372E+03  0.71268874652E+03  0.86511257526E+02 0.  0.
          5    1    3    3  501    0  0.64171605695E+01 -0.83757518587E+01  0.51248397628E+02  0.52534002593E+02  0.47000000000E+01 0. -1.
        -11    1    4    4    0    0 -0.19656183738E+02  0.20659750370E+03  0.17300425099E+03  0.27018394652E+03  0.00000000000E+00 0.  1.
         12    1    4    4    0    0 -0.47734343011E+02  0.96132667980E+02  0.40979930285E+02  0.11488869414E+03  0.00000000000E+00 0. -1.
         -5    1    5    5    0  502  0.76737773840E+02 -0.79751954926E+02  0.44141435537E+03  0.45510194834E+03  0.47000000000E+01 0.  1.
         11    1    6    6    0    0  0.12927437028E+02 -0.19861951884E+03  0.57392550525E+03  0.60745972497E+03  0.00000000000E+00 0. -1.
        -12    1    6    6    0    0 -0.28691844689E+02 -0.15982946057E+02  0.99972348472E+02  0.10522902154E+03  0.00000000000E+00 0.  1.
</event>
<event>
12    1  0.8135779E-002  0.2293178E+03  0.7818608E-02  0.1127123E+00
         21   -1    0    0  501  502  0.00000000000E+00  0.00000000000E+00  0.10752142358E+03  0.10752142358E+03  0.00000000000E+00 0. -1.
         21   -1    0    0  502  503 -0.00000000000E+00 -0.00000000000E+00 -0.63306911424E+03  0.63306911424E+03  0.00000000000E+00 0. -1.
         -6    2    1    2    0  503 -0.87448069868E+02  0.12441992760E+03 -0.86165222279E+02  0.24497159820E+03  0.17163669505E+03 0.  0.
        -24    2    3    3    0    0 -0.22868785253E+02  0.11728954451E+03 -0.99508238509E+01  0.14471168153E+03  0.81010081380E+02 0.  0.
          6    2    1    2  501    0  0.87448069868E+02 -0.12441992760E+03 -0.43938246839E+03  0.49561893961E+03  0.17162079265E+03 0.  0.
         24    2    5    5    0    0  0.57031998148E+01 -0.34488527808E+02 -0.84601174941E+02  0.12056996064E+03  0.78471469778E+02 0.  0.
          5    1    5    5  501    0  0.81744870053E+02 -0.89931399790E+02 -0.35478129345E+03  0.37504897897E+03  0.47000000000E+01 0. -1.
        -11    1    6    6    0    0 -0.26881543272E+02 -0.34463645591E+02 -0.74641814149E+02  0.86497171373E+02  0.00000000000E+00 0.  1.
         12    1    6    6    0    0  0.32584743086E+02 -0.24882217221E-01 -0.99593607921E+01  0.34072789268E+02  0.00000000000E+00 0. -1.
         -5    1    3    3    0  503 -0.64579284614E+02  0.71303830909E+01 -0.76214398428E+02  0.10025991668E+03  0.47000000000E+01 0.  1.
         11    1    4    4    0    0 -0.49500449839E+02  0.43419779593E+02 -0.46826390298E+01  0.66011354345E+02  0.00000000000E+00 0. -1.
        -12    1    4    4    0    0  0.26631664586E+02  0.73869764914E+02 -0.52681848212E+01  0.78700327181E+02  0.00000000000E+00 0.  1.
</event>
<event>
12    1  0.8135779E-002  0.2044026E+03  0.7818608E-02  0.1146368E+00
         21   -1    0    0  503  502  0.00000000000E+00  0.00000000000E+00  0.40531885000E+02  0.40531885000E+02  0.00000000000E+00 0. -1.
         21   -1    0    0  501  503 -0.00000000000E+00 -0.00000000000E+00 -0.14285932141E+04  0.14285932141E+04  0.00000000000E+00 0.  1.
          6    2    1    2  501    0 -0.10668128063E+03  0.22812501146E+02 -0.10833694622E+04  0.11022224587E+04  0.17118309143E+03 0.  0.
         24    2    3    3    0    0 -0.69077446692E+02 -0.19485608269E+02 -0.96524384398E+03  0.97115404111E+03  0.79329128672E+02 0.  0.
         -6    2    1    2    0  502  0.10668128063E+03 -0.22812501146E+02 -0.30469186687E+03  0.36690264046E+03  0.17285574331E+03 0.  0.
        -24    2    5    5    0    0  0.59337207478E+02  0.84050897692E+00 -0.30149089677E+03  0.31367424241E+03  0.63032998223E+02 0.  0.
          5    1    3    3  501    0 -0.37603833935E+02  0.42298109415E+02 -0.11812561827E+03  0.13106841755E+03  0.47000000000E+01 0. -1.
        -13    1    4    4    0    0 -0.56459069122E+02  0.11289535241E+02 -0.32599985771E+03  0.33104529496E+03  0.00000000000E+00 0.  1.
         14    1    4    4    0    0 -0.12618377570E+02 -0.30775143509E+02 -0.63924398627E+03  0.64010874615E+03  0.00000000000E+00 0. -1.
         -5    1    5    5    0  502  0.47344073150E+02 -0.23653010123E+02 -0.32009701014E+01  0.53228398059E+02  0.47000000000E+01 0.  1.
         13    1    6    6    0    0  0.58170515941E+01 -0.21493666192E+02 -0.39522306198E+02  0.45363294224E+02  0.00000000000E+00 0. -1.
        -14    1    6    6    0    0  0.53520155883E+02  0.22334175169E+02 -0.26196859058E+03  0.26831094818E+03  0.00000000000E+00 0.  1.
</event>
<event>
12    1  0.8135779E-002  0.4630862E+03  0.7818608E-02  0.1023960E+00
         21   -1    0    0  503  502  0.00000000000E+00  0.00000000000E+00  0.34988291560E+04  0.34988291560E+04  0.00000000000E+00 0.  1.
         21   -1    0    0  501  503 -0.00000000000E+00 -0.00000000000E+00 -0.10640521177E+03  0.10640521177E+03  0.00000000000E+00 0. -1.
          6    2    1    2  501    0  0.42629040986E+03  0.53032258193E+02  0.52181102313E+03  0.69766438130E+03  0.17295349410E+03 0.  0.
         24    2    3    3    0    0  0.38652839165E+03  0.19144872990E+02  0.38699208274E+03  0.55300059987E+03  0.79221636211E+02 0.  0.
         -6    2    1    2    0  502 -0.42629040986E+03 -0.53032258193E+02  0.28706129210E+04  0.29075699864E+04  0.17031955114E+03 0.  0.
        -24    2    5    5    0    0 -0.17896377954E+03  0.20003790924E+02  0.14985082648E+04  0.15114331721E+04  0.80467559220E+02 0.  0.
          5    1    3    3  501    0  0.39762018217E+02  0.33887385203E+02  0.13481894039E+03  0.14466378143E+03  0.47000000000E+01 0. -1.
        -13    1    4    4    0    0  0.12834207536E+03 -0.28007960550E+02  0.14986297578E+03  0.19928634091E+03  0.00000000000E+00 0.  1.
         14    1    4    4    0    0  0.25818631628E+03  0.47152833539E+02  0.23712910696E+03  0.35371425896E+03  0.00000000000E+00 0. -1.
         -5    1    5    5    0  502 -0.24732663032E+03 -0.73036049117E+02  0.13721046563E+04  0.13961368143E+04  0.47000000000E+01 0.  1.
         11    1    6    6    0    0 -0.14019723362E+03  0.29055494469E+02  0.87331610717E+03  0.88497486355E+03  0.00000000000E+00 0. -1.
        -12    1    6    6    0    0 -0.38766545919E+02 -0.90517035447E+01  0.62519215762E+03  0.62645830857E+03  0.00000000000E+00 0.  1.
</event>
<event>
12    1  0.8135779E-002  0.2169840E+03  0.7818608E-02  0.1136333E+00
         21   -1    0    0  501  502  0.00000000000E+00  0.00000000000E+00  0.12019260251E+03  0.12019260251E+03  0.00000000000E+00 0.  1.
         21   -1    0    0  502  503 -0.00000000000E+00 -0.00000000000E+00 -0.76165899819E+03  0.76165899819E+03  0.00000000000E+00 0. -1.
         -6    2    1    2    0  503 -0.84695640983E+02 -0.10088889704E+03 -0.62837491322E+03  0.66447300833E+03  0.17122332224E+03 0.  0.
        -24    2    3    3    0    0 -0.78999257573E+02 -0.97267798403E+02 -0.28848250907E+03  0.32448110028E+03  0.79774175602E+02 0.  0.
          6    2    1    2  501    0  0.84695640983E+02  0.10088889704E+03 -0.13091482458E+02  0.21737859237E+03  0.17242431488E+03 0.  0.
         24    2    5    5    0    0  0.51307217064E+02  0.41789766851E+02 -0.72882780792E+02  0.12679943695E+03  0.79921100706E+02 0.  0.
          5    1    5    5  501    0  0.33388423919E+02  0.59099130192E+02  0.59791298334E+02  0.90579155426E+02  0.47000000000E+01 0. -1.
        -13    1    6    6    0    0 -0.20602798374E+02  0.13918397614E+02 -0.28487258814E+02  0.37811651746E+02  0.00000000000E+00 0.  1.
         14    1    6    6    0    0  0.71910015438E+02  0.27871369237E+02 -0.44395521978E+02  0.88987785202E+02  0.00000000000E+00 0. -1.
         -5    1    3    3    0  503 -0.56963834104E+01 -0.36210986402E+01 -0.33989240415E+03  0.33999190805E+03  0.47000000000E+01 0.  1.
         11    1    4    4    0    0 -0.40690346094E+02 -0.83332025553E+02 -0.25624533590E+03  0.27250982169E+03  0.00000000000E+00 0. -1.
        -12    1    4    4    0    0 -0.38308911479E+02 -0.13935772850E+02 -0.32237173172E+02  0.51971278585E+02  0.00000000000E+00 0.  1.
</event>
<event>
12    1  0.8135779E-002  0.2181340E+03  0.7818608E-02  0.1135481E+00
         21   -1    0    0  501  502  0.00000000000E+00  0.00000000000E+00  0.28692410803E+03  0.28692410803E+03  0.00000000000E+00 0. -1.
         21   -1    0    0  502  503 -0.00000000000E+00 -0.00000000000E+00 -0.26394279562E+03  0.26394279562E+03  0.00000000000E+00 0.  1.
         -6    2    1    2    0  503 -0.13329215147E+03 -0.60903153375E+01 -0.15713295281E+03  0.26798250372E+03  0.17123074448E+03 0.  0.
        -24    2    3    3    0    0 -0.11472715642E+02 -0.50843291750E+01 -0.19391669545E+02  0.84037571555E+02  0.80801008520E+02 0.  0.
          6    2    1    2  501    0  0.13329215147E+03  0.60903153375E+01  0.18011426522E+03  0.28288439993E+03  0.17256461284E+03 0.  0.
         24    2    5    5    0    0  0.36938389170E+02  0.60391244467E+02  0.83828602272E+02  0.13616815236E+03  0.80641082298E+02 0.  0.
          5    1    5    5  501    0  0.96353762296E+02 -0.54300929130E+02  0.96285662951E+02  0.14671624758E+03  0.47000000000E+01 0. -1.
        -13    1    6    6    0    0 -0.76203321678E+01  0.20442261747E+02  0.71911961162E+02  0.75148424374E+02  0.00000000000E+00 0.  1.
         14    1    6    6    0    0  0.44558721338E+02  0.39948982720E+02  0.11916641110E+02  0.61019727982E+02  0.00000000000E+00 0. -1.
         -5    1    3    3    0  503 -0.12181943582E+03 -0.10059861624E+01 -0.13774128326E+03  0.18394493216E+03  0.47000000000E+01 0.  1.
         13    1    4    4    0    0 -0.10993574079E+01 -0.32381158964E+02  0.17629652564E+02  0.36885670552E+02  0.00000000000E+00 0. -1.
        -14    1    4    4    0    0 -0.10373358234E+02  0.27296829789E+02 -0.37021322109E+02  0.47151901003E+02  0.00000000000E+00 0.  1.
</event>
<event>
12    1  0.8135779E-002  0.1738333E+03  0.7818608E-02  0.1174276E+00
         21   -1    0    0  503  502  0.00000000000E+00  0.00000000000E+00  0.55038481772E+03  0.55038481772E+03  0.00000000000E+00 0. -1.
         21   -1    0    0  501  503 -0.00000000000E+00 -0.00000000000E+00 -0.40606076715E+03  0.40606076715E+03  0.00000000000E+00 0. -1.
          6    2    1    2  501    0 -0.29575639778E+01  0.26021200370E+02 -0.37280458750E+03  0.41134082631E+03  0.17184925044E+03 0.  0.
         24    2    3    3    0    0 -0.25100878627E+01  0.57623847053E+01 -0.38099717331E+03  0.38898398598E+03  0.78167702179E+02 0.  0.
         -6    2    1    2    0  502  0.29575639778E+01 -0.26021200370E+02  0.51712863806E+03  0.54510475857E+03  0.17038579593E+03 0.  0.
        -24    2    5    5    0    0 -0.44657358812E+02 -0.60309729392E+02  0.38194663046E+03  0.39766273852E+03  0.81368801983E+02 0.  0.
          5    1    3    3  501    0 -0.44747611504E+00  0.20258815665E+02  0.81925858133E+01  0.22356840325E+02  0.47000000000E+01 0. -1.
        -13    1    4    4    0    0 -0.88929634620E+01 -0.18944106039E+02 -0.27452474716E+02  0.34519593288E+02  0.00000000000E+00 0.  1.
         14    1    4    4    0    0  0.63828755993E+01  0.24706490745E+02 -0.35354469859E+03  0.35446439270E+03  0.00000000000E+00 0. -1.
         -5    1    5    5    0  502  0.47614922790E+02  0.34288529022E+02  0.13518200761E+03  0.14744202005E+03  0.47000000000E+01 0.  1.
         13    1    6    6    0    0 -0.20428322162E+02 -0.58584309816E+02  0.35874963751E+03  0.36407518471E+03  0.00000000000E+00 0. -1.
        -14    1    6    6    0    0 -0.24229036651E+02 -0.17254195761E+01  0.23196992945E+02  0.33587553817E+02  0.00000000000E+00 0.  1.
</event>
<event>
12    1  0.8135779E-002  0.2066372E+03  0.7818608E-02  0.1144311E+00
         21   -1    0    0  503  502  0.00000000000E+00  0.00000000000E+00  0.28961863577E+03  0.28961863577E+03  0.00000000000E+00 0. -1.
         21   -1    0    0  501  503 -0.00000000000E+00 -0.00000000000E+00 -0.14781465704E+03  0.14781465704E+03  0.00000000000E+00 0. -1.
          6    2    1    2  501    0  0.11186095963E+03 -0.40512134316E+01  0.57315646960E+02  0.21443879700E+03  0.17369406338E+03 0.  0.
         24    2    3    3    0    0 -0.81091829474E+01 -0.81935593564E+01  0.45503712192E+02  0.93725889891E+02  0.81123740974E+02 0.  0.
         -6    2    1    2    0  502 -0.11186095963E+03  0.40512134316E+01  0.84488331770E+02  0.22299449581E+03  0.17337525871E+03 0.  0.
        -24    2    5    5    0    0 -0.14166588448E+03  0.28508216673E+02  0.50768126279E+02  0.17155889713E+03  0.77285906197E+02 0.  0.
          5    1    3    3  501    0  0.11997014258E+03  0.41423459247E+01  0.11811934768E+02  0.12071290711E+03  0.47000000000E+01 0. -1.
        -11    1    4    4    0    0 -0.14802882249E+02  0.34615528835E+02  0.28334170698E+02  0.47118843243E+02  0.00000000000E+00 0.  1.
         12    1    4    4    0    0  0.66936993014E+01 -0.42809088191E+02  0.17169541494E+02  0.46607046648E+02  0.00000000000E+00 0. -1.
         -5    1    5    5    0  502  0.29804924845E+02 -0.24457003241E+02  0.33720205491E+02  0.51435598674E+02  0.47000000000E+01 0.  1.
         13    1    6    6    0    0 -0.11097882394E+03 -0.10961152088E+02  0.48223904460E+02  0.12149893489E+03  0.00000000000E+00 0. -1.
        -14    1    6    6    0    0 -0.30687060531E+02  0.39469368761E+02  0.25442218190E+01  0.50059962236E+02  0.00000000000E+00 0.  1.
</event>
<event>
12    1  0.8135779E-002  0.2345922E+03  0.7818608E-02  0.1123546E+00
         21   -1    0    0  503  502  0.00000000000E+00  0.00000000000E+00  0.31178741936E+02  0.31178741936E+02  0.00000000000E+00 0.  1.
         21   -1    0    0  501  503 -0.00000000000E+00 -0.00000000000E+00 -0.20911332818E+04  0.20911332818E+04  0.00000000000E+00 0. -1.
          6    2    1    2  501    0 -0.14755437571E+03 -0.61085102916E+02 -0.14506650188E+04  0.14694205966E+04  0.17106785002E+03 0.  0.
         24    2    3    3    0    0 -0.22183750365E+02 -0.45222791788E+02 -0.87487701667E+03  0.87990951102E+03  0.79333054912E+02 0.  0.
         -6    2    1    2    0  502  0.14755437571E+03  0.61085102916E+02 -0.60928952106E+03  0.65289142715E+03  0.17184240332E+03 0.  0.
        -24    2    5    5    0    0  0.16837777498E+03  0.41594972815E+02 -0.58216917904E+03  0.61325454937E+03  0.84136629540E+02 0.  0.
          5    1    3    3  501    0 -0.12537062534E+03 -0.15862311128E+02 -0.57578800216E+03  0.58951108560E+03  0.47000000000E+01 0. -1.
        -13    1    4    4    0    0 -0.10339568572E+02 -0.26834685065E+02 -0.85062304909E+02  0.89791996956E+02  0.00000000000E+00 0.  1.
         14    1    4    4    0    0 -0.11844181793E+02 -0.18388106723E+02 -0.78981471176E+03  0.79011751406E+03  0.00000000000E+00 0. -1.
         -5    1    5    5    0  502 -0.20823399274E+02  0.19490130101E+02 -0.27120342028E+02  0.39636877783E+02  0.47000000000E+01 0.  1.
         13    1    6    6    0    0  0.11199884247E+03  0.71092653472E+01 -0.46863956932E+03  0.48188933201E+03  0.00000000000E+00 0. -1.
        -14    1    6    6    0    0  0.56378932508E+02  0.34485707467E+02 -0.11352960972E+03  0.13136521736E+03  0.00000000000E+00 0.  1.
</event>
<event>
12    1  0.8135779E-002  0.1794988E+03  0.7818608E-02  0.1168576E+00
         21   -1    0    0  501  502  0.00000000000E+00  0.00000000000E+00  0.49322677443E+02  0.49322677443E+02  0.00000000000E+00 0. -1.
         21   -1    0    0  502  503 -0.00000000000E+00 -0.00000000000E+00 -0.64914289181E+03  0.64914289181E+03  0.00000000000E+00 0. -1.
         -6    2    1    2    0  503 -0.37489388558E+02 -0.30965592155E+02 -0.29517604522E+03  0.34546881428E+03  0.17278738904E+03 0.  0.
        -24    2    3    3    0    0  0.33748970719E+02 -0.36910947676E+02 -0.22833185160E+03  0.24748673783E+03  0.81319369529E+02 0.  0.
          6    2    1    2  501    0  0.37489388558E+02  0.30965592155E+02 -0.30464416914E+03  0.35299675497E+03  0.17156432344E+03 0.  0.
         24    2    5    5    0    0 -0.13035402091E+02 -0.40539225727E+01 -0.61427372518E+02  0.10208716759E+03  0.80387260782E+02 0.  0.
          5    1    5    5  501    0  0.50524790648E+02  0.35019514728E+02 -0.24321679662E+03  0.25090958739E+03  0.47000000000E+01 0. -1.
        -13    1    6    6    0    0  0.15699793798E+02 -0.26081932947E+02  0.39204459996E+00  0.30445105527E+02  0.00000000000E+00 0.  1.
         14    1    6    6    0    0 -0.28735195888E+02  0.22028010375E+02 -0.61819417118E+02  0.71642062063E+02  0.00000000000E+00 0. -1.
         -5    1    3    3    0  503 -0.71238359276E+02  0.59453555210E+01 -0.66844193621E+02  0.97982076450E+02  0.47000000000E+01 0.  1.
         11    1    4    4    0    0  0.23134017740E+01 -0.31921128401E+02 -0.22292550725E+02  0.39003436822E+02  0.00000000000E+00 0. -1.
        -12    1    4    4    0    0  0.31435568945E+02 -0.49898192756E+01 -0.20603930088E+03  0.20848330100E+03  0.00000000000E+00 0.  1.
</event>
<event>
12    1  0.8135779E-002  0.1735534E+03  0.7818608E-02  0.1174410E+00
         21   -1    0    0  501  502  0.00000000000E+00  0.00000000000E+00  0.97630127082E+02  0.97630127082E+02  0.00000000000E+00 0. -1.
         21   -1    0    0  502  503 -0.00000000000E+00 -0.00000000000E+00 -0.40086131054E+03  0.40086131054E+03  0.00000000000E+00 0. -1.
         -6    2    1    2    0  503  0.19817730862E+01 -0.11206192125E+02 -0.27193528190E+03  0.32213888542E+03  0.17232283015E+03 0.  0.
        -24    2    3    3    0    0 -0.15368985136E+02  0.69941175889E+01 -0.45362924927E+02  0.94126993124E+02  0.80727767786E+02 0.  0.
          6    2    1    2  501    0 -0.19817730862E+01  0.11206192125E+02 -0.31295901564E+02  0.17635255221E+03  0.17317991526E+03 0.  0.
         24    2    5    5    0    0 -0.58491477750E+02  0.69474715876E+01 -0.57496352796E+02  0.11374235282E+03  0.78498228709E+02 0.  0.
          5    1    5    5  501    0  0.56509704664E+02  0.42587205372E+01  0.26200451232E+02  0.62610199382E+02  0.47000000000E+01 0. -1.
        -13    1    6    6    0    0 -0.32427141772E+02  0.25395110336E+01  0.15555578326E+02  0.36054745275E+02  0.00000000000E+00 0.  1.
         14    1    6    6    0    0 -0.26064335978E+02  0.44079605539E+01 -0.73051931121E+02  0.77687607550E+02  0.00000000000E+00 0. -1.
         -5    1    3    3    0  503  0.17350758222E+02 -0.18200309714E+02 -0.22657235697E+03  0.22801189229E+03  0.47000000000E+01 0.  1.
         13    1    4    4    0    0 -0.44666090361E+02  0.19517395127E+02 -0.36971323685E+02  0.61178976093E+02  0.00000000000E+00 0. -1.
        -14    1    4    4    0    0  0.29297105225E+02 -0.12523277538E+02 -0.83916012414E+01  0.32948017031E+02  0.00000000000E+00 0.  1.
</event>
<event>
12    1  0.8135779E-002  0.1981938E+03  0.7818608E-02  0.1152547E+00
         21   -1    0    0  503  502  0.00000000000E+00  0.00000000000E+00  0.17803578529E+03  0.17803578529E+03  0.00000000000E+00 0. -1.
         21   -1    0    0  501  503 -0.00000000000E+00 -0.00000000000E+00 -0.23867756332E+03  0.23867756332E+03  0.00000000000E+00 0.  1.
          6    2    1    2  501    0  0.96413968091E+02 -0.68688743785E+01 -0.97533484853E+02  0.22089266951E+03  0.17302588274E+03 0.  0.
         24    2    3    3    0    0  0.15419694204E+02  0.27430231198E+02  0.85092307047E+01  0.83038947873E+02  0.76373263016E+02 0.  0.
         -6    2    1    2    0  502 -0.96413968091E+02  0.68688743785E+01  0.36891706817E+02  0.19582067910E+03  0.16625855062E+03 0.  0.
        -24    2    5    5    0    0 -0.64810644745E+02  0.64111920861E+02  0.46559182440E+02  0.12955540538E+03  0.79410877872E+02 0.  0.
          5    1    3    3  501    0  0.80994273887E+02 -0.34299105577E+02 -0.10604271556E+03  0.13785372163E+03  0.47000000000E+01 0. -1.
        -13    1    4    4    0    0  0.40140211572E+02 -0.63300298452E+01  0.64506590678E+01  0.41145070972E+02  0.00000000000E+00 0.  1.
         14    1    4    4    0    0 -0.24720517368E+02  0.33760261043E+02  0.20585716369E+01  0.41893876902E+02  0.00000000000E+00 0. -1.
         -5    1    5    5    0  502 -0.31603323345E+02 -0.57243046482E+02 -0.96674756233E+01  0.66265273726E+02  0.47000000000E+01 0.  1.
         13    1    6    6    0    0 -0.56935332708E+02  0.41227834453E+02  0.67571418197E+02  0.97505194741E+02  0.00000000000E+00 0. -1.
        -14    1    6    6    0    0 -0.78753120367E+01  0.22884086408E+02 -0.21012235757E+02  0.32050210637E+02  0.00000000000E+00 0.  1.
</event>
<event>
12    1  0.8135779E-002  0.1868097E+03  0.7818608E-02  0.1161423E+00
         21   -1    0    0  503  502  0.00000000000E+00  0.00000000000E+00  0.18103843363E+03  0.18103843363E+03  0.00000000000E+00 0.  1.
         21   -1    0    0  501  503 -0.00000000000E+00 -0.00000000000E+00 -0.19287603925E+03  0.19287603925E+03  0.00000000000E+00 0.  1.
          6    2    1    2  501    0  0.69047017382E+02 -0.19690585682E+02  0.19790176549E+01  0.18659454847E+03  0.17221614104E+03 0.  0.
         24    2    3    3    0    0  0.27397219031E+01 -0.17828335111E+02  0.57014487114E+02  0.10027468801E+03  0.80492271096E+02 0.  0.
         -6    2    1    2    0  502 -0.69047017382E+02  0.19690585682E+02 -0.13816623282E+02  0.18731992441E+03  0.17246056137E+03 0.  0.
        -24    2    5    5    0    0 -0.92058182832E+02  0.35423974225E+02 -0.54188540807E+02  0.13803468346E+03  0.79922518149E+02 0.  0.
          5    1    3    3  501    0  0.66307295478E+02 -0.18622505716E+01 -0.55035469459E+02  0.86319860458E+02  0.47000000000E+01 0. -1.
        -13    1    4    4    0    0  0.35189362372E+02  0.24169144733E+01  0.48696638486E+01  0.35606829762E+02  0.00000000000E+00 0.  1.
         14    1    4    4    0    0 -0.32449640469E+02 -0.20245249584E+02  0.52144823266E+02  0.64667858250E+02  0.00000000000E+00 0. -1.
         -5    1    5    5    0  502  0.23011165451E+02 -0.15733388543E+02  0.40371917526E+02  0.49285240946E+02  0.47000000000E+01 0.  1.
         13    1    6    6    0    0 -0.17639740842E+02 -0.10994926874E+02  0.15567365698E+02  0.25969053673E+02  0.00000000000E+00 0. -1.
        -14    1    6    6    0    0 -0.74418441991E+02  0.46418901099E+02 -0.69755906505E+02  0.11206562979E+03  0.00000000000E+00 0.  1.
</event>
<event>
12    1  0.8135779E-002  0.1929349E+03  0.7818608E-02  0.1156160E+00
         21   -1    0    0  503  502  0.00000000000E+00  0.00000000000E+00  0.61075581665E+03  0.61075581665E+03  0.00000000000E+00 0.  1.
         21   -1    0    0  501  503 -0.00000000000E+00 -0.00000000000E+00 -0.63477151352E+02  0.63477151352E+02  0.00000000000E+00 0.  1.
          6    2    1    2  501    0 -0.76023891082E+02  0.35648806670E+02  0.20152076706E+03  0.27898837565E+03  0.17370499347E+03 0.  0.
         24    2    3    3    0    0 -0.44171528223E+02 -0.32815114825E+02  0.11594536542E+03  0.16476438109E+03  0.10332481719E+03 0.  0.
         -6    2    1    2    0  502  0.76023891082E+02 -0.35648806670E+02  0.34575789824E+03  0.39524459236E+03  0.17210256872E+03 0.  0.
        -24    2    5    5    0    0 -0.21873796791E+02 -0.12426994793E+02  0.10258997019E+03  0.13204136086E+03  0.79229576603E+02 0.  0.
          5    1    3    3  501    0 -0.31852362859E+02  0.68463921495E+02  0.85575401645E+02  0.11422399456E+03  0.47000000000E+01 0. -1.
        -13    1    4    4    0    0 -0.78003900311E+02 -0.20148022653E+02  0.85997004229E+02  0.11783902586E+03  0.00000000000E+00 0.  1.
         14    1    4    4    0    0  0.33832372087E+02 -0.12667092172E+02  0.29948361187E+02  0.46925355225E+02  0.00000000000E+00 0. -1.
         -5    1    5    5    0  502  0.97897687873E+02 -0.23221811877E+02  0.24316792804E+03  0.26320323149E+03  0.47000000000E+01 0.  1.
         11    1    6    6    0    0 -0.23752390427E+02 -0.31023880738E+00  0.11329854983E+03  0.11576196998E+03  0.00000000000E+00 0. -1.
        -12    1    6    6    0    0  0.18785936361E+01 -0.12116755985E+02 -0.10708579640E+02  0.16279390884E+02  0.00000000000E+00 0.  1.
</event>
<event>
12    1  0.8135779E-002  0.2047574E+03  0.7818608E-02  0.1145927E+00
         21   -1    0    0  501  502  0.00000000000E+00  0.00000000000E+00  0.10776625318E+03  0.10776625318E+03  0.00000000000E+00 0. -1.
         21   -1    0    0  502  503 -0.00000000000E+00 -0.00000000000E+00 -0.40326812139E+03  0.40326812139E+03  0.00000000000E+00 0. -1.
         -6    2    1    2    0  503 -0.29996253480E+01  0.11069101326E+03 -0.97850178699E+02  0.22693668432E+03  0.17223270029E+03 0.  0.
        -24    2    3    3    0    0  0.15512211293E+02  0.13245344855E+03 -0.37400219466E+02  0.15990997877E+03  0.79924215127E+02 0.  0.
          6    2    1    2  501    0  0.29996253480E+01 -0.11069101326E+03 -0.19765168952E+03  0.28409769025E+03  0.17141706177E+03 0.  0.
         24    2    5    5    0    0 -0.27183827478E+02 -0.49880203060E+00 -0.47265787053E+02  0.95176082432E+02  0.78007837821E+02 0.  0.
          5    1    5    5  501    0  0.30183452826E+02 -0.11019221123E+03 -0.15038590247E+03  0.18892160782E+03  0.47000000000E+01 0. -1.
        -11    1    6    6    0    0 -0.58504931174E+01  0.17430719630E+00 -0.66311959981E+02  0.66569773090E+02  0.00000000000E+00 0.  1.
         12    1    6    6    0    0 -0.21333334361E+02 -0.67310922689E+00  0.19046172928E+02  0.28606309342E+02  0.00000000000E+00 0. -1.
         -5    1    3    3    0  503 -0.18511836641E+02 -0.21762435285E+02 -0.60449959233E+02  0.67026705548E+02  0.47000000000E+01 0.  1.
         11    1    4    4    0    0 -0.73336560031E-01  0.12165954032E+03 -0.42646530765E+01  0.12173428602E+03  0.00000000000E+00 0. -1.
        -12    1    4    4    0    0  0.15585547853E+02  0.10793908230E+02 -0.33135566389E+02  0.38175692747E+02  0.00000000000E+00 0.  1.
</event>
<event>
12    1  0.8135779E-002  0.2637352E+03  0.7818608E-02  0.1104944E+00
         21   -1    0    0  501  502  0.00000000000E+00  0.00000000000E+00  0.62061379965E+03  0.62061379965E+03  0.00000000000E+00 0.  1.
         21   -1    0    0  502  503 -0.00000000000E+00 -0.00000000000E+00 -0.11642582039E+03  0.11642582039E+03  0.00000000000E+00 0. -1.
         -6    2    1    2    0  503  0.97372710560E+02 -0.17458152874E+03  0.32397637485E+03  0.41775223597E+03  0.17203512506E+03 0.  0.
        -24    2    3    3    0    0  0.61389929395E+02 -0.10087906659E+03  0.88430583710E+02  0.16829137092E+03  0.80973501117E+02 0.  0.
          6    2    1    2  501    0 -0.97372710560E+02  0.17458152874E+03  0.18021160441E+03  0.31928738408E+03  0.17177909165E+03 0.  0.
         24    2    5    5    0    0 -0.13467411717E+03  0.15414981214E+03  0.13950021981E+03  0.26022507110E+03  0.79733894218E+02 0.  0.
          5    1    5    5  501    0  0.37301406607E+02  0.20431716607E+02  0.40711384593E+02  0.59062312974E+02  0.47000000000E+01 0. -1.
        -13    1    6    6    0    0 -0.37104429630E+02  0.31050929835E+02  0.77483278421E+02  0.91348548848E+02  0.00000000000E+00 0.  1.
         14    1    6    6    0    0 -0.97569687538E+02  0.12309888230E+03  0.62016941392E+02  0.16887652226E+03  0.00000000000E+00 0. -1.
         -5    1    3    3    0  503  0.35982781165E+02 -0.73702462155E+02  0.23554579114E+03  0.24946086505E+03  0.47000000000E+01 0.  1.
         11    1    4    4    0    0 -0.49586595375E+01 -0.44121924097E+02  0.63511679937E+02  0.77492360777E+02  0.00000000000E+00 0. -1.
        -12    1    4    4    0    0  0.66348588933E+02 -0.56757142490E+02  0.24918903773E+02  0.90799010139E+02  0.00000000000E+00 0.  1.
</event>
<event>
12    1  0.8135779E-002  0.2364885E+03  0.7818608E-02  0.1122454E+00
         21   -1    0    0  501  502  0.00000000000E+00  0.00000000000E+00  0.48690120225E+03  0.48690120225E+03  0.00000000000E+00 0.  1.
         21   -1    0    0  502  503 -0.00000000000E+00 -0.00000000000E+00 -0.11475702134E+03  0.11475702134E+03  0.00000000000E+00 0. -1.
         -6    2    1    2    0  503  0.34583199754E+02 -0.15723533896E+03  0.16248357780E+03  0.28692807016E+03  0.17322775432E+03 0.  0.
        -24    2    3    3    0    0  0.27451195351E+02 -0.16163080881E+02  0.32908567649E+02  0.95188609580E+02  0.83445097276E+02 0.  0.
          6    2    1    2  501    0 -0.34583199754E+02  0.15723533896E+03  0.20966060311E+03  0.31473015343E+03  0.17081730433E+03 0.  0.
         24    2    5    5    0    0  0.38613082359E+02  0.76168508324E+02  0.14535754257E+03  0.18789758530E+03  0.82970329564E+02 0.  0.
          5    1    5    5  501    0 -0.73196282112E+02  0.81066830640E+02  0.64303060539E+02  0.12683256813E+03  0.47000000000E+01 0. -1.
        -11    1    6    6    0    0  0.62534668168E+02  0.35673132483E+02  0.85571529562E+02  0.11182863576E+03  0.00000000000E+00 0.  1.
         12    1    6    6    0    0 -0.23921585809E+02  0.40495375840E+02  0.59786013011E+02  0.76068949539E+02  0.00000000000E+00 0. -1.
         -5    1    3    3    0  503  0.71320044027E+01 -0.14107225808E+03  0.12957501015E+03  0.19173946058E+03  0.47000000000E+01 0.  1.
         11    1    4    4    0    0  0.23062140040E+02 -0.42534508300E+02 -0.51727580497E+01  0.48660087601E+02  0.00000000000E+00 0. -1.
        -12    1    4    4    0    0  0.43890553112E+01  0.26371427419E+02  0.38081325699E+02  0.46528521979E+02  0.00000000000E+00 0.  1.
</event>
<event>
12    1  0.8135779E-002  0.1772556E+03  0.7818608E-02  0.1172247E+00
         21   -1    0    0  503  502  0.00000000000E+00  0.00000000000E+00  0.24511770093E+03  0.24511770093E+03  0.00000000000E+00 0. -1.
         21   -1    0    0  501  503 -0.00000000000E+00 -0.00000000000E+00 -0.15766906316E+03  0.15766906316E+03  0.00000000000E+00 0. -1.
          6    2    1    2  501    0 -0.39294979687E+02  0.86627757536E+01 -0.49762393336E+02  0.18410820627E+03  0.17262791406E+03 0.  0.
         24    2    3    3    0    0 -0.40631765745E+02  0.66672316612E+02 -0.57433791452E+02  0.12538994526E+03  0.79547845860E+02 0.  0.
         -6    2    1    2    0  502  0.39294979687E+02 -0.86627757536E+01  0.13721103111E+03  0.21867855782E+03  0.16545182223E+03 0.  0.
        -24    2    5    5    0    0  0.39431144161E+02 -0.26413927280E+02  0.16264134392E+03  0.18731117459E+03  0.79879651286E+02 0.  0.
          5    1    3    3  501    0  0.13367860583E+01 -0.58009540859E+02  0.76713981156E+01  0.58718261015E+02  0.47000000000E+01 0. -1.
        -11    1    4    4    0    0 -0.76825092585E+01  0.11191924405E+02  0.20264490508E+02  0.24391180700E+02  0.00000000000E+00 0.  1.
         12    1    4    4    0    0 -0.32949256487E+02  0.55480392208E+02 -0.77698281960E+02  0.10099876456E+03  0.00000000000E+00 0. -1.
         -5    1    5    5    0  502 -0.13616447404E+00  0.17751151526E+02 -0.25430312807E+02  0.31367383231E+02  0.47000000000E+01 0.  1.
         13    1    6    6    0    0  0.24565824911E+02 -0.91197029758E+01  0.16240452275E+03  0.16450494748E+03  0.00000000000E+00 0. -1.
        -14    1    6    6    0    0  0.14865319250E+02 -0.17294224304E+02  0.23682117042E+00  0.22806227109E+02  0.00000000000E+00 0.  1.
</event>
<event>
12    1  0.8135779E-002  0.1781847E+03  0.7818608E-02  0.1170389E+00
         21   -1    0    0  503  502  0.00000000000E+00  0.00000000000E+00  0.19008766082E+03  0.19008766082E+03  0.00000000000E+00 0.  1.
         21   -1    0    0  501  503 -0.00000000000E+00 -0.00000000000E+00 -0.23791306974E+03  0.23791306974E+03  0.00000000000E+00 0.  1.
          6    2    1    2  501    0 -0.83429411515E+01  0.32192258484E+02  0.95252732832E+02  0.20204674056E+03  0.17505386624E+03 0.  0.
         24    2    3    3    0    0  0.47090857085E+02 -0.33260877203E+02  0.48239228834E+02  0.10412136838E+03  0.72044440330E+02 0.  0.
         -6    2    1    2    0  502  0.83429411515E+01 -0.32192258484E+02 -0.14307814175E+03  0.22595398999E+03  0.17169130663E+03 0.  0.
        -24    2    5    5    0    0  0.54177846564E+02 -0.64626091174E+02 -0.81722023730E+02  0.14265059704E+03  0.80987239463E+02 0.  0.
          5    1    3    3  501    0 -0.55433798237E+02  0.65453135688E+02  0.47013503999E+02  0.97925372180E+02  0.47000000000E+01 0. -1.
        -13    1    4    4    0    0  0.27836704072E+02  0.20863142660E+02  0.19658459287E+02  0.39957575461E+02  0.00000000000E+00 0.  1.
         14    1    4    4    0    0  0.19254153013E+02 -0.54124019863E+02  0.28580769547E+02  0.64163792923E+02  0.00000000000E+00 0. -1.
         -5    1    5    5    0  502 -0.45834905412E+02  0.32433832690E+02 -0.61356118025E+02  0.83303392945E+02  0.47000000000E+01 0.  1.
         11    1    6    6    0    0  0.61177811828E+02 -0.30870408873E+02 -0.83636223360E+02  0.10812365450E+03  0.00000000000E+00 0. -1.
        -12    1    6    6    0    0 -0.69999652648E+01 -0.33755682302E+02  0.19141996306E+01  0.34526942546E+02  0.00000000000E+00 0.  1.
</event>
<event>
12    1  0.8135779E-002  0.2875673E+03  0.7818608E-02  0.1091713E+00
         21   -1    0    0  501  502  0.00000000000E+00  0.00000000000E+00  0.16150360104E+04  0.16150360104E+04  0.00000000000E+00 0. -1.
         21   -1    0    0  502  503 -0.00000000000E+00 -0.00000000000E+00 -0.88485974360E+02  0.88485974360E+02  0.00000000000E+00 0.  1.
         -6    2    1    2    0  503  0.16605453655E+03 -0.15929653358E+03  0.20901407382E+03  0.35496869685E+03  0.17136626848E+03 0.  0.
        -24    2    3    3    0    0  0.17090048031E+03 -0.77255202957E+02  0.13205374192E+03  0.24227776649E+03  0.78006312722E+02 0.  0.
          6    2    1    2  501    0 -0.16605453655E+03  0.15929653358E+03  0.13175359623E+04  0.13485532880E+04  0.17246873298E+03 0.  0.
         24    2    5    5    0    0 -0.79318918001E+02  0.16640788133E+03  0.88920082297E+03  0.91144149407E+03  0.77874384894E+02 0.  0.
          5    1    5    5  501    0 -0.86735618549E+02 -0.71113477508E+01  0.42833513929E+03  0.43711179388E+03  0.47000000000E+01 0. -1.
        -13    1    6    6    0    0  0.13596444114E+02  0.43972040680E+02  0.22988959377E+03  0.23445176258E+03  0.00000000000E+00 0.  1.
         14    1    6    6    0    0 -0.92915362114E+02  0.12243584065E+03  0.65931122920E+03  0.67698973149E+03  0.00000000000E+00 0. -1.
         -5    1    3    3    0  503 -0.48459437621E+01 -0.82041330621E+02  0.76960331895E+02  0.11269093036E+03  0.47000000000E+01 0.  1.
         13    1    4    4    0    0  0.14461294403E+03 -0.74172441117E+02  0.14014127841E+03  0.21460203288E+03  0.00000000000E+00 0. -1.
        -14    1    4    4    0    0  0.26287536283E+02 -0.30827618401E+01 -0.80875364867E+01  0.27675733610E+02  0.00000000000E+00 0.  1.
</event>
<event>
12    1  0.8135779E-002  0.1814273E+03  0.7818608E-02  0.1166970E+00
         21   -1    0    0  503  502  0.00000000000E+00  0.00000000000E+00  0.14675013560E+03  0.14675013560E+03  0.00000000000E+00 0. -1.
         21   -1    0    0  501  503 -0.00000000000E+00 -0.00000000000E+00 -0.23319708462E+03  0.23319708462E+03  0.00000000000E+00 0.  1.
          6    2    1    2  501    0 -0.53554079580E+02 -0.26947402837E+01 -0.48417394721E+00  0.17918499267E+03  0.17097288120E+03 0.  0.
         24    2    3    3    0    0 -0.50784049758E+02  0.60304593855E+02 -0.19105658598E+02  0.11326504987E+03  0.79046072530E+02 0.  0.
         -6    2    1    2    0  502  0.53554079580E+02  0.26947402837E+01 -0.85962775074E+02  0.20076222755E+03  0.17332216317E+03 0.  0.
        -24    2    5    5    0    0  0.56376849660E+01  0.14084447242E+02  0.20212187894E+02  0.83625900736E+02  0.79715767503E+02 0.  0.
          5    1    3    3  501    0 -0.27700298226E+01 -0.62999334139E+02  0.18621484650E+02  0.65919942792E+02  0.47000000000E+01 0. -1.
        -11    1    4    4    0    0  0.12935759760E+02  0.14817867398E+02 -0.28271267551E+02  0.34440784598E+02  0.00000000000E+00 0.  1.
         12    1    4    4    0    0 -0.63719809517E+02  0.45486726457E+02  0.91656089529E+01  0.78824265275E+02  0.00000000000E+00 0. -1.
         -5    1    5    5    0  502  0.47916394614E+02 -0.11389706958E+02 -0.10617496297E+03  0.11713632681E+03  0.47000000000E+01 0.  1.
         13    1    6    6    0    0 -0.15794819684E+02  0.11935613791E+02 -0.25977069989E+02  0.32661037501E+02  0.00000000000E+00 0. -1.
        -14    1    6    6    0    0  0.21432504650E+02  0.21488334503E+01  0.46189257883E+02  0.50964863235E+02  0.00000000000E+00 0.  1.
</event>
<event>
12    1  0.8135779E-002  0.2361930E+03  0.7818608E-02  0.1124656E+00
         21   -1    0    0  503  502  0.00000000000E+00  0.00000000000E+00  0.48581526541E+03  0.48581526541E+03  0.00000000000E+00 0.  1.
         21   -1    0    0  501  503 -0.00000000000E+00 -0.00000000000E+00 -0.21257755605E+03  0.21257755605E+03  0.00000000000E+00 0. -1.
          6    2    1    2  501    0  0.87566121769E+01 -0.16197361836E+03 -0.10562703878E+03  0.25873576122E+03  0.17168282241E+03 0.  0.
         24    2    3    3    0    0  0.43334551267E+02 -0.11496408837E+03 -0.98761546744E+01  0.14650451963E+03  0.79192240104E+02 0.  0.
         -6    2    1    2    0  502 -0.87566121769E+01  0.16197361836E+03  0.37886474814E+03  0.43965706024E+03  0.15312642466E+03 0.  0.
        -24    2    5    5    0    0 -0.53576631792E+02  0.60249719184E+02  0.20523996763E+03  0.23344299614E+03  0.76627044826E+02 0.  0.
          5    1    3    3  501    0 -0.34577939090E+02 -0.47009529993E+02 -0.95750884107E+02  0.11223124159E+03  0.47000000000E+01 0. -1.
        -11    1    4    4    0    0  0.47823454830E+02 -0.23502723359E+02 -0.13111336686E+02  0.54875932675E+02  0.00000000000E+00 0.  1.
         12    1    4    4    0    0 -0.44889035635E+01 -0.91461365012E+02  0.32351820114E+01  0.91628586956E+02  0.00000000000E+00 0. -1.
         -5    1    5    5    0  502  0.44820019615E+02  0.10172389918E+03  0.17362478051E+03  0.20621406410E+03  0.47000000000E+01 0.  1.
         11    1    6    6    0    0 -0.13348249424E+02  0.13719338356E+02 -0.44521137958E-01  0.19141525272E+02  0.00000000000E+00 0. -1.
        -12    1    6    6    0    0 -0.40228382368E+02  0.46530380828E+02  0.20528448877E+03  0.21430147087E+03  0.00000000000E+00 0.  1.
</event>
<event>
12    1  0.8135779E-002  0.1964655E+03  0.7818608E-02  0.1152896E+00
         21   -1    0    0  503  502  0.00000000000E+00  0.00000000000E+00  0.11851400692E+03  0.11851400692E+03  0.00000000000E+00 0.  1.
         21   -1    0    0  501  503 -0.00000000000E+00 -0.00000000000E+00 -0.37083404418E+03  0.37083404418E+03  0.00000000000E+00 0. -1.
          6    2    1    2  501    0  0.95879340632E+02 -0.56746465214E+01 -0.39594491757E+02  0.19977795837E+03  0.17064131768E+03 0.  0.
         24    2    3    3    0    0  0.12869525668E+03  0.19575928128E+02 -0.31221338833E+02  0.15727295212E+03  0.82548915287E+02 0.  0.
         -6    2    1    2    0  502 -0.95879340632E+02  0.56746465214E+01 -0.21272554550E+03  0.28957009274E+03  0.17138737214E+03 0.  0.
        -24    2    5    5    0    0  0.63931684009E+01 -0.18564395365E+02 -0.13519640681E+03  0.15887940982E+03  0.81111584088E+02 0.  0.
          5    1    3    3  501    0 -0.32815916050E+02 -0.25250574649E+02 -0.83731529247E+01  0.42505006249E+02  0.47000000000E+01 0. -1.
        -13    1    4    4    0    0  0.68496527048E+02 -0.11455432540E+02  0.20100120825E+02  0.72298105159E+02  0.00000000000E+00 0.  1.
         14    1    4    4    0    0  0.60198729633E+02  0.31031360668E+02 -0.51321459658E+02  0.84974846959E+02  0.00000000000E+00 0. -1.
         -5    1    5    5    0  502 -0.10227250903E+03  0.24239041886E+02 -0.77529138688E+02  0.13069068292E+03  0.47000000000E+01 0.  1.
         13    1    6    6    0    0 -0.21154381829E+02 -0.40228614009E+01 -0.12387986716E+03  0.12573747561E+03  0.00000000000E+00 0. -1.
        -14    1    6    6    0    0  0.27547550230E+02 -0.14541533964E+02 -0.11316539649E+02  0.33141934213E+02  0.00000000000E+00 0.  1.
</event>
<event>
12    1  0.8135779E-002  0.1791964E+03  0.7818608E-02  0.1168938E+00
         21   -1    0    0  503  502  0.00000000000E+00  0.00000000000E+00  0.46866504311E+03  0.46866504311E+03  0.00000000000E+00 0. -1.
         21   -1    0    0  501  503 -0.00000000000E+00 -0.00000000000E+00 -0.67962963746E+02  0.67962963746E+02  0.00000000000E+00 0. -1.
          6    2    1    2  501    0 -0.51897376319E+02  0.52367031974E+01  0.20026875704E+03  0.26776953290E+03  0.16991817730E+03 0.  0.
         24    2    3    3    0    0 -0.92933519830E+02  0.18460021257E+02  0.18303670962E+03  0.22110204237E+03  0.80039144029E+02 0.  0.
         -6    2    1    2    0  502  0.51897376319E+02 -0.52367031974E+01  0.20043332233E+03  0.26885847395E+03  0.17143687348E+03 0.  0.
        -24    2    5    5    0    0 -0.11461516495E+00  0.56099851549E+02  0.87970868936E+02  0.13052079424E+03  0.78419369205E+02 0.  0.
          5    1    3    3  501    0  0.41036143511E+02 -0.13223318060E+02  0.17232047411E+02  0.46667490534E+02  0.47000000000E+01 0. -1.
        -11    1    4    4    0    0 -0.90691708912E+02  0.81745758805E+01  0.91948769598E+02  0.12940782815E+03  0.00000000000E+00 0.  1.
         12    1    4    4    0    0 -0.22418109180E+01  0.10285445377E+02  0.91087940027E+02  0.91694214218E+02  0.00000000000E+00 0. -1.
         -5    1    5    5    0  502  0.52011991484E+02 -0.61336554747E+02  0.11246245339E+03  0.13833767972E+03  0.47000000000E+01 0.  1.
         11    1    6    6    0    0  0.11492656142E+02  0.38927613380E+02  0.99031932323E+02  0.10702693048E+03  0.00000000000E+00 0. -1.
        -12    1    6    6    0    0 -0.11607271307E+02  0.17172238170E+02 -0.11061063387E+02  0.23493863756E+02  0.00000000000E+00 0.  1.
</event>
<event>
12    1  0.8135779E-002  0.1753672E+03  0.7818608E-02  0.1173085E+00
         21   -1    0    0  501  502  0.00000000000E+00  0.00000000000E+00  0.39225253888E+03  0.39225253888E+03  0.00000000000E+00 0.  1.
         21   -1    0    0  502  503 -0.00000000000E+00 -0.00000000000E+00 -0.13439767583E+03  0.13439767583E+03  0.00000000000E+00 0.  1.
         -6    2    1    2    0  503  0.12514305603E+01 -0.26072536596E+02 -0.42350336660E+02  0.18040839847E+03  0.17341365569E+03 0.  0.
        -24    2    3    3    0    0 -0.29547193825E+02  0.44311467782E+02 -0.15844344924E+01  0.93308386324E+02  0.76598966610E+02 0.  0.
          6    2    1    2  501    0 -0.12514305603E+01  0.26072536596E+02  0.30020519972E+03  0.34624181624E+03  0.17052533575E+03 0.  0.
         24    2    5    5    0    0  0.40094922647E+02  0.65997612830E+02  0.22755565308E+03  0.25348633520E+03  0.80687416390E+02 0.  0.
          5    1    5    5  501    0 -0.41346353207E+02 -0.39925076233E+02  0.72649546638E+02  0.92755481038E+02  0.47000000000E+01 0. -1.
        -11    1    6    6    0    0  0.12171997816E+02 -0.16051323682E+02  0.78700569173E+02  0.81237812076E+02  0.00000000000E+00 0.  1.
         12    1    6    6    0    0  0.27922924831E+02  0.82048936511E+02  0.14885508391E+03  0.17224852312E+03  0.00000000000E+00 0. -1.
         -5    1    3    3    0  503  0.30798624386E+02 -0.70384004378E+02 -0.40765902168E+02  0.87100012146E+02  0.47000000000E+01 0.  1.
         11    1    4    4    0    0  0.16498388272E+02  0.37582919538E+02  0.15302377514E+02  0.43804513628E+02  0.00000000000E+00 0. -1.
        -12    1    4    4    0    0 -0.46045582097E+02  0.67285482433E+01 -0.16886812007E+02  0.49503872696E+02  0.00000000000E+00 0.  1.
</event>
<event>
12    1  0.8135779E-002  0.1875058E+03  0.7818608E-02  0.1161836E+00
         21   -1    0    0  501  502  0.00000000000E+00  0.00000000000E+00  0.34295941520E+02  0.34295941520E+02  0.00000000000E+00 0.  1.
         21   -1    0    0  502  503 -0.00000000000E+00 -0.00000000000E+00 -0.14151989338E+04  0.14151989338E+04  0.00000000000E+00 0.  1.
         -6    2    1    2    0  503  0.42176839089E+02 -0.45636490808E+02 -0.10895653860E+04  0.11055818205E+04  0.17690917576E+03 0.  0.
        -24    2    3    3    0    0 -0.58377899141E+01 -0.89253044284E+02 -0.64198177235E+03  0.65329762941E+03  0.81590507101E+02 0.  0.
          6    2    1    2  501    0 -0.42176839089E+02  0.45636490808E+02 -0.29133760632E+03  0.34391305483E+03  0.17186335670E+03 0.  0.
         24    2    5    5    0    0  0.18828215402E+02  0.66010480693E+02 -0.23697770969E+03  0.25956968224E+03  0.80660397924E+02 0.  0.
          5    1    5    5  501    0 -0.61005054491E+02 -0.20373989885E+02 -0.54359896627E+02  0.84343372583E+02  0.47000000000E+01 0. -1.
        -13    1    6    6    0    0  0.15962350665E+01  0.52931810272E+02 -0.55144688387E+02  0.76454307677E+02  0.00000000000E+00 0.  1.
         14    1    6    6    0    0  0.17231980336E+02  0.13078670421E+02 -0.18183302130E+03  0.18311537457E+03  0.00000000000E+00 0. -1.
         -5    1    3    3    0  503  0.48014629003E+02  0.43616553476E+02 -0.44758361360E+03  0.45228419108E+03  0.47000000000E+01 0.  1.
         11    1    4    4    0    0 -0.14761956463E+02  0.98555627143E+01 -0.17097855858E+03  0.17189739663E+03  0.00000000000E+00 0. -1.
        -12    1    4    4    0    0  0.89241665493E+01 -0.99108606998E+02 -0.47100321378E+03  0.48140023278E+03  0.00000000000E+00 0.  1.
</event>
<event>
12    1  0.8135779E-002  0.2654813E+03  0.7818608E-02  0.1104584E+00
         21   -1    0    0  501  502  0.00000000000E+00  0.00000000000E+00  0.14981370466E+03  0.14981370466E+03  0.00000000000E+00 0.  1.
         21   -1    0    0  502  503 -0.00000000000E+00 -0.00000000000E+00 -0.49627047339E+03  0.49627047339E+03  0.00000000000E+00 0. -1.
         -6    2    1    2    0  503 -0.14486548225E+03 -0.13174758328E+03 -0.87164951613E+02  0.27498775462E+03  0.17227043494E+03 0.  0.
        -24    2    3    3    0    0 -0.38252895424E+02 -0.11147961156E+03 -0.87436853830E+02  0.16636364000E+03  0.78362424048E+02 0.  0.
          6    2    1    2  501    0  0.14486548225E+03  0.13174758328E+03 -0.25929181711E+03  0.37109642343E+03  0.17926760837E+03 0.  0.
         24    2    5    5    0    0  0.16947298802E+02  0.58259679044E+02 -0.44971777395E+02  0.11086824826E+03  0.81165920011E+02 0.  0.
          5    1    5    5  501    0  0.12791818344E+03  0.73487904240E+02 -0.21432003972E+03  0.26022817517E+03  0.47000000000E+01 0. -1.
        -13    1    6    6    0    0 -0.18782770064E+02 -0.11781229726E+02 -0.14761377377E+02  0.26636217584E+02  0.00000000000E+00 0.  1.
         14    1    6    6    0    0  0.35730068866E+02  0.70040908771E+02 -0.30210400018E+02  0.84232030676E+02  0.00000000000E+00 0. -1.
         -5    1    3    3    0  503 -0.10661258682E+03 -0.20267971719E+02  0.27190221729E+00  0.10862411462E+03  0.47000000000E+01 0.  1.
         13    1    4    4    0    0  0.19103596733E+02 -0.30837754822E+02 -0.32167616669E+01  0.36417881408E+02  0.00000000000E+00 0. -1.
        -14    1    4    4    0    0 -0.57356492158E+02 -0.80641856743E+02 -0.84220092163E+02  0.12994575859E+03  0.00000000000E+00 0.  1.
</event>
<event>
12    1  0.8135779E-002  0.1904099E+03  0.7818608E-02  0.1158108E+00
         21   -1    0    0  503  502  0.00000000000E+00  0.00000000000E+00  0.22347114480E+03  0.22347114480E+03  0.00000000000E+00 0. -1.
         21   -1    0    0  501  503 -0.00000000000E+00 -0.00000000000E+00 -0.17270220715E+03  0.17270220715E+03  0.00000000000E+00 0. -1.
          6    2    1    2  501    0  0.70266145311E+02 -0.39859976982E+02 -0.23506169923E+02  0.19185535681E+03  0.17242328431E+03 0.  0.
         24    2    3    3    0    0  0.98313322962E+02 -0.43644262677E+02  0.25249393665E+02  0.13528540036E+03  0.78065847418E+02 0.  0.
         -6    2    1    2    0  502 -0.70266145311E+02  0.39859976982E+02  0.74275107572E+02  0.20431799514E+03  0.17234530046E+03 0.  0.
        -24    2    5    5    0    0  0.88324527506E+01 -0.16465610770E+02  0.68420357773E+02  0.10692431903E+03  0.80014599180E+02 0.  0.
          5    1    3    3  501    0 -0.28047177651E+02  0.37842856949E+01 -0.48755563588E+02  0.56569956454E+02  0.47000000000E+01 0. -1.
        -13    1    4    4    0    0 -0.24488098631E+00 -0.25198258924E+02 -0.12520025605E+02  0.28138288161E+02  0.00000000000E+00 0.  1.
         14    1    4    4    0    0  0.98558203948E+02 -0.18446003753E+02  0.37769419270E+02  0.10714711220E+03  0.00000000000E+00 0. -1.
         -5    1    5    5    0  502 -0.79098598061E+02  0.56325587752E+02  0.58547497986E+01  0.97393676110E+02  0.47000000000E+01 0.  1.
         11    1    6    6    0    0 -0.98066066214E+00 -0.41176219540E+02  0.94802643876E+01  0.42264857314E+02  0.00000000000E+00 0. -1.
        -12    1    6    6    0    0  0.98131134127E+01  0.24710608770E+02  0.58940093386E+02  0.64659461713E+02  0.00000000000E+00 0.  1.
</event>
<event>
12    1  0.8135779E-002  0.2588169E+03  0.7818608E-02  0.1108062E+00
         21   -1    0    0  503  502  0.00000000000E+00  0.00000000000E+00  0.21157362527E+03  0.21157362527E+03  0.00000000000E+00 0. -1.
         21   -1    0    0  501  503 -0.00000000000E+00 -0.00000000000E+00 -0.35298502445E+03  0.35298502445E+03  0.00000000000E+00 0.  1.
          6    2    1    2  501    0 -0.14295102726E+03  0.12686924093E+03 -0.16353673821E+03  0.30615426616E+03  0.17451466830E+03 0.  0.
         24    2    3    3    0    0 -0.13469606014E+03  0.10678729471E+03 -0.57601883987E+02  0.19791512173E+03  0.79409466958E+02 0.  0.
         -6    2    1    2    0  502  0.14295102726E+03 -0.12686924093E+03  0.22125339037E+02  0.25840438356E+03  0.17248911365E+03 0.  0.
        -24    2    5    5    0    0  0.42031380172E+02 -0.11479818258E+03  0.47239577936E+02  0.15360314018E+03  0.80106724481E+02 0.  0.
          5    1    3    3  501    0 -0.82549671196E+01  0.20081946214E+02 -0.10593485422E+03  0.10823914442E+03  0.47000000000E+01 0. -1.
        -13    1    4    4    0    0 -0.77526687936E+02  0.45886263589E+02 -0.69180423950E+02  0.11358638821E+03  0.00000000000E+00 0.  1.
         14    1    4    4    0    0 -0.57169372207E+02  0.60901031122E+02  0.11578539963E+02  0.84328733525E+02  0.00000000000E+00 0. -1.
         -5    1    5    5    0  502  0.10091964709E+03 -0.12071058341E+02 -0.25114238899E+02  0.10480124338E+03  0.47000000000E+01 0.  1.
         13    1    6    6    0    0  0.52086831482E+02 -0.35606198442E+02  0.36943581878E+02  0.73114072677E+02  0.00000000000E+00 0. -1.
        -14    1    6    6    0    0 -0.10055451311E+02 -0.79191984142E+02  0.10295996058E+02  0.80489067508E+02  0.00000000000E+00 0.  1.
</event>
<event>
12    1  0.8135779E-002  0.1805920E+03  0.7818608E-02  0.1168223E+00
         21   -1    0    0  503  502  0.00000000000E+00  0.00000000000E+00  0.23946360027E+03  0.23946360027E+03  0.00000000000E+00 0.  1.
         21   -1    0    0  501  503 -0.00000000000E+00 -0.00000000000E+00 -0.21829943976E+03  0.21829943976E+03  0.00000000000E+00 0. -1.
          6    2    1    2  501    0  0.46940971182E+02 -0.26953797037E+02 -0.13229062445E+03  0.22386220728E+03  0.17228904951E+03 0.  0.
         24    2    3    3    0    0 -0.34239094463E+02  0.85801011650E+01 -0.89115547964E+02  0.12517564179E+03  0.80507308255E+02 0.  0.
         -6    2    1    2    0  502 -0.46940971182E+02  0.26953797037E+02  0.15345478496E+03  0.23390083275E+03  0.16802162534E+03 0.  0.
        -24    2    5    5    0    0  0.24824664913E+02  0.30284335808E+02  0.34896056444E+02  0.95193727235E+02  0.79439951952E+02 0.  0.
          5    1    3    3  501    0  0.81180065645E+02 -0.35533898202E+02 -0.43175076484E+02  0.98686565494E+02  0.47000000000E+01 0. -1.
        -11    1    4    4    0    0  0.21166608972E+02 -0.23442806775E+01 -0.20436012264E+01  0.21393861111E+02  0.00000000000E+00 0.  1.
         12    1    4    4    0    0 -0.55405703435E+02  0.10924381842E+02 -0.87071946738E+02  0.10378178068E+03  0.00000000000E+00 0. -1.
         -5    1    5    5    0  502 -0.71765636094E+02 -0.33305387712E+01  0.11855872852E+03  0.13870710552E+03  0.47000000000E+01 0.  1.
         13    1    6    6    0    0  0.21377853879E+02  0.37665439315E+00 -0.22090752667E+02  0.30743387231E+02  0.00000000000E+00 0. -1.
        -14    1    6    6    0    0  0.34468110336E+01  0.29907681415E+02  0.56986809111E+02  0.64450340004E+02  0.00000000000E+00 0.  1.
</event>
<event>
12    1  0.8135779E-002  0.1751453E+03  0.7818608E-02  0.1173185E+00
         21   -1    0    0  501  502  0.00000000000E+00  0.00000000000E+00  0.58272163369E+03  0.58272163369E+03  0.00000000000E+00 0.  1.
         21   -1    0    0  502  503 -0.00000000000E+00 -0.00000000000E+00 -0.51943150776E+02  0.51943150776E+02  0.00000000000E+00 0.  1.
         -6    2    1    2    0  503  0.11265666530E+02 -0.86726493582E+01  0.27177335953E+03  0.32332126861E+03  0.17456733284E+03 0.  0.
        -24    2    3    3    0    0 -0.17019861052E+02  0.53384579583E+02  0.20684764031E+03  0.22904184481E+03  0.80837066791E+02 0.  0.
          6    2    1    2  501    0 -0.11265666530E+02  0.86726493582E+01  0.25900512338E+03  0.31134351586E+03  0.17218885225E+03 0.  0.
         24    2    5    5    0    0 -0.42270276650E+02 -0.43904040581E+02  0.21367510417E+03  0.23516940729E+03  0.77027650337E+02 0.  0.
          5    1    5    5  501    0  0.31004610120E+02  0.52576689940E+02  0.45330019213E+02  0.76174108564E+02  0.47000000000E+01 0. -1.
        -11    1    6    6    0    0 -0.40817021805E+01 -0.57249550817E+02  0.13529296781E+03  0.14696379996E+03  0.00000000000E+00 0.  1.
         12    1    6    6    0    0 -0.38188574470E+02  0.13345510235E+02  0.78382136365E+02  0.88205607331E+02  0.00000000000E+00 0. -1.
         -5    1    3    3    0  503  0.28285527582E+02 -0.62057228941E+02  0.64925719222E+02  0.94279423794E+02  0.47000000000E+01 0.  1.
         11    1    4    4    0    0 -0.20961900969E+02 -0.67549908645E+01  0.12756663516E+03  0.12945376626E+03  0.00000000000E+00 0. -1.
        -12    1    4    4    0    0  0.39420399169E+01  0.60139570447E+02  0.79281005153E+02  0.99588078555E+02  0.00000000000E+00 0.  1.
</event>
<event>
12    1  0.8135779E-002  0.4885356E+03  0.7818608E-02  0.1016832E+00
         21   -1    0    0  503  502  0.00000000000E+00  0.00000000000E+00  0.78636669003E+03  0.78636669003E+03  0.00000000000E+00 0. -1.
         21   -1    0    0  501  503 -0.00000000000E+00 -0.00000000000E+00 -0.28199256384E+04  0.28199256384E+04  0.00000000000E+00 0.  1.
          6    2    1    2  501    0  0.45700571779E+03 -0.84473293987E+00 -0.27202099686E+04  0.27637310483E+04  0.17266179333E+03 0.  0.
         24    2    3    3    0    0  0.20546074185E+03 -0.24007346059E+02 -0.98386336913E+03  0.10090991824E+04  0.86623101661E+02 0.  0.
         -6    2    1    2    0  502 -0.45700571779E+03  0.84473293987E+00  0.68665102019E+03  0.84256128008E+03  0.17194460587E+03 0.  0.
        -24    2    5    5    0    0 -0.18484530650E+03 -0.40876828088E+02  0.23765160145E+03  0.31584072214E+03  0.86246018325E+02 0.  0.
          5    1    3    3  501    0  0.25154497593E+03  0.23162613119E+02 -0.17363465994E+04  0.17546318659E+04  0.47000000000E+01 0. -1.
        -13    1    4    4    0    0  0.93579050483E+02 -0.35926241140E+02 -0.62570981396E+03  0.63368801849E+03  0.00000000000E+00 0.  1.
         14    1    4    4    0    0  0.11188169137E+03  0.11918895081E+02 -0.35815355516E+03  0.37541116392E+03  0.00000000000E+00 0. -1.
         -5    1    5    5    0  502 -0.27216041129E+03  0.41721561028E+02  0.44899941874E+03  0.52672055794E+03  0.47000000000E+01 0.  1.
         13    1    6    6    0    0 -0.17432217377E+03 -0.28624097295E+02  0.24152107623E+03  0.29923233361E+03  0.00000000000E+00 0. -1.
        -14    1    6    6    0    0 -0.10523132735E+02 -0.12252730793E+02 -0.38694747795E+01  0.16608388528E+02  0.00000000000E+00 0.  1.
</event>
<event>
12    1  0.8135779E-002  0.3164542E+03  0.7818608E-02  0.1077446E+00
         21   -1    0    0  503  502  0.00000000000E+00  0.00000000000E+00  0.22668293795E+03  0.22668293795E+03  0.00000000000E+00 0.  1.
         21   -1    0    0  501  503 -0.00000000000E+00 -0.00000000000E+00 -0.56021252043E+03  0.56021252043E+03  0.00000000000E+00 0.  1.
          6    2    1    2  501    0  0.25522063600E+03  0.75277955249E+02  0.15259592969E+02  0.31682188155E+03  0.17128603523E+03 0.  0.
         24    2    3    3    0    0  0.26604610876E+03  0.49200960432E+02 -0.64044220308E+01  0.28092452698E+03  0.75341268535E+02 0.  0.
         -6    2    1    2    0  502 -0.25522063600E+03 -0.75277955249E+02 -0.34878917545E+03  0.47007357684E+03  0.16885181415E+03 0.  0.
        -24    2    5    5    0    0 -0.23383590631E+03 -0.91026415864E+02 -0.23616596586E+03  0.35426598635E+03  0.82249536100E+02 0.  0.
          5    1    3    3  501    0 -0.10825472760E+02  0.26076994817E+02  0.21664014999E+02  0.35897354569E+02  0.47000000000E+01 0. -1.
        -13    1    4    4    0    0  0.81220256542E+02 -0.13873501188E+02  0.17318189117E+02  0.84196934518E+02  0.00000000000E+00 0.  1.
         14    1    4    4    0    0  0.18482585221E+03  0.63074461620E+02 -0.23722611148E+02  0.19672759246E+03  0.00000000000E+00 0. -1.
         -5    1    5    5    0  502 -0.21384729689E+02  0.15748460615E+02 -0.11262320960E+03  0.11580759049E+03  0.47000000000E+01 0.  1.
         13    1    6    6    0    0 -0.11356482590E+03 -0.23869392498E+02 -0.15750332882E+03  0.19563746106E+03  0.00000000000E+00 0. -1.
        -14    1    6    6    0    0 -0.12027108040E+03 -0.67157023366E+02 -0.78662637039E+02  0.15862852529E+03  0.00000000000E+00 0.  1.
</event>
<event>
12    1  0.8135779E-002  0.1738123E+03  0.7818608E-02  0.1173958E+00
         21   -1    0    0  503  502  0.00000000000E+00  0.00000000000E+00  0.19285636765E+04  0.19285636765E+04  0.00000000000E+00 0. -1.
         21   -1    0    0  501  503 -0.00000000000E+00 -0.00000000000E+00 -0.35760686857E+02  0.35760686857E+02  0.00000000000E+00 0. -1.
          6    2    1    2  501    0 -0.13034446808E+02  0.26937118722E+02  0.20981830982E+03  0.27238814746E+03  0.17110252649E+03 0.  0.
         24    2    3    3    0    0 -0.40439928021E+02 -0.42913531467E+02  0.12840108233E+03  0.16156834478E+03  0.78361553909E+02 0.  0.
         -6    2    1    2    0  502  0.13034446808E+02 -0.26937118722E+02  0.16829846798E+04  0.16919362159E+04  0.17121688290E+03 0.  0.
        -24    2    5    5    0    0  0.92124607903E+01 -0.16847601386E+01  0.16382746187E+04  0.16402315860E+04  0.79550119175E+02 0.  0.
          5    1    3    3  501    0  0.27405481213E+02  0.69850650189E+02  0.81417227497E+02  0.11081980268E+03  0.47000000000E+01 0. -1.
        -11    1    4    4    0    0 -0.17567463081E+02 -0.17782932352E+02  0.12493505255E+03  0.12741120751E+03  0.00000000000E+00 0.  1.
         12    1    4    4    0    0 -0.22872464939E+02 -0.25130599115E+02  0.34660297737E+01  0.34157137273E+02  0.00000000000E+00 0. -1.
         -5    1    5    5    0  502  0.38219860173E+01 -0.25252358583E+02  0.44710061097E+02  0.51704629913E+02  0.47000000000E+01 0.  1.
         11    1    6    6    0    0 -0.26727756274E+02 -0.21585533638E+02  0.47962535806E+03  0.48085423187E+03  0.00000000000E+00 0. -1.
        -12    1    6    6    0    0  0.35940217064E+02  0.19900773500E+02  0.11586492607E+04  0.11593773541E+04  0.00000000000E+00 0.  1.
</event>
<event>
12    1  0.8135779E-002  0.1847981E+03  0.7818608E-02  0.1163244E+00
         21   -1    0    0  501  502  0.00000000000E+00  0.00000000000E+00  0.38736872983E+02  0.38736872983E+02  0.00000000000E+00 0.  1.
         21   -1    0    0  502  503 -0.00000000000E+00 -0.00000000000E+00 -0.90977052627E+03  0.90977052627E+03  0.00000000000E+00 0.  1.
         -6    2    1    2    0  503 -0.63535413253E+02 -0.24775764001E+02 -0.51909933485E+03  0.55100506257E+03  0.17173197813E+03 0.  0.
        -24    2    3    3    0    0  0.30093267501E+01 -0.26990730101E+02 -0.43786142743E+03  0.44586327212E+03  0.79585628301E+02 0.  0.
          6    2    1    2  501    0  0.63535413253E+02  0.24775764001E+02 -0.35193431843E+03  0.39750233669E+03  0.17175492994E+03 0.  0.
         24    2    5    5    0    0 -0.12693477343E+02  0.52645483853E+01 -0.27848849968E+03  0.28976232746E+03  0.78851265822E+02 0.  0.
          5    1    5    5  501    0  0.76228890595E+02  0.19511215616E+02 -0.73445818750E+02  0.10774000923E+03  0.47000000000E+01 0. -1.
        -11    1    6    6    0    0  0.32143128276E+02 -0.73551664948E+01 -0.13144751863E+03  0.13552021740E+03  0.00000000000E+00 0.  1.
         12    1    6    6    0    0 -0.44836605618E+02  0.12619714880E+02 -0.14704098105E+03  0.15424211006E+03  0.00000000000E+00 0. -1.
         -5    1    3    3    0  503 -0.66544740003E+02  0.22149661006E+01 -0.81237907420E+02  0.10514179045E+03  0.47000000000E+01 0.  1.
         13    1    4    4    0    0  0.28756404256E+02 -0.44467839386E+02 -0.28015745973E+03  0.28511843464E+03  0.00000000000E+00 0. -1.
        -14    1    4    4    0    0 -0.25747077506E+02  0.17477109285E+02 -0.15770396770E+03  0.16074483748E+03  0.00000000000E+00 0.  1.
</event>
<event>
12    1  0.8135779E-002  0.2093049E+03  0.7818608E-02  0.1144713E+00
         21   -1    0    0  501  502  0.00000000000E+00  0.00000000000E+00  0.32379984647E+03  0.32379984647E+03  0.00000000000E+00 0.  1.
         21   -1    0    0  502  503 -0.00000000000E+00 -0.00000000000E+00 -0.41372025004E+03  0.41372025004E+03  0.00000000000E+00 0. -1.
         -6    2    1    2    0  503 -0.34258487075E+02 -0.89278825203E+02 -0.35133417417E+03  0.40263845998E+03  0.17186528139E+03 0.  0.
        -24    2    3    3    0    0  0.29260979431E+02 -0.17520798612E+02 -0.89034819781E+02  0.12334116619E+03  0.78247433452E+02 0.  0.
          6    2    1    2  501    0  0.34258487075E+02  0.89278825203E+02  0.26141377060E+03  0.33488163653E+03  0.18618323893E+03 0.  0.
         24    2    5    5    0    0  0.50987974474E+02  0.11153509337E+03  0.26854865561E+03  0.30575752615E+03  0.79557738583E+02 0.  0.
          5    1    5    5  501    0 -0.16729487399E+02 -0.22256268170E+02 -0.71348850109E+01  0.29124110383E+02  0.47000000000E+01 0. -1.
        -13    1    6    6    0    0 -0.12023672640E+02  0.54305298735E+02  0.14865265897E+03  0.15871750752E+03  0.00000000000E+00 0.  1.
         14    1    6    6    0    0  0.63011647115E+02  0.57229794638E+02  0.11989599664E+03  0.14704001862E+03  0.00000000000E+00 0. -1.
         -5    1    3    3    0  503 -0.63519466506E+02 -0.71758026591E+02 -0.26229935439E+03  0.27929729379E+03  0.47000000000E+01 0.  1.
         11    1    4    4    0    0  0.47747514517E+01  0.62689583086E+01 -0.88852086624E+02  0.89200848579E+02  0.00000000000E+00 0. -1.
        -12    1    4    4    0    0  0.24486227980E+02 -0.23789756921E+02 -0.18273315667E+00  0.34140317609E+02  0.00000000000E+00 0.  1.
</event>
<event>
12    1  0.8135779E-002  0.1739390E+03  0.7818608E-02  0.1175381E+00
         21   -1    0    0  503  502  0.00000000000E+00  0.00000000000E+00  0.16646916975E+03  0.16646916975E+03  0.00000000000E+00 0. -1.
         21   -1    0    0  501  503 -0.00000000000E+00 -0.00000000000E+00 -0.18312202690E+03  0.18312202690E+03  0.00000000000E+00 0. -1.
          6    2    1    2  501    0  0.17081591840E+02  0.17547262130E+02 -0.44069541159E+02  0.17350467372E+03  0.16601825248E+03 0.  0.
         24    2    3    3    0    0  0.37702482040E+02  0.69758489505E+02 -0.20863776548E+02  0.11257987673E+03  0.77144069521E+02 0.  0.
         -6    2    1    2    0  502 -0.17081591840E+02 -0.17547262130E+02  0.27416684010E+02  0.17608652294E+03  0.17220656727E+03 0.  0.
        -24    2    5    5    0    0  0.31797526905E+00  0.18676006133E+02  0.76284506525E+02  0.11264344470E+03  0.80748531786E+02 0.  0.
          5    1    3    3  501    0 -0.20620890199E+02 -0.52211227376E+02 -0.23205764612E+02  0.60924796987E+02  0.47000000000E+01 0. -1.
        -11    1    4    4    0    0 -0.14307157687E+02 -0.81274148810E+01 -0.70928001224E+01  0.17918075994E+02  0.00000000000E+00 0.  1.
         12    1    4    4    0    0  0.52009639727E+02  0.77885904386E+02 -0.13770976425E+02  0.94661800735E+02  0.00000000000E+00 0. -1.
         -5    1    5    5    0  502 -0.17399567110E+02 -0.36223268262E+02 -0.48867822515E+02  0.63443078240E+02  0.47000000000E+01 0.  1.
         13    1    6    6    0    0 -0.22931585548E+02 -0.13064821054E+02  0.67294066809E+02  0.72284428425E+02  0.00000000000E+00 0. -1.
        -14    1    6    6    0    0  0.23249560817E+02  0.31740827187E+02  0.89904397151E+01  0.40359016279E+02  0.00000000000E+00 0.  1.
</event>
<event>
12    1  0.8135779E-002  0.1843323E+03  0.7818608E-02  0.1163779E+00
         21   -1    0    0  503  502  0.00000000000E+00  0.00000000000E+00  0.10402208674E+04  0.10402208674E+04  0.00000000000E+00 0. -1.
         21   -1    0    0  501  503 -0.00000000000E+00 -0.00000000000E+00 -0.33103144205E+02  0.33103144205E+02  0.00000000000E+00 0. -1.
          6    2    1    2  501    0  0.63760733177E+02 -0.73181886523E+01  0.43588309456E+03  0.47308455324E+03  0.17232508642E+03 0.  0.
         24    2    3    3    0    0  0.17048079411E+02 -0.41874474615E+02  0.38493917789E+03  0.39566632821E+03  0.79558556827E+02 0.  0.
         -6    2    1    2    0  502 -0.63760733177E+02  0.73181886523E+01  0.57123462868E+03  0.60023945841E+03  0.17279878313E+03 0.  0.
        -24    2    5    5    0    0  0.35818801586E+01  0.18036109012E+02  0.45651814377E+03  0.46670345840E+03  0.95211193678E+02 0.  0.
          5    1    3    3  501    0  0.46712653767E+02  0.34556285963E+02  0.50943916664E+02  0.77418225029E+02  0.47000000000E+01 0. -1.
        -11    1    4    4    0    0  0.15919555538E+02 -0.62820029783E+02  0.21842156917E+03  0.22783276821E+03  0.00000000000E+00 0.  1.
         12    1    4    4    0    0  0.11285238722E+01  0.20945555168E+02  0.16651760872E+03  0.16783356000E+03  0.00000000000E+00 0. -1.
         -5    1    5    5    0  502 -0.67342613336E+02 -0.10717920359E+02  0.11471648491E+03  0.13353600001E+03  0.47000000000E+01 0.  1.
         11    1    6    6    0    0 -0.33435660340E+02 -0.22487295869E+02  0.15041679307E+03  0.15572036956E+03  0.00000000000E+00 0. -1.
        -12    1    6    6    0    0  0.37017540499E+02  0.40523404881E+02  0.30610135070E+03  0.31098308885E+03  0.00000000000E+00 0.  1.
</event>
<event>
12    1  0.8135779E-002  0.1904881E+03  0.7818608E-02  0.1161179E+00
         21   -1    0    0  503  502  0.00000000000E+00  0.00000000000E+00  0.32761702123E+03  0.32761702123E+03  0.00000000000E+00 0. -1.
         21   -1    0    0  501  503 -0.00000000000E+00 -0.00000000000E+00 -0.29768783686E+03  0.29768783686E+03  0.00000000000E+00 0. -1.
          6    2    1    2  501    0 -0.10533799356E+02  0.59886912650E+02 -0.23760088554E+03  0.30453223272E+03  0.18052228872E+03 0.  0.
         24    2    3    3    0    0 -0.37059143780E+02  0.49212284689E+02 -0.47715432107E+02  0.11244861290E+03  0.81072183769E+02 0.  0.
         -6    2    1    2    0  502  0.10533799356E+02 -0.59886912650E+02  0.26753006991E+03  0.32077262537E+03  0.16620871109E+03 0.  0.
        -24    2    5    5    0    0 -0.28969715118E+02 -0.23831965847E+02  0.66053196897E+02  0.11226481447E+03  0.82662910415E+02 0.  0.
          5    1    3    3  501    0  0.26525344424E+02  0.10674627960E+02 -0.18988545343E+03  0.19208361982E+03  0.47000000000E+01 0. -1.
        -13    1    4    4    0    0 -0.90444299146E+00  0.59971256546E+02 -0.44316374884E+02  0.74574196018E+02  0.00000000000E+00 0.  1.
         14    1    4    4    0    0 -0.36154700789E+02 -0.10758971857E+02 -0.33990572230E+01  0.37874416887E+02  0.00000000000E+00 0. -1.
         -5    1    5    5    0  502  0.39503514474E+02 -0.36054946803E+02  0.20147687301E+03  0.20850781089E+03  0.47000000000E+01 0.  1.
         11    1    6    6    0    0  0.16314087649E+02  0.21138846273E+02  0.23392050902E+02  0.35499131299E+02  0.00000000000E+00 0. -1.
        -12    1    6    6    0    0 -0.45283802766E+02 -0.44970812120E+02  0.42661145995E+02  0.76765683175E+02  0.00000000000E+00 0.  1.
</event>
<event>
12    1  0.8135779E-002  0.3446714E+03  0.7818608E-02  0.1065149E+00
         21   -1    0    0  501  502  0.00000000000E+00  0.00000000000E+00  0.16127149906E+03  0.16127149906E+03  0.00000000000E+00 0. -1.
         21   -1    0    0  502  503 -0.00000000000E+00 -0.00000000000E+00 -0.73051950979E+03  0.73051950979E+03  0.00000000000E+00 0.  1.
         -6    2    1    2    0  503  0.14562951879E+03  0.26061795934E+03 -0.29475885284E+03  0.45117479457E+03  0.16597058912E+03 0.  0.
        -24    2    3    3    0    0  0.11426392555E+03  0.86665296267E+02 -0.13781011034E+03  0.21474652383E+03  0.80977309953E+02 0.  0.
          6    2    1    2  501    0 -0.14562951879E+03 -0.26061795934E+03 -0.27448915789E+03  0.44061621428E+03  0.17224596661E+03 0.  0.
         24    2    5    5    0    0 -0.10956390693E+03 -0.11618700830E+03 -0.21623592681E+03  0.28068949072E+03  0.80777122727E+02 0.  0.
          5    1    5    5  501    0 -0.36065611861E+02 -0.14443095104E+03 -0.58253231076E+02  0.15992672356E+03  0.47000000000E+01 0. -1.
        -11    1    6    6    0    0 -0.56305304339E+02 -0.10788674785E+03 -0.17338404421E+03  0.21182980065E+03  0.00000000000E+00 0.  1.
         12    1    6    6    0    0 -0.53258602586E+02 -0.83002604488E+01 -0.42851882602E+02  0.68859690063E+02  0.00000000000E+00 0. -1.
         -5    1    3    3    0  503  0.31365593237E+02  0.17395266307E+03 -0.15694874250E+03  0.23642827073E+03  0.47000000000E+01 0.  1.
         13    1    4    4    0    0  0.36646026188E+02  0.54570897883E+02 -0.17508453605E+02  0.68025436998E+02  0.00000000000E+00 0. -1.
        -14    1    4    4    0    0  0.77617899362E+02  0.32094398384E+02 -0.12030165673E+03  0.14672108683E+03  0.00000000000E+00 0.  1.
</event>
<event>
12    1  0.8135779E-002  0.2331334E+03  0.7818608E-02  0.1124471E+00
         21   -1    0    0  501  502  0.00000000000E+00  0.00000000000E+00  0.74696588141E+03  0.74696588141E+03  0.00000000000E+00 0. -1.
         21   -1    0    0  502  503 -0.00000000000E+00 -0.00000000000E+00 -0.75312507031E+02  0.75312507031E+02  0.00000000000E+00 0.  1.
         -6    2    1    2    0  503  0.11955017760E+03 -0.10294915735E+03  0.25964323182E+03  0.34888261685E+03  0.17150422311E+03 0.  0.
        -24    2    3    3    0    0  0.15321256231E+03 -0.95813591999E+02  0.23235486601E+03  0.30471455887E+03  0.78789878597E+02 0.  0.
          6    2    1    2  501    0 -0.11955017760E+03  0.10294915735E+03  0.41201014255E+03  0.47339577159E+03  0.17164039450E+03 0.  0.
         24    2    5    5    0    0 -0.14507514438E+03  0.65975595293E+02  0.32430696060E+03  0.37474230562E+03  0.99283504379E+02 0.  0.
          5    1    5    5  501    0  0.25524966783E+02  0.36973562061E+02  0.87703181958E+02  0.98653465962E+02  0.47000000000E+01 0. -1.
        -11    1    6    6    0    0 -0.13281308928E+03  0.83420026081E+02  0.31414858854E+03  0.35112327339E+03  0.00000000000E+00 0.  1.
         12    1    6    6    0    0 -0.12262055102E+02 -0.17444430788E+02  0.10158372059E+02  0.23619032235E+02  0.00000000000E+00 0. -1.
         -5    1    3    3    0  503 -0.33662384707E+02 -0.71355653550E+01  0.27288365817E+02  0.44168057983E+02  0.47000000000E+01 0.  1.
         11    1    4    4    0    0  0.69782494501E+02 -0.46374429396E+01  0.11307424708E+03  0.13295445750E+03  0.00000000000E+00 0. -1.
        -12    1    4    4    0    0  0.83430067806E+02 -0.91176149059E+02  0.11928061892E+03  0.17176010137E+03  0.00000000000E+00 0.  1.
</event>
<event>
12    1  0.8135779E-002  0.2220422E+03  0.7818608E-02  0.1133035E+00
         21   -1    0    0  501  502  0.00000000000E+00  0.00000000000E+00  0.11111902163E+04  0.11111902163E+04  0.00000000000E+00 0.  1.
         21   -1    0    0  502  503 -0.00000000000E+00 -0.00000000000E+00 -0.47847894941E+02  0.47847894941E+02  0.00000000000E+00 0.  1.
         -6    2    1    2    0  503 -0.33818626127E+02 -0.13412296804E+03  0.35619934302E+03  0.41785397083E+03  0.16908961809E+03 0.  0.
        -24    2    3    3    0    0  0.94488972505E+01 -0.22722854438E+02  0.83910057021E+02  0.12045590568E+03  0.82843936230E+02 0.  0.
          6    2    1    2  501    0  0.33818626127E+02  0.13412296804E+03  0.70714297837E+03  0.74118414044E+03  0.17369533140E+03 0.  0.
         24    2    5    5    0    0  0.31658232128E+02  0.11460608323E+03  0.70664542262E+03  0.72098726799E+03  0.79612117899E+02 0.  0.
          5    1    5    5  501    0  0.21603939996E+01  0.19516884814E+02  0.49755575056E+00  0.20196872451E+02  0.47000000000E+01 0. -1.
        -11    1    6    6    0    0 -0.37202231504E+01  0.72817169114E+02  0.23183146639E+03  0.24302676598E+03  0.00000000000E+00 0.  1.
         12    1    6    6    0    0  0.35378455278E+02  0.41788914112E+02  0.47481395624E+03  0.47796050200E+03  0.00000000000E+00 0. -1.
         -5    1    3    3    0  503 -0.43267523378E+02 -0.11140011360E+03  0.27228928600E+03  0.29739806515E+03  0.47000000000E+01 0.  1.
         11    1    4    4    0    0  0.19558846333E+02 -0.33142603500E+02  0.33845314796E+01  0.38632055213E+02  0.00000000000E+00 0. -1.
        -12    1    4    4    0    0 -0.10109949083E+02  0.10419749062E+02  0.80525525541E+02  0.81823850463E+02  0.00000000000E+00 0.  1.
</event>
<event>
12    1  0.8135779E-002  0.2171145E+03  0.7818608E-02  0.1136183E+00
         21   -1    0    0  501  502  0.00000000000E+00  0.00000000000E+00  0.39904045291E+03  0.39904045291E+03  0.00000000000E+00 0. -1.
         21   -1    0    0  502  503 -0.00000000000E+00 -0.00000000000E+00 -0.31834760753E+03  0.31834760753E+03  0.00000000000E+00 0.  1.
         -6    2    1    2    0  503 -0.64676856529E+02 -0.11502795812E+03 -0.24435576204E+03  0.32687680385E+03  0.17240701707E+03 0.  0.
        -24    2    3    3    0    0  0.20776386674E+02 -0.41874576887E+02 -0.16581708115E+03  0.18960303230E+03  0.79176177124E+02 0.  0.
          6    2    1    2  501    0  0.64676856529E+02  0.11502795812E+03  0.32504860742E+03  0.39051125659E+03  0.17154567152E+03 0.  0.
         24    2    5    5    0    0  0.22334431335E+02  0.43572540158E+02  0.69370845408E+02  0.12163960372E+03  0.87100435833E+02 0.  0.
          5    1    5    5  501    0  0.42342425194E+02  0.71455417960E+02  0.25567776202E+03  0.26887165287E+03  0.47000000000E+01 0. -1.
        -13    1    6    6    0    0  0.46228570460E+02 -0.31457432974E+01  0.23555603907E+02  0.51979254546E+02  0.00000000000E+00 0.  1.
         14    1    6    6    0    0 -0.23894139126E+02  0.46718283456E+02  0.45815241501E+02  0.69660349177E+02  0.00000000000E+00 0. -1.
         -5    1    3    3    0  503 -0.85453243203E+02 -0.73153381232E+02 -0.78538680888E+02  0.13727377155E+03  0.47000000000E+01 0.  1.
         13    1    4    4    0    0  0.62593581276E+01  0.16977163888E+02 -0.66384580832E+01  0.19273629227E+02  0.00000000000E+00 0. -1.
        -14    1    4    4    0    0  0.14517028546E+02 -0.58851740775E+02 -0.15917862307E+03  0.17032940307E+03  0.00000000000E+00 0.  1.
</event>
<event>
12    1  0.8135779E-002  0.2412617E+03  0.7818608E-02  0.1119161E+00
         21   -1    0    0  503  502  0.00000000000E+00  0.00000000000E+00  0.24122361812E+04  0.24122361812E+04  0.00000000000E+00 0. -1.
         21   -1    0    0  501  503 -0.00000000000E+00 -0.00000000000E+00 -0.31140093527E+02  0.31140093527E+02  0.00000000000E+00 0.  1.
          6    2    1    2  501    0  0.12298716113E+03  0.11473145275E+03  0.60817201616E+03  0.65427852379E+03  0.17296831329E+03 0.  0.
         24    2    3    3    0    0  0.68193068622E+02  0.14164970913E+03  0.39573999171E+03  0.43319835708E+03  0.79597367032E+02 0.  0.
         -6    2    1    2    0  502 -0.12298716113E+03 -0.11473145275E+03  0.17729240715E+04  0.17890977509E+04  0.17123624322E+03 0.  0.
        -24    2    5    5    0    0 -0.15585333053E+03 -0.86366627950E+02  0.13725152611E+04  0.13863148642E+04  0.79506639530E+02 0.  0.
          5    1    3    3  501    0  0.54794092506E+02 -0.26918256375E+02  0.21243202445E+03  0.22108016671E+03  0.47000000000E+01 0. -1.
        -13    1    4    4    0    0 -0.36093087937E+01  0.23708515964E+02  0.14485052797E+03  0.14682232900E+03  0.00000000000E+00 0.  1.
         14    1    4    4    0    0  0.71802377416E+02  0.11794119316E+03  0.25088946374E+03  0.28637602809E+03  0.00000000000E+00 0. -1.
         -5    1    5    5    0  502  0.32866169402E+02 -0.28364824800E+02  0.40040881036E+03  0.40278288667E+03  0.47000000000E+01 0.  1.
         11    1    6    6    0    0 -0.10235896457E+03 -0.11584117931E+02  0.69722405885E+03  0.70479283314E+03  0.00000000000E+00 0. -1.
        -12    1    6    6    0    0 -0.53494365959E+02 -0.74782510019E+02  0.67529120229E+03  0.68152203111E+03  0.00000000000E+00 0.  1.
</event>
<event>
12    1  0.8135779E-002  0.1901309E+03  0.7818608E-02  0.1160106E+00
         21   -1    0    0  503  502  0.00000000000E+00  0.00000000000E+00  0.15527978293E+03  0.15527978293E+03  0.00000000000E+00 0.  1.
         21   -1    0    0  501  503 -0.00000000000E+00 -0.00000000000E+00 -0.29926844120E+03  0.29926844120E+03  0.00000000000E+00 0.  1.
          6    2    1    2  501    0 -0.34381193412E+02 -0.54334242445E+02 -0.18520884432E+03  0.26000034462E+03  0.17077349569E+03 0.  0.
         24    2    3    3    0    0  0.49841924702E+00  0.31410037908E+02 -0.67205297418E+02  0.10994836672E+03  0.81149568332E+02 0.  0.
         -6    2    1    2    0  502  0.34381193412E+02  0.54334242445E+02  0.41220186052E+02  0.19454787950E+03  0.17892874928E+03 0.  0.
        -24    2    5    5    0    0 -0.36266199671E+02 -0.10391148386E+02  0.13499697916E+01  0.90662584527E+02  0.82429779881E+02 0.  0.
          5    1    3    3  501    0 -0.34879612659E+02 -0.85744280352E+02 -0.11800354690E+03  0.15005197790E+03  0.47000000000E+01 0. -1.
        -13    1    4    4    0    0  0.34053895774E+01  0.13749844215E+02 -0.84130775926E+02  0.85314959720E+02  0.00000000000E+00 0.  1.
         14    1    4    4    0    0 -0.29069703303E+01  0.17660193692E+02  0.16925478508E+02  0.24633407001E+02  0.00000000000E+00 0. -1.
         -5    1    5    5    0  502  0.70647393084E+02  0.64725390831E+02  0.39870216260E+02  0.10388529498E+03  0.47000000000E+01 0.  1.
         13    1    6    6    0    0  0.31373126565E+01 -0.10852625956E+01 -0.35656574772E+02  0.35810778407E+02  0.00000000000E+00 0. -1.
        -14    1    6    6    0    0 -0.39403512328E+02 -0.93058857908E+01  0.37006544564E+02  0.54851806120E+02  0.00000000000E+00 0.  1.
</event>
<event>
12    1  0.8135779E-002  0.1872142E+03  0.7818608E-02  0.1162524E+00
         21   -1    0    0  501  502  0.00000000000E+00  0.00000000000E+00  0.70980241642E+02  0.70980241642E+02  0.00000000000E+00 0.  1.
         21   -1    0    0  502  503 -0.00000000000E+00 -0.00000000000E+00 -0.52473882331E+03  0.52473882331E+03  0.00000000000E+00 0.  1.
         -6    2    1    2    0  503  0.12663735195E+02  0.51103487830E+02 -0.31328398638E+03  0.36166295893E+03  0.17286209266E+03 0.  0.
        -24    2    3    3    0    0 -0.54225032822E+02  0.58651336852E+02 -0.20581277045E+03  0.23476445789E+03  0.79844353010E+02 0.  0.
          6    2    1    2  501    0 -0.12663735195E+02 -0.51103487830E+02 -0.14047459528E+03  0.23405610603E+03  0.17965859899E+03 0.  0.
         24    2    5    5    0    0 -0.17481827668E+01 -0.28105641641E+02  0.60757715989E+01  0.85236919602E+02  0.80221158230E+02 0.  0.
          5    1    5    5  501    0 -0.10915552428E+02 -0.22997846190E+02 -0.14655036688E+03  0.14881918642E+03  0.47000000000E+01 0. -1.
        -11    1    6    6    0    0  0.33683911195E+02  0.60185714487E+01 -0.56133882505E+01  0.34674763205E+02  0.00000000000E+00 0.  1.
         12    1    6    6    0    0 -0.35432093962E+02 -0.34124213090E+02  0.11689159849E+02  0.50562156397E+02  0.00000000000E+00 0. -1.
         -5    1    3    3    0  503  0.66888768017E+02 -0.75478490215E+01 -0.10747121593E+03  0.12689850104E+03  0.47000000000E+01 0.  1.
         11    1    4    4    0    0  0.14539578773E+02  0.35943905702E+02 -0.53077639506E+02  0.65731267473E+02  0.00000000000E+00 0. -1.
        -12    1    4    4    0    0 -0.68764611595E+02  0.22707431150E+02 -0.15273513094E+03  0.16903319041E+03  0.00000000000E+00 0.  1.
</event>
<event>
12    1  0.8135779E-002  0.1961712E+03  0.7818608E-02  0.1153438E+00
         21   -1    0    0  501  502  0.00000000000E+00  0.00000000000E+00  0.32622149556E+03  0.32622149556E+03  0.00000000000E+00 0.  1.
         21   -1    0    0  502  503 -0.00000000000E+00 -0.00000000000E+00 -0.14488303555E+03  0.14488303555E+03  0.00000000000E+00 0. -1.
         -6    2    1    2    0  503 -0.78530862960E+02  0.55952147843E+02 -0.13426921647E+02  0.19466883625E+03  0.16857619730E+03 0.  0.
        -24    2    3    3    0    0 -0.42819985115E+02  0.88172576983E+02 -0.46907301493E+02  0.13587726641E+03  0.81574396322E+02 0.  0.
          6    2    1    2  501    0  0.78530862960E+02 -0.55952147843E+02  0.19476538166E+03  0.27643569485E+03  0.17083735016E+03 0.  0.
         24    2    5    5    0    0  0.85315365790E+02 -0.71472664752E+01  0.19405295285E+03  0.22693273051E+03  0.80697711299E+02 0.  0.
          5    1    5    5  501    0 -0.67845028300E+01 -0.48804881368E+02  0.71242880906E+00  0.49502964344E+02  0.47000000000E+01 0. -1.
        -13    1    6    6    0    0  0.69106393440E+02  0.16286525385E+02  0.70201243403E+02  0.99845676415E+02  0.00000000000E+00 0.  1.
         14    1    6    6    0    0  0.16208972350E+02 -0.23433791860E+02  0.12385170945E+03  0.12708705409E+03  0.00000000000E+00 0. -1.
         -5    1    3    3    0  503 -0.35710877845E+02 -0.32220429140E+02  0.33480379847E+02  0.58791569847E+02  0.47000000000E+01 0.  1.
         11    1    4    4    0    0 -0.36676525368E+02  0.23717363680E+01 -0.31673905571E+02  0.48518336128E+02  0.00000000000E+00 0. -1.
        -12    1    4    4    0    0 -0.61434597470E+01  0.85800840615E+02 -0.15233395922E+02  0.87358930278E+02  0.00000000000E+00 0.  1.
</event>
<event>
12    1  0.8135779E-002  0.1843618E+03  0.7818608E-02  0.1164226E+00
         21   -1    0    0  501  502  0.00000000000E+00  0.00000000000E+00  0.33370853563E+03  0.33370853563E+03  0.00000000000E+00 0. -1.
         21   -1    0    0  502  503 -0.00000000000E+00 -0.00000000000E+00 -0.33964973836E+03  0.33964973836E+03  0.00000000000E+00 0. -1.
         -6    2    1    2    0  503 -0.65237665860E+02  0.18588519109E+02 -0.28547136926E+03  0.33850549816E+03  0.16879153868E+03 0.  0.
        -24    2    3    3    0    0 -0.55304009262E+02 -0.41642079007E+02 -0.23985307547E+03  0.26215419685E+03  0.80017054005E+02 0.  0.
          6    2    1    2  501    0  0.65237665860E+02 -0.18588519109E+02  0.27953016653E+03  0.33485277583E+03  0.17142864811E+03 0.  0.
         24    2    5    5    0    0 -0.82110008054E+00  0.28927723061E+02  0.57560443583E+02  0.98390935923E+02  0.74364536169E+02 0.  0.
          5    1    5    5  501    0  0.66058765941E+02 -0.47516242170E+02  0.22196972295E+03  0.23646183991E+03  0.47000000000E+01 0. -1.
        -13    1    6    6    0    0 -0.41831874082E+01  0.51049728490E+02  0.56102405768E+02  0.75967452035E+02  0.00000000000E+00 0.  1.
         14    1    6    6    0    0  0.33620873277E+01 -0.22122005429E+02  0.14580378151E+01  0.22423483888E+02  0.00000000000E+00 0. -1.
         -5    1    3    3    0  503 -0.99336565983E+01  0.60230598117E+02 -0.45618293786E+02  0.76351301304E+02  0.47000000000E+01 0.  1.
         11    1    4    4    0    0 -0.23531437423E+02  0.20033200921E+02 -0.11753955887E+03  0.12153438026E+03  0.00000000000E+00 0. -1.
        -12    1    4    4    0    0 -0.31772571839E+02 -0.61675279929E+02 -0.12231351660E+03  0.14061981659E+03  0.00000000000E+00 0.  1.
</event>
<event>
12    1  0.8135779E-002  0.3213329E+03  0.7818608E-02  0.1075086E+00
         21   -1    0    0  501  502  0.00000000000E+00  0.00000000000E+00  0.31298300612E+03  0.31298300612E+03  0.00000000000E+00 0.  1.
         21   -1    0    0  502  503 -0.00000000000E+00 -0.00000000000E+00 -0.61566941257E+03  0.61566941257E+03  0.00000000000E+00 0. -1.
         -6    2    1    2    0  503  0.53331926918E+02 -0.26613687030E+03 -0.46787006228E+03  0.56734856025E+03  0.17119832206E+03 0.  0.
        -24    2    3    3    0    0 -0.34008749104E+02 -0.13702214954E+03 -0.27302223398E+03  0.31777538261E+03  0.80674587471E+02 0.  0.
          6    2    1    2  501    0 -0.53331926918E+02  0.26613687030E+03  0.16518365583E+03  0.36130385843E+03  0.17199334232E+03 0.  0.
         24    2    5    5    0    0 -0.30863851951E+02  0.24567222180E+03  0.18970938172E+03  0.32196917321E+03  0.79793991426E+02 0.  0.
          5    1    5    5  501    0 -0.22468074967E+02  0.20464648505E+02 -0.24525725886E+02  0.39334685220E+02  0.47000000000E+01 0. -1.
        -13    1    6    6    0    0 -0.29124234172E+02  0.15532105331E+03  0.16459541522E+03  0.22817646971E+03  0.00000000000E+00 0.  1.
         14    1    6    6    0    0 -0.17396177788E+01  0.90351168490E+02  0.25113966496E+02  0.93792703505E+02  0.00000000000E+00 0. -1.
         -5    1    3    3    0  503  0.87340676023E+02 -0.12911472076E+03 -0.19484782830E+03  0.24957317764E+03  0.47000000000E+01 0.  1.
         13    1    4    4    0    0 -0.37888713646E+02 -0.14489671660E+03 -0.26949432953E+03  0.30831446082E+03  0.00000000000E+00 0. -1.
        -14    1    4    4    0    0  0.38799645411E+01  0.78745670613E+01 -0.35279044538E+01  0.94609217879E+01  0.00000000000E+00 0.  1.
</event>
<event>
12    1  0.8135779E-002  0.1879430E+03  0.7818608E-02  0.1160446E+00
         21   -1    0    0  503  502  0.00000000000E+00  0.00000000000E+00  0.35222437393E+02  0.35222437393E+02  0.00000000000E+00 0. -1.
         21   -1    0    0  501  503 -0.00000000000E+00 -0.00000000000E+00 -0.11906554929E+04  0.11906554929E+04  0.00000000000E+00 0. -1.
          6    2    1    2  501    0  0.57789698691E+02 -0.48750889021E+02 -0.33187347752E+03  0.38114546845E+03  0.17150966323E+03 0.  0.
         24    2    3    3    0    0  0.96277838289E+02 -0.15845124635E+02 -0.17099546825E+03  0.21242098864E+03  0.79766760820E+02 0.  0.
         -6    2    1    2    0  502 -0.57789698691E+02  0.48750889021E+02 -0.82355957799E+03  0.84473246185E+03  0.17206468304E+03 0.  0.
        -24    2    5    5    0    0  0.13124076069E+02  0.75680261433E+02 -0.43373752824E+03  0.44757093927E+03  0.79320608481E+02 0.  0.
          5    1    3    3  501    0 -0.38488139598E+02 -0.32905764385E+02 -0.16087800928E+03  0.16872447981E+03  0.47000000000E+01 0. -1.
        -11    1    4    4    0    0  0.64156816047E+02 -0.73751622839E+01 -0.16689028654E+03  0.17894931630E+03  0.00000000000E+00 0.  1.
         12    1    4    4    0    0  0.32121022242E+02 -0.84699623516E+01 -0.41051817112E+01  0.33471672336E+02  0.00000000000E+00 0. -1.
         -5    1    5    5    0  502 -0.70913774759E+02 -0.26929372412E+02 -0.38982204975E+03  0.39716152258E+03  0.47000000000E+01 0.  1.
         11    1    6    6    0    0  0.80842793010E+01  0.25121069093E+02 -0.33936702501E+03  0.34039154124E+03  0.00000000000E+00 0. -1.
        -12    1    6    6    0    0  0.50397967676E+01  0.50559192340E+02 -0.94370503234E+02  0.10717939803E+03  0.00000000000E+00 0.  1.
</event>
<event>
12    1  0.8135779E-002  0.1733915E+03  0.7818608E-02  0.1174542E+00
         21   -1    0    0  503  502  0.00000000000E+00  0.00000000000E+00  0.77162239967E+03  0.77162239967E+03  0.00000000000E+00 0. -1.
         21   -1    0    0  501  503 -0.00000000000E+00 -0.00000000000E+00 -0.56156480478E+02  0.56156480478E+02  0.00000000000E+00 0. -1.
          6    2    1    2  501    0  0.22011278638E+01  0.19789543195E+02  0.12815122705E+03  0.21560926602E+03  0.17224444147E+03 0.  0.
         24    2    3    3    0    0  0.47581953265E+02 -0.21428296930E+02  0.27806123760E+02  0.97925114951E+02  0.78057244595E+02 0.  0.
         -6    2    1    2    0  502 -0.22011278638E+01 -0.19789543195E+02  0.58731469213E+03  0.61216961412E+03  0.17151273385E+03 0.  0.
        -24    2    5    5    0    0 -0.16407546454E+02 -0.59260680776E+02  0.21279472818E+03  0.23527826846E+03  0.79329889723E+02 0.  0.
          5    1    3    3  501    0 -0.45380825402E+02  0.41217840125E+02  0.10034510329E+03  0.11768415107E+03  0.47000000000E+01 0. -1.
        -11    1    4    4    0    0  0.26672910321E+02 -0.38800065237E+02  0.45511047022E+02  0.65483926337E+02  0.00000000000E+00 0.  1.
         12    1    4    4    0    0  0.20909042944E+02  0.17371768307E+02 -0.17704923263E+02  0.32441188614E+02  0.00000000000E+00 0. -1.
         -5    1    5    5    0  502  0.14206418590E+02  0.39471137581E+02  0.37451996395E+03  0.37689134566E+03  0.47000000000E+01 0.  1.
         11    1    6    6    0    0 -0.13862075072E+02 -0.40125890533E+02  0.21173163039E+03  0.21594565873E+03  0.00000000000E+00 0. -1.
        -12    1    6    6    0    0 -0.25454713813E+01 -0.19134790243E+02  0.10630977890E+01  0.19332609734E+02  0.00000000000E+00 0.  1.
</event>
<event>
12    1  0.8135779E-002  0.2166035E+03  0.7818608E-02  0.1136527E+00
         21   -1    0    0  503  502  0.00000000000E+00  0.00000000000E+00  0.84075182168E+02  0.84075182168E+02  0.00000000000E+00 0.  1.
         21   -1    0    0  501  503 -0.00000000000E+00 -0.00000000000E+00 -0.70247240084E+03  0.70247240084E+03  0.00000000000E+00 0.  1.
          6    2    1    2  501    0 -0.13109377356E+03  0.90741172179E+00 -0.48798782264E+03  0.53371621240E+03  0.17185598466E+03 0.  0.
         24    2    3    3    0    0 -0.46844549701E+02 -0.56758702487E+02 -0.30917963275E+03  0.32776046175E+03  0.80118118045E+02 0.  0.
         -6    2    1    2    0  502  0.13109377356E+03 -0.90741172179E+00 -0.13040939603E+03  0.25283137061E+03  0.17242589867E+03 0.  0.
        -24    2    5    5    0    0  0.29548495649E+02  0.43244111562E+02 -0.16650266055E+02  0.94010622202E+02  0.76273186292E+02 0.  0.
          5    1    3    3  501    0 -0.84249223856E+02  0.57666114208E+02 -0.17880818990E+03  0.20595575064E+03  0.47000000000E+01 0. -1.
        -13    1    4    4    0    0 -0.20097376794E+02 -0.55121715087E+02 -0.28711467323E+03  0.29304802270E+03  0.00000000000E+00 0.  1.
         14    1    4    4    0    0 -0.26747172907E+02 -0.16369873999E+01 -0.22064959522E+02  0.34712439053E+02  0.00000000000E+00 0. -1.
         -5    1    5    5    0  502  0.10154527791E+03 -0.44151523284E+02 -0.11375912997E+03  0.15882074841E+03  0.47000000000E+01 0.  1.
         11    1    6    6    0    0  0.18482506796E+02 -0.19578391780E+02  0.34140233853E+01  0.27139860682E+02  0.00000000000E+00 0. -1.
        -12    1    6    6    0    0  0.11065988853E+02  0.62822503342E+02 -0.20064289440E+02  0.66870761520E+02  0.00000000000E+00 0.  1.
</event>
<event>
12    1  0.8135779E-002  0.1783701E+03  0.7818608E-02  0.1169470E+00
         21   -1    0    0  501  502  0.00000000000E+00  0.00000000000E+00  0.75694196691E+02  0.75694196691E+02  0.00000000000E+00 0.  1.
         21   -1    0    0  502  503 -0.00000000000E+00 -0.00000000000E+00 -0.55956082276E+03  0.55956082276E+03  0.00000000000E+00 0.  1.
         -6    2    1    2    0  503  0.10305435457E+02 -0.42208246605E+02 -0.40097980286E+03  0.43886296030E+03  0.17299756512E+03 0.  0.
        -24    2    3    3    0    0 -0.26503091521E+02 -0.63644065265E+00 -0.89355969607E+02  0.12229608559E+03  0.79177170512E+02 0.  0.
          6    2    1    2  501    0 -0.10305435457E+02  0.42208246605E+02 -0.82886823204E+02  0.19639205915E+03  0.17266116342E+03 0.  0.
         24    2    5    5    0    0  0.46344267443E+02  0.20951412681E+02 -0.18917265613E+01  0.95182684547E+02  0.80432654997E+02 0.  0.
          5    1    5    5  501    0 -0.56649702900E+02  0.21256833924E+02 -0.80995096643E+02  0.10120937460E+03  0.47000000000E+01 0. -1.
        -13    1    6    6    0    0  0.21430598363E+02  0.44939903740E+02  0.20649116982E+02  0.53900385217E+02  0.00000000000E+00 0.  1.
         14    1    6    6    0    0  0.24913669080E+02 -0.23988491059E+02 -0.22540843543E+02  0.41282299330E+02  0.00000000000E+00 0. -1.
         -5    1    3    3    0  503  0.36808526977E+02 -0.41571805952E+02 -0.31162383326E+03  0.31656687471E+03  0.47000000000E+01 0.  1.
         11    1    4    4    0    0  0.18106179386E+02 -0.12072580793E+02  0.10392248777E-01  0.21761917355E+02  0.00000000000E+00 0. -1.
        -12    1    4    4    0    0 -0.44609270906E+02  0.11436140141E+02 -0.89366361855E+02  0.10053416824E+03  0.00000000000E+00 0.  1.
</event>
<event>
12    1  0.8135779E-002  0.1874674E+03  0.7818608E-02  0.1162496E+00
         21   -1    0    0  501  502  0.00000000000E+00  0.00000000000E+00  0.22756669256E+03  0.22756669256E+03  0.00000000000E+00 0.  1.
         21   -1    0    0  502  503 -0.00000000000E+00 -0.00000000000E+00 -0.21876148525E+03  0.21876148525E+03  0.00000000000E+00 0.  1.
         -6    2    1    2    0  503  0.51711653151E+02  0.13860902555E+02 -0.12207064108E+03  0.22370801814E+03  0.17966028018E+03 0.  0.
        -24    2    3    3    0    0  0.88309423555E+02  0.36831108653E+02 -0.44033161969E+02  0.13438296391E+03  0.83455238197E+02 0.  0.
          6    2    1    2  501    0 -0.51711653151E+02 -0.13860902555E+02  0.13087584839E+03  0.22262015968E+03  0.17194484032E+03 0.  0.
         24    2    5    5    0    0 -0.28160586111E+02  0.57430198350E+02  0.94773385654E+02  0.13917825388E+03  0.79355815374E+02 0.  0.
          5    1    5    5  501    0 -0.23551067040E+02 -0.71291100904E+02  0.36102462737E+02  0.83441905794E+02  0.47000000000E+01 0. -1.
        -11    1    6    6    0    0 -0.39935532945E+02  0.47553737102E+02  0.10409006178E+03  0.12120621133E+03  0.00000000000E+00 0.  1.
         12    1    6    6    0    0  0.11774946833E+02  0.98764612479E+01 -0.93166761222E+01  0.17972042557E+02  0.00000000000E+00 0. -1.
         -5    1    3    3    0  503 -0.36597770404E+02 -0.22970206098E+02 -0.78037479113E+02  0.89325054229E+02  0.47000000000E+01 0.  1.
         11    1    4    4    0    0  0.69419033837E+02 -0.13906421827E+02 -0.13007731634E+02  0.71983275205E+02  0.00000000000E+00 0. -1.
        -12    1    4    4    0    0  0.18890389718E+02  0.50737530479E+02 -0.31025430335E+02  0.62399688704E+02  0.00000000000E+00 0.  1.
</event>
<event>
12    1  0.8135779E-002  0.3183880E+03  0.7818608E-02  0.1076459E+00
         21   -1    0    0  503  502  0.00000000000E+00  0.00000000000E+00  0.16418609751E+03  0.16418609751E+03  0.00000000000E+00 0. -1.
         21   -1    0    0  501  503 -0.00000000000E+00 -0.00000000000E+00 -0.10043388919E+04  0.10043388919E+04  0.00000000000E+00 0.  1.
          6    2    1    2  501    0 -0.26744669405E+03 -0.11284802225E+02 -0.78346159062E+03  0.84568491348E+03  0.17238279495E+03 0.  0.
         24    2    3    3    0    0 -0.22808003279E+03 -0.29532640457E+02 -0.47157840602E+03  0.53076281446E+03  0.80189113819E+02 0.  0.
         -6    2    1    2    0  502  0.26744669405E+03  0.11284802225E+02 -0.56691203743E+02  0.32284007590E+03  0.17133809006E+03 0.  0.
        -24    2    5    5    0    0  0.22366263263E+03  0.80655954976E+01  0.17348010485E+02  0.23663507274E+03  0.74867730804E+02 0.  0.
          5    1    3    3  501    0 -0.39366661258E+02  0.18247838231E+02 -0.31188318460E+03  0.31492209903E+03  0.47000000000E+01 0. -1.
        -11    1    4    4    0    0 -0.49799736696E+02  0.29953460675E+01 -0.44605782031E+02  0.66922803765E+02  0.00000000000E+00 0.  1.
         12    1    4    4    0    0 -0.17828029609E+03 -0.32527986524E+02 -0.42697262399E+03  0.46384001069E+03  0.00000000000E+00 0. -1.
         -5    1    5    5    0  502  0.43784061418E+02  0.32192067279E+01 -0.74039214228E+02  0.86205003159E+02  0.47000000000E+01 0.  1.
         13    1    6    6    0    0  0.53999220389E+02 -0.30368780720E+02  0.17968604755E+01  0.61979088027E+02  0.00000000000E+00 0. -1.
        -14    1    6    6    0    0  0.16966341224E+03  0.38434376218E+02  0.15551150009E+02  0.17465598471E+03  0.00000000000E+00 0.  1.
</event>
<event>
12    1  0.8135779E-002  0.1907994E+03  0.7818608E-02  0.1157845E+00
         21   -1    0    0  501  502  0.00000000000E+00  0.00000000000E+00  0.20476475710E+03  0.20476475710E+03  0.00000000000E+00 0. -1.
         21   -1    0    0  502  503 -0.00000000000E+00 -0.00000000000E+00 -0.19542981671E+03  0.19542981671E+03  0.00000000000E+00 0.  1.
         -6    2    1    2    0  503 -0.81120595433E+02 -0.20003771261E+02  0.65519362138E+02  0.20173544017E+03  0.17153337616E+03 0.  0.
        -24    2    3    3    0    0 -0.14262774574E+02 -0.11770764450E+02  0.96513470613E+02  0.12743553862E+03  0.81135620157E+02 0.  0.
          6    2    1    2  501    0  0.81120595433E+02  0.20003771261E+02 -0.56184421746E+02  0.19845913364E+03  0.17102232781E+03 0.  0.
         24    2    5    5    0    0  0.89466811387E+02 -0.36815147208E+02 -0.59911200255E+02  0.14071809369E+03  0.82780218479E+02 0.  0.
          5    1    5    5  501    0 -0.83462159543E+01  0.56818918469E+02  0.37267785084E+01  0.57741039952E+02  0.47000000000E+01 0. -1.
        -13    1    6    6    0    0  0.70385985480E+02 -0.65425580826E+00 -0.69288777501E+02  0.98770186242E+02  0.00000000000E+00 0.  1.
         14    1    6    6    0    0  0.19080825907E+02 -0.36160891400E+02  0.93775772461E+01  0.41947907446E+02  0.00000000000E+00 0. -1.
         -5    1    3    3    0  503 -0.66857820859E+02 -0.82330068104E+01 -0.30994108475E+02  0.74299901556E+02  0.47000000000E+01 0.  1.
         11    1    4    4    0    0 -0.27379757144E+02  0.13675061419E+02  0.93815088620E+02  0.98680946787E+02  0.00000000000E+00 0. -1.
        -12    1    4    4    0    0  0.13116982570E+02 -0.25445825869E+02  0.26983819935E+01  0.28754591829E+02  0.00000000000E+00 0.  1.
</event>
<event>
12    1  0.8135779E-002  0.1766900E+03  0.7818608E-02  0.1171154E+00
         21   -1    0    0  501  502  0.00000000000E+00  0.00000000000E+00  0.66369495093E+03  0.66369495093E+03  0.00000000000E+00 0. -1.
         21   -1    0    0  502  503 -0.00000000000E+00 -0.00000000000E+00 -0.14095862466E+03  0.14095862466E+03  0.00000000000E+00 0. -1.
         -6    2    1    2    0  503 -0.37114617673E+02 -0.12373286409E+02 -0.67349959770E+02  0.18868184694E+03  0.17185525661E+03 0.  0.
        -24    2    3    3    0    0 -0.18359996289E+02  0.58502017058E+02 -0.23459094211E+02  0.10310414807E+03  0.79501954596E+02 0.  0.
          6    2    1    2  501    0  0.37114617673E+02  0.12373286409E+02  0.59008628604E+03  0.61597172864E+03  0.17230424386E+03 0.  0.
         24    2    5    5    0    0  0.81063797528E+02 -0.71312315921E+01  0.27995754499E+03  0.30210251598E+03  0.79167603410E+02 0.  0.
          5    1    5    5  501    0 -0.43949179855E+02  0.19504518001E+02  0.31012874105E+03  0.31386921267E+03  0.47000000000E+01 0. -1.
        -11    1    6    6    0    0  0.30087848099E+02  0.58677071135E+01  0.19378474504E+02  0.36266153148E+02  0.00000000000E+00 0.  1.
         12    1    6    6    0    0  0.50975949429E+02 -0.12998938706E+02  0.26057907048E+03  0.26583636283E+03  0.00000000000E+00 0. -1.
         -5    1    3    3    0  503 -0.18754621384E+02 -0.70875303467E+02 -0.43890865560E+02  0.85577698873E+02  0.47000000000E+01 0.  1.
         11    1    4    4    0    0 -0.45184288950E+02  0.35664092636E+02 -0.33331991860E+02  0.66517434954E+02  0.00000000000E+00 0. -1.
        -12    1    4    4    0    0  0.26824292661E+02  0.22837924422E+02  0.98728976494E+01  0.36586713116E+02  0.00000000000E+00 0.  1.
</event>
<event>
12    1  0.8135779E-002  0.1970557E+03  0.7818608E-02  0.1152523E+00
         21   -1    0    0  501  502  0.00000000000E+00  0.00000000000E+00  0.35804837072E+03  0.35804837072E+03  0.00000000000E+00 0. -1.
         21   -1    0    0  502  503 -0.00000000000E+00 -0.00000000000E+00 -0.27141087759E+03  0.27141087759E+03  0.00000000000E+00 0.  1.
         -6    2    1    2    0  503 -0.27830995751E+02 -0.87329147536E+02 -0.20102246962E+03  0.28149775873E+03  0.17444199764E+03 0.  0.
        -24    2    3    3    0    0 -0.69042753906E+02 -0.19417199530E+02 -0.15984496219E+03  0.19189798858E+03  0.78297487687E+02 0.  0.
          6    2    1    2  501    0  0.27830995751E+02  0.87329147536E+02  0.28765996276E+03  0.34796148958E+03  0.17299710900E+03 0.  0.
         24    2    5    5    0    0 -0.27442112194E+02  0.72398947978E+02  0.26190779454E+03  0.28500681153E+03  0.81477067857E+02 0.  0.
          5    1    5    5  501    0  0.55273107945E+02  0.14930199558E+02  0.25752168217E+02  0.62954678052E+02  0.47000000000E+01 0. -1.
        -13    1    6    6    0    0 -0.26166067303E+02  0.47480662447E+01  0.18566002779E+02  0.32433064462E+02  0.00000000000E+00 0.  1.
         14    1    6    6    0    0 -0.12760448908E+01  0.67650881734E+02  0.24334179176E+03  0.25257374706E+03  0.00000000000E+00 0. -1.
         -5    1    3    3    0  503  0.41211758156E+02 -0.67911948006E+02 -0.41177507432E+02  0.89599770148E+02  0.47000000000E+01 0.  1.
         11    1    4    4    0    0 -0.17745143882E+02 -0.14412387170E+01  0.48603967215E+01  0.18455101103E+02  0.00000000000E+00 0. -1.
        -12    1    4    4    0    0 -0.51297610025E+02 -0.17975960813E+02 -0.16470535891E+03  0.17344288748E+03  0.00000000000E+00 0.  1.
</event>
<event>
12    1  0.8135779E-002  0.2476076E+03  0.7818608E-02  0.1115053E+00
         21   -1    0    0  501  502  0.00000000000E+00  0.00000000000E+00  0.39662982397E+03  0.39662982397E+03  0.00000000000E+00 0.  1.
         21   -1    0    0  502  503 -0.00000000000E+00 -0.00000000000E+00 -0.17917834140E+03  0.17917834140E+03  0.00000000000E+00 0. -1.
         -6    2    1    2    0  503 -0.32323126674E+02 -0.17300453959E+03 -0.11350014781E+00  0.24619619954E+03  0.17215458330E+03 0.  0.
        -24    2    3    3    0    0 -0.28306868288E+02 -0.17528233977E+02 -0.20197276857E+02  0.89306238025E+02  0.80368876930E+02 0.  0.
          6    2    1    2  501    0  0.32323126674E+02  0.17300453959E+03  0.21756498272E+03  0.32961196583E+03  0.17416707805E+03 0.  0.
         24    2    5    5    0    0  0.12623076427E+00  0.71703851843E+02  0.19177885886E+03  0.22013373225E+03  0.80859576219E+02 0.  0.
          5    1    5    5  501    0  0.32196895909E+02  0.10130068775E+03  0.25786123858E+02  0.10947823358E+03  0.47000000000E+01 0. -1.
        -13    1    6    6    0    0  0.29705121325E+01  0.89485280514E+02  0.16720871511E+03  0.18967127821E+03  0.00000000000E+00 0.  1.
         14    1    6    6    0    0 -0.28442813683E+01 -0.17781428671E+02  0.24570143753E+02  0.30462454040E+02  0.00000000000E+00 0. -1.
         -5    1    3    3    0  503 -0.40162583854E+01 -0.15547630561E+03  0.20083776709E+02  0.15688996152E+03  0.47000000000E+01 0.  1.
         13    1    4    4    0    0 -0.51811666579E+02 -0.30482135474E+02 -0.15227074480E+02  0.62011879297E+02  0.00000000000E+00 0. -1.
        -14    1    4    4    0    0  0.23504798291E+02  0.12953901497E+02 -0.49702023771E+01  0.27294358728E+02  0.00000000000E+00 0.  1.
</event>
<event>
12    1  0.8135779E-002  0.2120694E+03  0.7818608E-02  0.1140190E+00
         21   -1    0    0  501  502  0.00000000000E+00  0.00000000000E+00  0.79330550331E+03  0.79330550331E+03  0.00000000000E+00 0.  1.
         21   -1    0    0  502  503 -0.00000000000E+00 -0.00000000000E+00 -0.85887687080E+02  0.85887687080E+02  0.00000000000E+00 0. -1.
         -6    2    1    2    0  503  0.12354981321E+03  0.75194671900E+00  0.96608659520E+02  0.23303787215E+03  0.17236094394E+03 0.  0.
        -24    2    3    3    0    0  0.13438713199E+03 -0.36205059980E+02  0.10630041281E+03  0.19304677434E+03  0.81219281621E+02 0.  0.
          6    2    1    2  501    0 -0.12354981321E+03 -0.75194671900E+00  0.61080915671E+03  0.64615531824E+03  0.17077396640E+03 0.  0.
         24    2    5    5    0    0 -0.10103320418E+03  0.60650864753E+02  0.35425684336E+03  0.38135637106E+03  0.77772327613E+02 0.  0.
          5    1    5    5  501    0 -0.22516609028E+02 -0.61402811472E+02  0.25655231336E+03  0.26479894718E+03  0.47000000000E+01 0. -1.
        -11    1    6    6    0    0 -0.27444666414E+02 -0.16744509701E+02  0.11372154805E+03  0.11817858863E+03  0.00000000000E+00 0.  1.
         12    1    6    6    0    0 -0.73588537765E+02  0.77395374454E+02  0.24053529531E+03  0.26317778243E+03  0.00000000000E+00 0. -1.
         -5    1    3    3    0  503 -0.10837318786E+02  0.36957006699E+02 -0.96917532852E+01  0.39991097814E+02  0.47000000000E+01 0.  1.
         13    1    4    4    0    0  0.71886986882E+02  0.11945828844E+02  0.18861060047E+02  0.75274041315E+02  0.00000000000E+00 0. -1.
        -14    1    4    4    0    0  0.62500145111E+02 -0.48150888824E+02  0.87439352758E+02  0.11777273303E+03  0.00000000000E+00 0.  1.
</event>
<event>
12    1  0.8135779E-002  0.2137052E+03  0.7818608E-02  0.1138732E+00
         21   -1    0    0  501  502  0.00000000000E+00  0.00000000000E+00  0.21577087148E+03  0.21577087148E+03  0.00000000000E+00 0. -1.
         21   -1    0    0  502  503 -0.00000000000E+00 -0.00000000000E+00 -0.22937896812E+03  0.22937896812E+03  0.00000000000E+00 0. -1.
         -6    2    1    2    0  503 -0.46935481044E+02 -0.12038172109E+03 -0.69256346246E+02  0.22431812371E+03  0.16978657478E+03 0.  0.
        -24    2    3    3    0    0 -0.44676871043E+02 -0.63897540029E+02  0.32647865629E+02  0.10768998633E+03  0.66725794102E+02 0.  0.
          6    2    1    2  501    0  0.46935481044E+02  0.12038172109E+03  0.55648249601E+02  0.22083171589E+03  0.17022109419E+03 0.  0.
         24    2    5    5    0    0  0.16648736624E+02  0.10799569702E+03  0.97113763962E+02  0.16780173040E+03  0.82377706746E+02 0.  0.
          5    1    5    5  501    0  0.30286744420E+02  0.12386024073E+02 -0.41465514361E+02  0.53029985490E+02  0.47000000000E+01 0. -1.
        -11    1    6    6    0    0  0.39116009315E+02  0.19409614205E+02  0.44508692755E+02  0.62352377975E+02  0.00000000000E+00 0.  1.
         12    1    6    6    0    0 -0.22467272691E+02  0.88586082813E+02  0.52605071207E+02  0.10544935243E+03  0.00000000000E+00 0. -1.
         -5    1    3    3    0  503 -0.22586100009E+01 -0.56484181062E+02 -0.10190421187E+03  0.11662813737E+03  0.47000000000E+01 0.  1.
         13    1    4    4    0    0 -0.29319922344E+02 -0.21712069350E+02 -0.17431125020E+02  0.40434093550E+02  0.00000000000E+00 0. -1.
        -14    1    4    4    0    0 -0.15356948699E+02 -0.42185470679E+02  0.50078990649E+02  0.67255892784E+02  0.00000000000E+00 0.  1.
</event>
<event>
12    1  0.8135779E-002  0.1933776E+03  0.7818608E-02  0.1155578E+00
         21   -1    0    0  503  502  0.00000000000E+00  0.00000000000E+00  0.34589329210E+02  0.34589329210E+02  0.00000000000E+00 0. -1.
         21   -1    0    0  501  503 -0.00000000000E+00 -0.00000000000E+00 -0.10814698021E+04  0.10814698021E+04  0.00000000000E+00 0. -1.
          6    2    1    2  501    0  0.54759144763E+02 -0.70538955888E+02 -0.49041605426E+03  0.52695171364E+03  0.17086806020E+03 0.  0.
         24    2    3    3    0    0  0.23732704443E+02 -0.96563147062E+02 -0.45648497162E+03  0.47391109812E+03  0.79533118765E+02 0.  0.
         -6    2    1    2    0  502 -0.54759144763E+02  0.70538955888E+02 -0.55646441863E+03  0.58910741767E+03  0.17152431933E+03 0.  0.
        -24    2    5    5    0    0  0.34578756173E+02  0.27867654672E+02 -0.29994532985E+03  0.31410517514E+03  0.81991240955E+02 0.  0.
          5    1    3    3  501    0  0.31026440320E+02  0.26024191174E+02 -0.33931082647E+02  0.53040615521E+02  0.47000000000E+01 0. -1.
        -13    1    4    4    0    0  0.47166934691E+02 -0.91730466737E+02 -0.35817113537E+03  0.37272746138E+03  0.00000000000E+00 0.  1.
         14    1    4    4    0    0 -0.23434230248E+02 -0.48326803251E+01 -0.98313836244E+02  0.10118363674E+03  0.00000000000E+00 0. -1.
         -5    1    5    5    0  502 -0.89337900936E+02  0.42671301217E+02 -0.25651908878E+03  0.27500224253E+03  0.47000000000E+01 0.  1.
         11    1    6    6    0    0 -0.88667036402E+01 -0.21373588198E+02 -0.12744027453E+03  0.12952402201E+03  0.00000000000E+00 0. -1.
        -12    1    6    6    0    0  0.43445459814E+02  0.49241242870E+02 -0.17250505532E+03  0.18458115313E+03  0.00000000000E+00 0.  1.
</event>
<event>
12    1  0.8135779E-002  0.1882908E+03  0.7818608E-02  0.1160119E+00
         21   -1    0    0  501  502  0.00000000000E+00  0.00000000000E+00  0.11019566161E+03  0.11019566161E+03  0.00000000000E+00 0.  1.
         21   -1    0    0  502  503 -0.00000000000E+00 -0.00000000000E+00 -0.33229910920E+03  0.33229910920E+03  0.00000000000E+00 0.  1.
         -6    2    1    2    0  503  0.20279206076E+02  0.76303728166E+02 -0.69996482688E+02  0.20044115680E+03  0.17042196050E+03 0.  0.
        -24    2    3    3    0    0  0.22472645830E+02  0.11720071171E+03 -0.45527336791E+02  0.15250157460E+03  0.83324457531E+02 0.  0.
          6    2    1    2  501    0 -0.20279206076E+02 -0.76303728166E+02 -0.15210696490E+03  0.24205361401E+03  0.17093834606E+03 0.  0.
         24    2    5    5    0    0 -0.33776312359E+02 -0.76588396955E+02 -0.30817495561E+02  0.11992467278E+03  0.80159760999E+02 0.  0.
          5    1    5    5  501    0  0.13497106283E+02  0.28466878847E+00 -0.12128946933E+03  0.12212894123E+03  0.47000000000E+01 0. -1.
        -13    1    6    6    0    0 -0.55354680969E+02 -0.27713770195E+02 -0.10624787002E+02  0.62809870740E+02  0.00000000000E+00 0.  1.
         14    1    6    6    0    0  0.21578368610E+02 -0.48874626760E+02 -0.20192708559E+02  0.57114802037E+02  0.00000000000E+00 0. -1.
         -5    1    3    3    0  503 -0.21934397539E+01 -0.40896983545E+02 -0.24469145898E+02  0.47939582205E+02  0.47000000000E+01 0.  1.
         11    1    4    4    0    0 -0.18711477713E+02  0.23097114502E+01  0.63361964470E+01  0.19889734805E+02  0.00000000000E+00 0. -1.
        -12    1    4    4    0    0  0.41184123543E+02  0.11489100026E+03 -0.51863533238E+02  0.13261183979E+03  0.00000000000E+00 0.  1.
</event>
<event>
12    1  0.8135779E-002  0.1842514E+03  0.7818608E-02  0.1164017E+00
         21   -1    0    0  501  502  0.00000000000E+00  0.00000000000E+00  0.53708366647E+03  0.53708366647E+03  0.00000000000E+00 0.  1.
         21   -1    0    0  502  503 -0.00000000000E+00 -0.00000000000E+00 -0.13721159074E+03  0.13721159074E+03  0.00000000000E+00 0.  1.
         -6    2    1    2    0  503  0.17622275501E+02  0.64416870476E+02 -0.48027764533E+02  0.19040810294E+03  0.17172216427E+03 0.  0.
        -24    2    3    3    0    0  0.60657587260E+00  0.20134808534E+02 -0.90285583089E+02  0.12670372104E+03  0.86582723238E+02 0.  0.
          6    2    1    2  501    0 -0.17622275501E+02 -0.64416870476E+02  0.44789984026E+03  0.48388715427E+03  0.17050640273E+03 0.  0.
         24    2    5    5    0    0  0.43499045059E+01 -0.11324482260E+03  0.32155614682E+03  0.34658542641E+03  0.62287966136E+02 0.  0.
          5    1    5    5  501    0 -0.21972180007E+02  0.48827952128E+02  0.12634369344E+03  0.13730172787E+03  0.47000000000E+01 0. -1.
        -13    1    6    6    0    0  0.20955700250E+02 -0.15585962177E+02  0.10891263378E+03  0.11200011334E+03  0.00000000000E+00 0.  1.
         14    1    6    6    0    0 -0.16605795744E+02 -0.97658860427E+02  0.21264351303E+03  0.23458531307E+03  0.00000000000E+00 0. -1.
         -5    1    3    3    0  503  0.17015699628E+02  0.44282061942E+02  0.42257818557E+02  0.63704381897E+02  0.47000000000E+01 0.  1.
         11    1    4    4    0    0  0.42028690166E+02  0.15089494680E+02 -0.31642887938E+02  0.54730028355E+02  0.00000000000E+00 0. -1.
        -12    1    4    4    0    0 -0.41422114293E+02  0.50453138537E+01 -0.58642695151E+02  0.71973692687E+02  0.00000000000E+00 0.  1.
</event>
<event>
12    1  0.8135779E-002  0.1847209E+03  0.7818608E-02  0.1163435E+00
         21   -1    0    0  501  502  0.00000000000E+00  0.00000000000E+00  0.71906939470E+02  0.71906939470E+02  0.00000000000E+00 0. -1.
         21   -1    0    0  502  503 -0.00000000000E+00 -0.00000000000E+00 -0.54304621439E+03  0.54304621439E+03  0.00000000000E+00 0. -1.
         -6    2    1    2    0  503 -0.15426300426E+02 -0.66406799257E+02 -0.34557344372E+03  0.39159557764E+03  0.17110890594E+03 0.  0.
        -24    2    3    3    0    0 -0.44047065077E+02 -0.86889625423E+02 -0.16475610771E+03  0.20732487097E+03  0.79681090269E+02 0.  0.
          6    2    1    2  501    0  0.15426300426E+02  0.66406799257E+02 -0.12556583120E+03  0.22335757622E+03  0.17167992066E+03 0.  0.
         24    2    5    5    0    0  0.23775161267E+02 -0.26803930700E+02 -0.35173151171E+02  0.93162068386E+02  0.78474909547E+02 0.  0.
          5    1    5    5  501    0 -0.83488608410E+01  0.93210729957E+02 -0.90392680031E+02  0.13019550783E+03  0.47000000000E+01 0. -1.
        -11    1    6    6    0    0  0.41101101772E+02 -0.15065311044E+02  0.86286291457E+01  0.44617456277E+02  0.00000000000E+00 0.  1.
         12    1    6    6    0    0 -0.17325940506E+02 -0.11738619657E+02 -0.43801780317E+02  0.48544612108E+02  0.00000000000E+00 0. -1.
         -5    1    3    3    0  503  0.28620764651E+02  0.20482826166E+02 -0.18081733601E+03  0.18427070667E+03  0.47000000000E+01 0.  1.
         11    1    4    4    0    0  0.16448033587E+02 -0.26152267119E+01 -0.49651752668E+02  0.52370542891E+02  0.00000000000E+00 0. -1.
        -12    1    4    4    0    0 -0.60495098664E+02 -0.84274398711E+02 -0.11510435504E+03  0.15495432808E+03  0.00000000000E+00 0.  1.
</event>
<event>
12    1  0.8135779E-002  0.3552066E+03  0.7818608E-02  0.1060502E+00
         21   -1    0    0  501  502  0.00000000000E+00  0.00000000000E+00  0.16071022935E+03  0.16071022935E+03  0.00000000000E+00 0.  1.
         21   -1    0    0  502  503 -0.00000000000E+00 -0.00000000000E+00 -0.82886424887E+03  0.82886424887E+03  0.00000000000E+00 0. -1.
         -6    2    1    2    0  503  0.11742362366E+03 -0.28785628094E+03 -0.44791558201E+03  0.57166435157E+03  0.17182030257E+03 0.  0.
        -24    2    3    3    0    0  0.15233284218E+03 -0.25130951736E+03 -0.39647203679E+03  0.49939507863E+03  0.76443444966E+02 0.  0.
          6    2    1    2  501    0 -0.11742362366E+03  0.28785628094E+03 -0.22023843751E+03  0.41791012665E+03  0.17173921722E+03 0.  0.
         24    2    5    5    0    0 -0.85006644762E+02  0.25624234608E+03 -0.23441531665E+03  0.37023020110E+03  0.96091578951E+02 0.  0.
          5    1    5    5  501    0 -0.32416978896E+02  0.31613934859E+02  0.14176879147E+02  0.47679925549E+02  0.47000000000E+01 0. -1.
        -13    1    6    6    0    0 -0.99795295557E+02  0.15751585139E+03 -0.16026268821E+03  0.24587491472E+03  0.00000000000E+00 0.  1.
         14    1    6    6    0    0  0.14788650795E+02  0.98726494691E+02 -0.74152628443E+02  0.12435528638E+03  0.00000000000E+00 0. -1.
         -5    1    3    3    0  503 -0.34909218524E+02 -0.36546763579E+02 -0.51443545215E+02  0.72269272934E+02  0.47000000000E+01 0.  1.
         13    1    4    4    0    0  0.13650162267E+03 -0.24909295150E+03 -0.35307041778E+03  0.45314314669E+03  0.00000000000E+00 0. -1.
        -14    1    4    4    0    0  0.15831219513E+02 -0.22165658615E+01 -0.43401619018E+02  0.46251931947E+02  0.00000000000E+00 0.  1.
</event>
<event>
12    1  0.8135779E-002  0.2116001E+03  0.7818608E-02  0.1142999E+00
         21   -1    0    0  501  502  0.00000000000E+00  0.00000000000E+00  0.78793311189E+03  0.78793311189E+03  0.00000000000E+00 0.  1.
         21   -1    0    0  502  503 -0.00000000000E+00 -0.00000000000E+00 -0.55087745156E+02  0.55087745156E+02  0.00000000000E+00 0.  1.
         -6    2    1    2    0  503 -0.69572383533E+02  0.10180392434E+03  0.30235990009E+03  0.36904759369E+03  0.17196005834E+03 0.  0.
        -24    2    3    3    0    0 -0.77033238725E+02  0.15396997182E+02  0.23035318983E+03  0.25622526547E+03  0.80109969499E+02 0.  0.
          6    2    1    2  501    0  0.69572383533E+02 -0.10180392434E+03  0.43048546664E+03  0.47397326335E+03  0.15533371117E+03 0.  0.
         24    2    5    5    0    0  0.40765457437E+02 -0.49340091363E+01  0.13489447549E+03  0.16154768260E+03  0.78835063702E+02 0.  0.
          5    1    5    5  501    0  0.28806926097E+02 -0.96869915201E+02  0.29559099115E+03  0.31242558076E+03  0.47000000000E+01 0. -1.
        -13    1    6    6    0    0  0.13375310895E+02 -0.34707363467E+02  0.10457036726E+03  0.11098856575E+03  0.00000000000E+00 0.  1.
         14    1    6    6    0    0  0.27390146542E+02  0.29773354331E+02  0.30324108231E+02  0.50559116840E+02  0.00000000000E+00 0. -1.
         -5    1    3    3    0  503  0.74608551915E+01  0.86406927155E+02  0.72006710267E+02  0.11282232822E+03  0.47000000000E+01 0.  1.
         11    1    4    4    0    0 -0.28779126675E+02 -0.23508496283E+02  0.34168499668E+02  0.50481421327E+02  0.00000000000E+00 0. -1.
        -12    1    4    4    0    0 -0.48254112050E+02  0.38905493465E+02  0.19618469016E+03  0.20574384415E+03  0.00000000000E+00 0.  1.
</event>
<event>
12    1  0.8135779E-002  0.1748378E+03  0.7818608E-02  0.1173061E+00
         21   -1    0    0  501  502  0.00000000000E+00  0.00000000000E+00  0.25515671693E+03  0.25515671693E+03  0.00000000000E+00 0. -1.
         21   -1    0    0  502  503 -0.00000000000E+00 -0.00000000000E+00 -0.29625365226E+03  0.29625365226E+03  0.00000000000E+00 0. -1.
         -6    2    1    2    0  503 -0.20963301658E+02  0.16674278091E+02 -0.23358313049E+03  0.29137344944E+03  0.17210437713E+03 0.  0.
        -24    2    3    3    0    0 -0.32032858477E+02  0.75724669168E+02 -0.15489641447E+03  0.19226152760E+03  0.78811586944E+02 0.  0.
          6    2    1    2  501    0  0.20963301658E+02 -0.16674278091E+02  0.19248619515E+03  0.26003691975E+03  0.17277376173E+03 0.  0.
         24    2    5    5    0    0 -0.26007554487E+02 -0.27320790341E+02  0.18749357371E+03  0.21138894118E+03  0.90047908321E+02 0.  0.
          5    1    5    5  501    0  0.46970856144E+02  0.10646512250E+02  0.49926214347E+01  0.48647978569E+02  0.47000000000E+01 0. -1.
        -13    1    6    6    0    0 -0.41100023498E+02 -0.24013240711E+02  0.37489743277E+02  0.60591488775E+02  0.00000000000E+00 0.  1.
         14    1    6    6    0    0  0.15092469011E+02 -0.33075496299E+01  0.15000383044E+03  0.15079745240E+03  0.00000000000E+00 0. -1.
         -5    1    3    3    0  503  0.11069556819E+02 -0.59050391077E+02 -0.78686716010E+02  0.99111921841E+02  0.47000000000E+01 0.  1.
         13    1    4    4    0    0 -0.55460105616E+02  0.37538890295E+02 -0.74120684955E+02  0.99894281807E+02  0.00000000000E+00 0. -1.
        -14    1    4    4    0    0  0.23427247139E+02  0.38185778873E+02 -0.80775729520E+02  0.92367245797E+02  0.00000000000E+00 0.  1.
</event>
<event>
12    1  0.8135779E-002  0.1877314E+03  0.7818608E-02  0.1163277E+00
         21   -1    0    0  501  502  0.00000000000E+00  0.00000000000E+00  0.76001280257E+03  0.76001280257E+03  0.00000000000E+00 0.  1.
         21   -1    0    0  502  503 -0.00000000000E+00 -0.00000000000E+00 -0.43605809355E+02  0.43605809355E+02  0.00000000000E+00 0.  1.
         -6    2    1    2    0  503 -0.64555378314E+01 -0.74030024777E+02  0.36164895048E+03  0.40225053139E+03  0.15966655279E+03 0.  0.
        -24    2    3    3    0    0 -0.47144619161E+02 -0.56095544207E+02  0.32842916778E+03  0.34654693280E+03  0.82823506262E+02 0.  0.
          6    2    1    2  501    0  0.64555378314E+01  0.74030024777E+02  0.35475804274E+03  0.40136808054E+03  0.17239764689E+03 0.  0.
         24    2    5    5    0    0 -0.35621558955E+02  0.14181985002E+02  0.29018515334E+03  0.30367459056E+03  0.80875271713E+02 0.  0.
          5    1    5    5  501    0  0.42077096786E+02  0.59848039776E+02  0.64572889397E+02  0.97693489977E+02  0.47000000000E+01 0. -1.
        -11    1    6    6    0    0 -0.16462800958E+02  0.47883051656E+02  0.15709284312E+03  0.16505142172E+03  0.00000000000E+00 0.  1.
         12    1    6    6    0    0 -0.19158757996E+02 -0.33701066655E+02  0.13309231022E+03  0.13862316885E+03  0.00000000000E+00 0. -1.
         -5    1    3    3    0  503  0.40689081330E+02 -0.17934480570E+02  0.33219782707E+02  0.55703598590E+02  0.47000000000E+01 0.  1.
         11    1    4    4    0    0  0.23139427964E+02 -0.68332774451E+01  0.88422967643E+02  0.91655594558E+02  0.00000000000E+00 0. -1.
        -12    1    4    4    0    0 -0.70284047125E+02 -0.49262266762E+02  0.24000620013E+03  0.25489133824E+03  0.00000000000E+00 0.  1.
</event>
<event>
12    1  0.8135779E-002  0.2220129E+03  0.7818608E-02  0.1132495E+00
         21   -1    0    0  503  502  0.00000000000E+00  0.00000000000E+00  0.16370802644E+03  0.16370802644E+03  0.00000000000E+00 0.  1.
         21   -1    0    0  501  503 -0.00000000000E+00 -0.00000000000E+00 -0.32499135698E+03  0.32499135698E+03  0.00000000000E+00 0. -1.
          6    2    1    2  501    0  0.88449673028E+02 -0.10826168619E+03 -0.14806502564E+03  0.26685756827E+03  0.17246962796E+03 0.  0.
         24    2    3    3    0    0  0.83984317035E+02 -0.94053837686E+02 -0.35248644379E+02  0.15296539012E+03  0.79097748080E+02 0.  0.
         -6    2    1    2    0  502 -0.88449673028E+02  0.10826168619E+03 -0.13218304894E+02  0.22184181515E+03  0.17174146269E+03 0.  0.
        -24    2    5    5    0    0 -0.29556668056E+02  0.29618237640E+02 -0.62983763424E+02  0.11160629956E+03  0.82086387536E+02 0.  0.
          5    1    3    3  501    0  0.44653559932E+01 -0.14207848503E+02 -0.11281638127E+03  0.11389217816E+03  0.47000000000E+01 0. -1.
        -13    1    4    4    0    0  0.38929929904E+02 -0.97897474447E-01  0.86771591404E+01  0.39885362190E+02  0.00000000000E+00 0.  1.
         14    1    4    4    0    0  0.45054387130E+02 -0.93955940212E+02 -0.43925803519E+02  0.11308002793E+03  0.00000000000E+00 0. -1.
         -5    1    5    5    0  502 -0.58893004972E+02  0.78643448548E+02  0.49765458529E+02  0.11023551559E+03  0.47000000000E+01 0.  1.
         11    1    6    6    0    0  0.16949292878E+02  0.36400030914E+02 -0.11221789896E+02  0.41691358195E+02  0.00000000000E+00 0. -1.
        -12    1    6    6    0    0 -0.46505960934E+02 -0.67817932740E+01 -0.51761973527E+02  0.69914941364E+02  0.00000000000E+00 0.  1.
</event>
<event>
12    1  0.8135779E-002  0.3293402E+03  0.7818608E-02  0.1071474E+00
         21   -1    0    0  501  502  0.00000000000E+00  0.00000000000E+00  0.16534434491E+03  0.16534434491E+03  0.00000000000E+00 0.  1.
         21   -1    0    0  502  503 -0.00000000000E+00 -0.00000000000E+00 -0.68822114504E+03  0.68822114504E+03  0.00000000000E+00 0. -1.
         -6    2    1    2    0  503  0.24277149795E+03  0.14173334776E+03 -0.35478395150E+03  0.48380859635E+03  0.17080036176E+03 0.  0.
        -24    2    3    3    0    0  0.12647994491E+03  0.46675754537E+02 -0.26924856089E+03  0.31089802876E+03  0.77375669435E+02 0.  0.
          6    2    1    2  501    0 -0.24277149795E+03 -0.14173334776E+03 -0.16809284863E+03  0.36975689361E+03  0.17157684146E+03 0.  0.
         24    2    5    5    0    0 -0.59777529845E+02 -0.88962013713E+02 -0.10153496381E+03  0.16795588248E+03  0.80076442391E+02 0.  0.
          5    1    5    5  501    0 -0.18299396811E+03 -0.52771334044E+02 -0.66557884817E+02  0.20180101113E+03  0.47000000000E+01 0. -1.
        -11    1    6    6    0    0 -0.11887650603E+02 -0.64649392638E+02 -0.17157797074E+02  0.67935632814E+02  0.00000000000E+00 0.  1.
         12    1    6    6    0    0 -0.47889879242E+02 -0.24312621075E+02 -0.84377166734E+02  0.10002024967E+03  0.00000000000E+00 0. -1.
         -5    1    3    3    0  503  0.11629155304E+03  0.95057593220E+02 -0.85535390616E+02  0.17291056759E+03  0.47000000000E+01 0.  1.
         13    1    4    4    0    0  0.28296894232E+02  0.45530356236E+02 -0.12898746200E+03  0.13968354561E+03  0.00000000000E+00 0. -1.
        -14    1    4    4    0    0  0.98183050678E+02  0.11453983010E+01 -0.14026109889E+03  0.17121448315E+03  0.00000000000E+00 0.  1.
</event>
<event>
12    1  0.8135779E-002  0.2718067E+03  0.7818608E-02  0.1100257E+00
         21   -1    0    0  501  502  0.00000000000E+00  0.00000000000E+00  0.68203740486E+02  0.68203740486E+02  0.00000000000E+00 0. -1.
         21   -1    0    0  502  503 -0.00000000000E+00 -0.00000000000E+00 -0.10994013573E+04  0.10994013573E+04  0.00000000000E+00 0. -1.
         -6    2    1    2    0  503  0.49651709650E+02  0.20458513042E+03 -0.58689657999E+03  0.64678164628E+03  0.17192595644E+03 0.  0.
        -24    2    3    3    0    0  0.12572562397E+02  0.18076402416E+03 -0.31947756257E+03  0.37571462663E+03  0.79131952594E+02 0.  0.
          6    2    1    2  501    0 -0.49651709650E+02 -0.20458513042E+03 -0.44430103684E+03  0.52082345152E+03  0.17185251949E+03 0.  0.
         24    2    5    5    0    0 -0.70723537184E+02 -0.56037782013E+02 -0.22257642398E+03  0.25306566810E+03  0.79749082336E+02 0.  0.
          5    1    5    5  501    0  0.21071827535E+02 -0.14854734841E+03 -0.22172461286E+03  0.26775778343E+03  0.47000000000E+01 0. -1.
        -13    1    6    6    0    0 -0.48006517640E+02 -0.76070372862E+02 -0.17241863236E+03  0.19447239431E+03  0.00000000000E+00 0.  1.
         14    1    6    6    0    0 -0.22717019544E+02  0.20032590850E+02 -0.50157791617E+02  0.58593273786E+02  0.00000000000E+00 0. -1.
         -5    1    3    3    0  503  0.37079147253E+02  0.23821106264E+02 -0.26741901742E+03  0.27106701965E+03  0.47000000000E+01 0.  1.
         13    1    4    4    0    0  0.13911536602E+02  0.18791691653E+03 -0.31532358077E+03  0.36733534946E+03  0.00000000000E+00 0. -1.
        -14    1    4    4    0    0 -0.13389742052E+01 -0.71528923684E+01 -0.41539817943E+01  0.83792771708E+01  0.00000000000E+00 0.  1.
</event>
<event>
12    1  0.8135779E-002  0.2611519E+03  0.7818608E-02  0.1108464E+00
         21   -1    0    0  501  502  0.00000000000E+00  0.00000000000E+00  0.18026967945E+04  0.18026967945E+04  0.00000000000E+00 0. -1.
         21   -1    0    0  502  503 -0.00000000000E+00 -0.00000000000E+00 -0.38885757577E+02  0.38885757577E+02  0.00000000000E+00 0. -1.
         -6    2    1    2    0  503  0.13184931056E+03  0.14431862760E+03  0.60838025702E+03  0.65700641941E+03  0.15270491494E+03 0.  0.
        -24    2    3    3    0    0  0.12847382042E+03  0.10320906708E+03  0.57548383120E+03  0.60403798795E+03  0.80762719450E+02 0.  0.
          6    2    1    2  501    0 -0.13184931056E+03 -0.14431862760E+03  0.11554307799E+04  0.11845761327E+04  0.17317107142E+03 0.  0.
         24    2    5    5    0    0 -0.33275594513E+02 -0.13171749718E+03  0.59929366822E+03  0.61961052047E+03  0.79419972607E+02 0.  0.
          5    1    5    5  501    0 -0.98573716042E+02 -0.12601130414E+02  0.55613711168E+03  0.56496561220E+03  0.47000000000E+01 0. -1.
        -11    1    6    6    0    0 -0.20518995918E+02 -0.49367571011E+01  0.33097727477E+02  0.39253793808E+02  0.00000000000E+00 0.  1.
         12    1    6    6    0    0 -0.12756598595E+02 -0.12678074008E+03  0.56619594074E+03  0.58035672666E+03  0.00000000000E+00 0. -1.
         -5    1    3    3    0  503  0.33754901332E+01  0.41109560518E+02  0.32896425826E+02  0.52968431464E+02  0.47000000000E+01 0.  1.
         11    1    4    4    0    0  0.34586676492E+02  0.77199983397E+02  0.30629748533E+03  0.31776441769E+03  0.00000000000E+00 0. -1.
        -12    1    4    4    0    0  0.93887143930E+02  0.26009083681E+02  0.26918634586E+03  0.28627357026E+03  0.00000000000E+00 0.  1.
</event>
<event>
12    1  0.8135779E-002  0.2475305E+03  0.7818608E-02  0.1115271E+00
         21   -1    0    0  503  502  0.00000000000E+00  0.00000000000E+00  0.13124198081E+04  0.13124198081E+04  0.00000000000E+00 0. -1.
         21   -1    0    0  501  503 -0.00000000000E+00 -0.00000000000E+00 -0.53027759713E+02  0.53027759713E+02  0.00000000000E+00 0. -1.
          6    2    1    2  501    0 -0.14561499567E+03  0.97372990840E+02  0.87699965426E+03  0.91126270768E+03  0.17488882905E+03 0.  0.
         24    2    3    3    0    0 -0.12026436001E+03  0.79514683782E+02  0.85739595468E+03  0.87427664413E+03  0.91900631928E+02 0.  0.
         -6    2    1    2    0  502  0.14561499567E+03 -0.97372990840E+02  0.38239239414E+03  0.45418486014E+03  0.17139054169E+03 0.  0.
        -24    2    5    5    0    0  0.69051127929E+02 -0.95624048720E+02  0.33154980075E+03  0.36214061022E+03  0.85489965673E+02 0.  0.
          5    1    3    3  501    0 -0.25350635660E+02  0.17858307058E+02  0.19603699577E+02  0.36986063543E+02  0.47000000000E+01 0. -1.
        -11    1    4    4    0    0  0.58322052492E+01 -0.11913298654E+02  0.11192838284E+03  0.11271159740E+03  0.00000000000E+00 0.  1.
         12    1    4    4    0    0 -0.12609656526E+03  0.91427982436E+02  0.74546757184E+03  0.76156504673E+03  0.00000000000E+00 0. -1.
         -5    1    5    5    0  502  0.76563867740E+02 -0.17489421197E+01  0.50842593383E+02  0.92044249922E+02  0.47000000000E+01 0.  1.
         11    1    6    6    0    0  0.73140332826E+02 -0.10917600591E+03  0.29501481147E+03  0.32295920414E+03  0.00000000000E+00 0. -1.
        -12    1    6    6    0    0 -0.40892048968E+01  0.13551957195E+02  0.36534989287E+02  0.39181406084E+02  0.00000000000E+00 0.  1.
</event>
<event>
12    1  0.8135779E-002  0.2914451E+03  0.7818608E-02  0.1089683E+00
         21   -1    0    0  503  502  0.00000000000E+00  0.00000000000E+00  0.23535887847E+04  0.23535887847E+04  0.00000000000E+00 0.  1.
         21   -1    0    0  501  503 -0.00000000000E+00 -0.00000000000E+00 -0.45759331770E+02  0.45759331770E+02  0.00000000000E+00 0.  1.
          6    2    1    2  501    0 -0.18761543190E+03 -0.14192409866E+03  0.59909167038E+03  0.66593383486E+03  0.17092408498E+03 0.  0.
         24    2    3    3    0    0 -0.31125869872E+02 -0.12878663027E+02  0.15434245338E+03  0.17709269144E+03  0.80034671915E+02 0.  0.
         -6    2    1    2    0  502  0.18761543190E+03  0.14192409866E+03  0.17087377826E+04  0.17334142816E+04  0.17204145462E+03 0.  0.
        -24    2    5    5    0    0  0.17974047534E+02  0.29948465641E+02  0.46494616912E+03  0.47311415492E+03  0.80262609188E+02 0.  0.
          5    1    3    3  501    0 -0.15648956203E+03 -0.12904543563E+03  0.44474921700E+03  0.48884114342E+03  0.47000000000E+01 0. -1.
        -11    1    4    4    0    0 -0.53111603489E+02 -0.70141649306E+01  0.14071866194E+03  0.15057152039E+03  0.00000000000E+00 0.  1.
         12    1    4    4    0    0  0.21985733617E+02 -0.58644980965E+01  0.13623791448E+02  0.26521171053E+02  0.00000000000E+00 0. -1.
         -5    1    5    5    0  502  0.16964138437E+03  0.11197563302E+03  0.12437916135E+04  0.12603001267E+04  0.47000000000E+01 0.  1.
         11    1    6    6    0    0  0.88279436918E+01  0.14024359729E+02  0.44742788624E+03  0.44773466321E+03  0.00000000000E+00 0. -1.
        -12    1    6    6    0    0  0.91461038422E+01  0.15924105912E+02  0.17518282874E+02  0.25379491710E+02  0.00000000000E+00 0.  1.
</event>
<event>
12    1  0.8135779E-002  0.2723033E+03  0.7818608E-02  0.1100311E+00
         21   -1    0    0  501  502  0.00000000000E+00  0.00000000000E+00  0.10800070367E+04  0.10800070367E+04  0.00000000000E+00 0.  1.
         21   -1    0    0  502  503 -0.00000000000E+00 -0.00000000000E+00 -0.22916628429E+03  0.22916628429E+03  0.00000000000E+00 0. -1.
         -6    2    1    2    0  503  0.20403640074E+03  0.39778522066E+02 -0.12287630440E+03  0.29874351146E+03  0.17588608761E+03 0.  0.
        -24    2    3    3    0    0  0.13064984427E+03  0.59821512933E+02 -0.12946645811E+02  0.16497532395E+03  0.80007791233E+02 0.  0.
          6    2    1    2  501    0 -0.20403640074E+03 -0.39778522066E+02  0.97371705685E+03  0.10104298096E+04  0.17213456830E+03 0.  0.
         24    2    5    5    0    0 -0.19131393423E+03 -0.24697894016E+02  0.96668699497E+03  0.98896359736E+03  0.79713507334E+02 0.  0.
          5    1    5    5  501    0 -0.12722466505E+02 -0.15080628050E+02  0.70300618793E+01  0.21466212204E+02  0.47000000000E+01 0. -1.
        -13    1    6    6    0    0 -0.26167391645E+02  0.23458679374E+02  0.12324118468E+03  0.12815393722E+03  0.00000000000E+00 0.  1.
         14    1    6    6    0    0 -0.16514654259E+03 -0.48156573391E+02  0.84344581030E+03  0.86080966014E+03  0.00000000000E+00 0. -1.
         -5    1    3    3    0  503  0.73386556473E+02 -0.20042990867E+02 -0.10992965859E+03  0.13376818752E+03  0.47000000000E+01 0.  1.
         13    1    4    4    0    0  0.77580014060E+02  0.31456606183E+02 -0.46823818171E+02  0.95920001054E+02  0.00000000000E+00 0. -1.
        -14    1    4    4    0    0  0.53069830207E+02  0.28364906750E+02  0.33877172360E+02  0.69055322895E+02  0.00000000000E+00 0.  1.
</event>
<event>
12    1  0.8135779E-002  0.2516573E+03  0.7818608E-02  0.1112888E+00
         21   -1    0    0  503  502  0.00000000000E+00  0.00000000000E+00  0.10971209974E+03  0.10971209974E+03  0.00000000000E+00 0.  1.
         21   -1    0    0  501  503 -0.00000000000E+00 -0.00000000000E+00 -0.71007084982E+03  0.71007084982E+03  0.00000000000E+00 0.  1.
          6    2    1    2  501    0  0.36633746293E+02 -0.18020840554E+03 -0.48530352216E+03  0.54667256909E+03  0.17179723041E+03 0.  0.
         24    2    3    3    0    0 -0.22436528692E+02 -0.16684699859E+03 -0.39485491198E+03  0.43771906678E+03  0.85710332789E+02 0.  0.
         -6    2    1    2    0  502 -0.36633746293E+02  0.18020840554E+03 -0.11505522792E+03  0.27311038047E+03  0.16593514894E+03 0.  0.
        -24    2    5    5    0    0 -0.70911011374E+02  0.18376745797E+03 -0.98750894348E+02  0.23469789489E+03  0.80823960471E+02 0.  0.
          5    1    3    3  501    0  0.59070274985E+02 -0.13361406950E+02 -0.90448610178E+02  0.10895350231E+03  0.47000000000E+01 0. -1.
        -13    1    4    4    0    0  0.19319030922E+02 -0.40074883525E+02 -0.17460159676E+03  0.18018029536E+03  0.00000000000E+00 0.  1.
         14    1    4    4    0    0 -0.41755559614E+02 -0.12677211506E+03 -0.22025331522E+03  0.25753877141E+03  0.00000000000E+00 0. -1.
         -5    1    5    5    0  502  0.34277265081E+02 -0.35590524319E+01 -0.16304333573E+02  0.38412485586E+02  0.47000000000E+01 0.  1.
         13    1    6    6    0    0 -0.95947468959E+01 -0.69333888053E+01 -0.10423346488E+02  0.15772672580E+02  0.00000000000E+00 0. -1.
        -14    1    6    6    0    0 -0.61316264478E+02  0.19070084677E+03 -0.88327547861E+02  0.21892522231E+03  0.00000000000E+00 0.  1.
</event>
<event>
12    1  0.8135779E-002  0.1824754E+03  0.7818608E-02  0.1165979E+00
         21   -1    0    0  503  502  0.00000000000E+00  0.00000000000E+00  0.43457244640E+03  0.43457244640E+03  0.00000000000E+00 0.  1.
         21   -1    0    0  501  503 -0.00000000000E+00 -0.00000000000E+00 -0.77258943058E+02  0.77258943058E+02  0.00000000000E+00 0.  1.
          6    2    1    2  501    0  0.12751147873E+02  0.33743304844E+02  0.21661459051E+03  0.28322987956E+03  0.17887448522E+03 0.  0.
         24    2    3    3    0    0  0.58910315079E+02  0.54223686121E+02  0.19937316692E+03  0.22966243216E+03  0.81145176674E+02 0.  0.
         -6    2    1    2    0  502 -0.12751147873E+02 -0.33743304844E+02  0.14069891283E+03  0.22860150990E+03  0.17652553317E+03 0.  0.
        -24    2    5    5    0    0  0.27271430669E+02  0.22269863995E+02  0.13383018198E+03  0.15925779107E+03  0.78821625435E+02 0.  0.
          5    1    3    3  501    0 -0.46159167205E+02 -0.20480381276E+02  0.17241423592E+02  0.53567447408E+02  0.47000000000E+01 0. -1.
        -11    1    4    4    0    0  0.72273601124E+02  0.57123859777E+02  0.13232693608E+03  0.16123593516E+03  0.00000000000E+00 0.  1.
         12    1    4    4    0    0 -0.13363286046E+02 -0.29001736560E+01  0.67046230840E+02  0.68426496995E+02  0.00000000000E+00 0. -1.
         -5    1    5    5    0  502 -0.40022578542E+02 -0.56013168839E+02  0.68687308550E+01  0.69343718822E+02  0.47000000000E+01 0.  1.
         11    1    6    6    0    0  0.17729050840E+02 -0.17975084473E+02  0.10704354019E+03  0.10998064558E+03  0.00000000000E+00 0. -1.
        -12    1    6    6    0    0  0.95423798284E+01  0.40244948468E+02  0.26786641792E+02  0.49277145498E+02  0.00000000000E+00 0.  1.
</event>
<event>
12    1  0.8135779E-002  0.1946323E+03  0.7818608E-02  0.1155034E+00
         21   -1    0    0  501  502  0.00000000000E+00  0.00000000000E+00  0.50390685914E+02  0.50390685914E+02  0.00000000000E+00 0.  1.
         21   -1    0    0  502  503 -0.00000000000E+00 -0.00000000000E+00 -0.17728980610E+04  0.17728980610E+04  0.00000000000E+00 0.  1.
         -6    2    1    2    0  503  0.53627954906E+02 -0.70427462581E+02 -0.15542631166E+04  0.15660187077E+04  0.16983748803E+03 0.  0.
        -24    2    3    3    0    0 -0.87868086680E+01 -0.17199162807E+02 -0.11820515410E+04  0.11848463036E+04  0.79005686834E+02 0.  0.
          6    2    1    2  501    0 -0.53627954906E+02  0.70427462581E+02 -0.16824425853E+03  0.25727003921E+03  0.17333712100E+03 0.  0.
         24    2    5    5    0    0  0.23328909978E+02  0.17975949306E+02 -0.13193862178E+03  0.15720151491E+03  0.80231811504E+02 0.  0.
          5    1    5    5  501    0 -0.76956864884E+02  0.52451513275E+02 -0.36305636746E+02  0.10006852431E+03  0.47000000000E+01 0. -1.
        -13    1    6    6    0    0  0.39162193094E+02  0.39606054715E+02 -0.68191492121E+02  0.88047694664E+02  0.00000000000E+00 0.  1.
         14    1    6    6    0    0 -0.15833283116E+02 -0.21630105409E+02 -0.63747129659E+02  0.69153820241E+02  0.00000000000E+00 0. -1.
         -5    1    3    3    0  503  0.62414763574E+02 -0.53228299774E+02 -0.37221157564E+03  0.38117240410E+03  0.47000000000E+01 0.  1.
         11    1    4    4    0    0  0.63621108083E+01  0.12488996401E+02 -0.41406412834E+02  0.43714328415E+02  0.00000000000E+00 0. -1.
        -12    1    4    4    0    0 -0.15148919476E+02 -0.29688159208E+02 -0.11406451281E+04  0.11411319752E+04  0.00000000000E+00 0.  1.
</event>
<event>
12    1  0.8135779E-002  0.2749716E+03  0.7818608E-02  0.1098506E+00
         21   -1    0    0  501  502  0.00000000000E+00  0.00000000000E+00  0.88110528316E+02  0.88110528316E+02  0.00000000000E+00 0. -1.
         21   -1    0    0  502  503 -0.00000000000E+00 -0.00000000000E+00 -0.86510433777E+03  0.86510433777E+03  0.00000000000E+00 0. -1.
         -6    2    1    2    0  503  0.20063794069E+03 -0.75354680007E+02 -0.43404172422E+03  0.51381084841E+03  0.17226566268E+03 0.  0.
        -24    2    3    3    0    0  0.80761881451E+02  0.27523235880E+02 -0.17495092280E+03  0.21032399773E+03  0.79676524924E+02 0.  0.
          6    2    1    2  501    0 -0.20063794069E+03  0.75354680007E+02 -0.34295208524E+03  0.43940401768E+03  0.17183086725E+03 0.  0.
         24    2    5    5    0    0 -0.54912151547E+02  0.83270233410E+02 -0.15717566373E+03  0.20311260777E+03  0.81248175408E+02 0.  0.
          5    1    5    5  501    0 -0.14572578914E+03 -0.79155534028E+01 -0.18577642150E+03  0.23629140990E+03  0.47000000000E+01 0. -1.
        -11    1    6    6    0    0 -0.10254678923E+02  0.47151335230E+02 -0.13173553515E+03  0.14029489682E+03  0.00000000000E+00 0.  1.
         12    1    6    6    0    0 -0.44657472624E+02  0.36118898180E+02 -0.25440128587E+02  0.62817710954E+02  0.00000000000E+00 0. -1.
         -5    1    3    3    0  503  0.11987605924E+03 -0.10287791589E+03 -0.25909080142E+03  0.30348685068E+03  0.47000000000E+01 0.  1.
         11    1    4    4    0    0  0.73651852198E+02 -0.41272688507E+01 -0.15647661880E+03  0.17299295336E+03  0.00000000000E+00 0. -1.
        -12    1    4    4    0    0  0.71100292534E+01  0.31650504731E+02 -0.18474304001E+02  0.37331044373E+02  0.00000000000E+00 0.  1.
</event>
<event>
12    1  0.8135779E-002  0.1904238E+03  0.7818608E-02  0.1158986E+00
         21   -1    0    0  501  502  0.00000000000E+00  0.00000000000E+00  0.11698794691E+04  0.11698794691E+04  0.00000000000E+00 0. -1.
         21   -1    0    0  502  503 -0.00000000000E+00 -0.00000000000E+00 -0.32533913888E+02  0.32533913888E+02  0.00000000000E+00 0. -1.
         -6    2    1    2    0  503 -0.68633122408E+02  0.22464040156E+02  0.40730441926E+03  0.44794582323E+03  0.17188202933E+03 0.  0.
        -24    2    3    3    0    0  0.10305085043E+02  0.38506833793E+02  0.30368113366E+03  0.31661232734E+03  0.80200772175E+02 0.  0.
          6    2    1    2  501    0  0.68633122408E+02 -0.22464040156E+02  0.73004113600E+03  0.75446755981E+03  0.17619903507E+03 0.  0.
         24    2    5    5    0    0  0.97524086255E+02  0.97147258341E+01  0.65961704781E+03  0.67169194160E+03  0.80436878030E+02 0.  0.
          5    1    5    5  501    0 -0.28890963847E+02 -0.32178765990E+02  0.70424088182E+02  0.82775618203E+02  0.47000000000E+01 0. -1.
        -13    1    6    6    0    0  0.71415091996E+02  0.29657891253E+02  0.27473789679E+03  0.28541306524E+03  0.00000000000E+00 0.  1.
         14    1    6    6    0    0  0.26108994258E+02 -0.19943165419E+02  0.38487915103E+03  0.38627887636E+03  0.00000000000E+00 0. -1.
         -5    1    3    3    0  503 -0.78938207451E+02 -0.16042793637E+02  0.10362328560E+03  0.13133349589E+03  0.47000000000E+01 0.  1.
         11    1    4    4    0    0  0.18962717705E+02  0.18205924584E+02  0.22602638274E+02  0.34668712258E+02  0.00000000000E+00 0. -1.
        -12    1    4    4    0    0 -0.86576326618E+01  0.20300909209E+02  0.28107849538E+03  0.28194361508E+03  0.00000000000E+00 0.  1.
</event>
<event>
12    1  0.8135779E-002  0.2556557E+03  0.7818608E-02  0.1109797E+00
         21   -1    0    0  503  502  0.00000000000E+00  0.00000000000E+00  0.91510096849E+03  0.91510096849E+03  0.00000000000E+00 0.  1.
         21   -1    0    0  501  503 -0.00000000000E+00 -0.00000000000E+00 -0.19803651753E+03  0.19803651753E+03  0.00000000000E+00 0.  1.
          6    2    1    2  501    0 -0.14974135832E+03 -0.11445109730E+03 -0.86516456187E+02  0.26989798671E+03  0.17273765651E+03 0.  0.
         24    2    3    3    0    0 -0.32718280421E+02 -0.96924965913E+01 -0.71820297698E+02  0.11207900098E+03  0.78988080977E+02 0.  0.
         -6    2    1    2    0  502  0.14974135832E+03  0.11445109730E+03  0.80358090715E+03  0.84323949931E+03  0.17259504856E+03 0.  0.
        -24    2    5    5    0    0  0.86121329226E+02  0.14616233041E+01  0.38908847020E+03  0.40891220379E+03  0.91653330986E+02 0.  0.
          5    1    3    3  501    0 -0.11702307789E+03 -0.10475860071E+03 -0.14696158489E+02  0.15781898573E+03  0.47000000000E+01 0. -1.
        -11    1    4    4    0    0 -0.16792558459E+02 -0.43656029753E+02 -0.50899951129E+02  0.69127736679E+02  0.00000000000E+00 0.  1.
         12    1    4    4    0    0 -0.15925721962E+02  0.33963533162E+02 -0.20920346569E+02  0.42951264305E+02  0.00000000000E+00 0. -1.
         -5    1    5    5    0  502  0.63620029090E+02  0.11298947400E+03  0.41449243696E+03  0.43432729551E+03  0.47000000000E+01 0.  1.
         11    1    6    6    0    0 -0.10124223633E+02 -0.23118292852E+02  0.10381894796E+03  0.10684254454E+03  0.00000000000E+00 0. -1.
        -12    1    6    6    0    0  0.96245552859E+02  0.24579916156E+02  0.28526952224E+03  0.30206965925E+03  0.00000000000E+00 0.  1.
</event>
<event>
12    1  0.8135779E-002  0.2265971E+03  0.7818608E-02  0.1129091E+00
         21   -1    0    0  501  502  0.00000000000E+00  0.00000000000E+00  0.66784136401E+02  0.66784136401E+02  0.00000000000E+00 0. -1.
         21   -1    0    0  502  503 -0.00000000000E+00 -0.00000000000E+00 -0.10371967807E+04  0.10371967807E+04  0.00000000000E+00 0. -1.
         -6    2    1    2    0  503 -0.75441242244E+02 -0.12728941777E+03 -0.76645794559E+03  0.79925215768E+03  0.17161658516E+03 0.  0.
        -24    2    3    3    0    0 -0.11018227681E+03 -0.62615744914E+02 -0.57020954518E+03  0.58966888520E+03  0.80682111541E+02 0.  0.
          6    2    1    2  501    0  0.75441242244E+02  0.12728941777E+03 -0.20395469872E+03  0.30472875943E+03  0.17137129510E+03 0.  0.
         24    2    5    5    0    0  0.50016870532E+02  0.48421177963E+02 -0.30938947130E+02  0.11283519980E+03  0.83236206375E+02 0.  0.
          5    1    5    5  501    0  0.25424371713E+02  0.78868239804E+02 -0.17301575159E+03  0.19189355962E+03  0.47000000000E+01 0. -1.
        -11    1    6    6    0    0  0.51891599542E+02 -0.72697085487E+01 -0.19773311334E+02  0.56005094470E+02  0.00000000000E+00 0.  1.
         12    1    6    6    0    0 -0.18747290106E+01  0.55690886512E+02 -0.11165635796E+02  0.56830105332E+02  0.00000000000E+00 0. -1.
         -5    1    3    3    0  503  0.34741034568E+02 -0.64673672854E+02 -0.19624840041E+03  0.20958327249E+03  0.47000000000E+01 0.  1.
         13    1    4    4    0    0 -0.77366633565E+02 -0.77211897453E+02 -0.48564652322E+03  0.49779495640E+03  0.00000000000E+00 0. -1.
        -14    1    4    4    0    0 -0.32815643247E+02  0.14596152539E+02 -0.84563021956E+02  0.91873928799E+02  0.00000000000E+00 0.  1.
</event>
<event>
12    1  0.8135779E-002  0.1857403E+03  0.7818608E-02  0.1162585E+00
         21   -1    0    0  503  502  0.00000000000E+00  0.00000000000E+00  0.41082480285E+02  0.41082480285E+02  0.00000000000E+00 0. -1.
         21   -1    0    0  501  503 -0.00000000000E+00 -0.00000000000E+00 -0.83734402775E+03  0.83734402775E+03  0.00000000000E+00 0. -1.
          6    2    1    2  501    0  0.63913473518E+02 -0.27883263342E+02 -0.37802558605E+03  0.42119213462E+03  0.17215418116E+03 0.  0.
         24    2    3    3    0    0  0.80094164796E+02 -0.20904175080E+02 -0.14041933621E+03  0.18288698905E+03  0.82933714576E+02 0.  0.
         -6    2    1    2    0  502 -0.63913473518E+02  0.27883263342E+02 -0.41823596142E+03  0.45723437341E+03  0.17111266562E+03 0.  0.
        -24    2    5    5    0    0  0.26454458220E+02 -0.87003965128E+01 -0.14999065287E+03  0.17178321680E+03  0.78973048347E+02 0.  0.
          5    1    3    3  501    0 -0.16180691278E+02 -0.69790882629E+01 -0.23760624984E+03  0.23830514557E+03  0.47000000000E+01 0. -1.
        -13    1    4    4    0    0  0.25502989501E+02 -0.43492349825E+02 -0.97826222976E+02  0.11005433598E+03  0.00000000000E+00 0.  1.
         14    1    4    4    0    0  0.54591175295E+02  0.22588174745E+02 -0.42593113233E+02  0.72832653070E+02  0.00000000000E+00 0. -1.
         -5    1    5    5    0  502 -0.90367931738E+02  0.36583659855E+02 -0.26824530855E+03  0.28545115662E+03  0.47000000000E+01 0.  1.
         13    1    6    6    0    0  0.21315055097E+01 -0.18723921901E+02 -0.14343993156E+03  0.14467253552E+03  0.00000000000E+00 0. -1.
        -14    1    6    6    0    0  0.24322952710E+02  0.10023525388E+02 -0.65507213108E+01  0.27110681280E+02  0.00000000000E+00 0.  1.
</event>
<event>
12    1  0.8135779E-002  0.2136352E+03  0.7818608E-02  0.1139794E+00
         21   -1    0    0  503  502  0.00000000000E+00  0.00000000000E+00  0.18901606013E+03  0.18901606013E+03  0.00000000000E+00 0.  1.
         21   -1    0    0  501  503 -0.00000000000E+00 -0.00000000000E+00 -0.23735292103E+03  0.23735292103E+03  0.00000000000E+00 0.  1.
          6    2    1    2  501    0  0.12230257174E+03  0.37324154662E+02 -0.47305025844E+01  0.21368754974E+03  0.17114023397E+03 0.  0.
         24    2    3    3    0    0  0.64258245414E+02  0.19551957726E+02 -0.75656335063E+02  0.12021264126E+03  0.64929168559E+02 0.  0.
         -6    2    1    2    0  502 -0.12230257174E+03 -0.37324154662E+02 -0.43606358322E+02  0.21268143142E+03  0.16425853162E+03 0.  0.
        -24    2    5    5    0    0 -0.10054782607E+03  0.29165988883E+02 -0.53027967875E+02  0.14193494829E+03  0.79831346821E+02 0.  0.
          5    1    3    3  501    0  0.58044326327E+02  0.17772196936E+02  0.70925832478E+02  0.93474908480E+02  0.47000000000E+01 0. -1.
        -13    1    4    4    0    0 -0.28260091063E+01 -0.15149683267E+02 -0.24662471796E+02  0.29081553356E+02  0.00000000000E+00 0.  1.
         14    1    4    4    0    0  0.67084254520E+02  0.34701640993E+02 -0.50993863267E+02  0.91131087906E+02  0.00000000000E+00 0. -1.
         -5    1    5    5    0  502 -0.21754745670E+02 -0.66490143545E+02  0.94216095528E+01  0.70746483124E+02  0.47000000000E+01 0.  1.
         11    1    6    6    0    0  0.11116950405E+01  0.19365983959E+02 -0.32368011890E+02  0.37735466000E+02  0.00000000000E+00 0. -1.
        -12    1    6    6    0    0 -0.10165952111E+03  0.98000049243E+01 -0.20659955985E+02  0.10419948229E+03  0.00000000000E+00 0.  1.
</event>
<event>
12    1  0.8135779E-002  0.1773212E+03  0.7818608E-02  0.1171087E+00
         21   -1    0    0  503  502  0.00000000000E+00  0.00000000000E+00  0.50595451899E+03  0.50595451899E+03  0.00000000000E+00 0. -1.
         21   -1    0    0  501  503 -0.00000000000E+00 -0.00000000000E+00 -0.79304228799E+02  0.79304228799E+02  0.00000000000E+00 0. -1.
          6    2    1    2  501    0 -0.26172182717E+02 -0.15819611832E+02  0.72301858700E+02  0.18901938165E+03  0.17194628406E+03 0.  0.
         24    2    3    3    0    0 -0.35111222093E+02  0.50405575786E+02  0.79673565821E+02  0.12162417436E+03  0.68345026967E+02 0.  0.
         -6    2    1    2    0  502  0.26172182717E+02  0.15819611832E+02  0.35434843149E+03  0.39623936613E+03  0.17466419527E+03 0.  0.
        -24    2    5    5    0    0  0.53850169400E+02 -0.47452544468E+02  0.23118577351E+03  0.25495749529E+03  0.80030480496E+02 0.  0.
          5    1    3    3  501    0  0.89390393770E+01 -0.66225187618E+02 -0.73717071207E+01  0.67395207292E+02  0.47000000000E+01 0. -1.
        -13    1    4    4    0    0  0.14825196314E+02  0.33726093754E+02  0.46779657064E+02  0.59544707243E+02  0.00000000000E+00 0.  1.
         14    1    4    4    0    0 -0.49936418408E+02  0.16679482032E+02  0.32893908757E+02  0.62079467117E+02  0.00000000000E+00 0. -1.
         -5    1    5    5    0  502 -0.27677986684E+02  0.63272156301E+02  0.12316265798E+03  0.14128187085E+03  0.47000000000E+01 0.  1.
         13    1    6    6    0    0 -0.16216527742E+02  0.18795846307E-01  0.80625619512E+02  0.82240298194E+02  0.00000000000E+00 0. -1.
        -14    1    6    6    0    0  0.70066697142E+02 -0.47471340315E+02  0.15056015400E+03  0.17271719709E+03  0.00000000000E+00 0.  1.
</event>
<event>
12    1  0.8135779E-002  0.1991048E+03  0.7818608E-02  0.1152707E+00
         21   -1    0    0  503  502  0.00000000000E+00  0.00000000000E+00  0.43060317766E+03  0.43060317766E+03  0.00000000000E+00 0. -1.
         21   -1    0    0  501  503 -0.00000000000E+00 -0.00000000000E+00 -0.25833687847E+03  0.25833687847E+03  0.00000000000E+00 0. -1.
          6    2    1    2  501    0  0.15110680498E+02 -0.76875332052E+02 -0.19324691295E+03  0.27746550523E+03  0.18304258490E+03 0.  0.
         24    2    3    3    0    0 -0.29612355598E+02 -0.64619995401E+02 -0.20329311819E+03  0.22978574565E+03  0.80129654895E+02 0.  0.
         -6    2    1    2    0  502 -0.15110680498E+02  0.76875332052E+02  0.36551321214E+03  0.41147455089E+03  0.17196874262E+03 0.  0.
        -24    2    5    5    0    0  0.98092081992E-01  0.83076050415E+02  0.12459191014E+03  0.16994832161E+03  0.80359493356E+02 0.  0.
          5    1    3    3  501    0  0.44723036096E+02 -0.12255336652E+02  0.10046205239E+02  0.47679759582E+02  0.47000000000E+01 0. -1.
        -11    1    4    4    0    0 -0.21954758829E+02  0.79561495588E+01 -0.14771898933E+02  0.27631879218E+02  0.00000000000E+00 0.  1.
         12    1    4    4    0    0 -0.76575967684E+01 -0.72576144960E+02 -0.18852121925E+03  0.20215386643E+03  0.00000000000E+00 0. -1.
         -5    1    5    5    0  502 -0.15208772580E+02 -0.62007183623E+01  0.24092130200E+03  0.24152622928E+03  0.47000000000E+01 0.  1.
         11    1    6    6    0    0 -0.32587864051E+02  0.40370685434E+02  0.95801889854E+02  0.10894844297E+03  0.00000000000E+00 0. -1.
        -12    1    6    6    0    0  0.32685956133E+02  0.42705364981E+02  0.28790020284E+02  0.60999878643E+02  0.00000000000E+00 0.  1.
</event>
<event>
12    1  0.8135779E-002  0.2105852E+03  0.7818608E-02  0.1141282E+00
         21   -1    0    0  503  502  0.00000000000E+00  0.00000000000E+00  0.39807846938E+03  0.39807846938E+03  0.00000000000E+00 0. -1.
         21   -1    0    0  501  503 -0.00000000000E+00 -0.00000000000E+00 -0.15458523939E+03  0.15458523939E+03  0.00000000000E+00 0.  1.
          6    2    1    2  501    0  0.12438104524E+02  0.11955028993E+03 -0.25298930037E+02  0.21120311860E+03  0.17181310538E+03 0.  0.
         24    2    3    3    0    0 -0.56755022835E+02  0.55737096383E+02  0.55709251462E+01  0.11203230383E+03  0.78692092130E+02 0.  0.
         -6    2    1    2    0  502 -0.12438104524E+02 -0.11955028993E+03  0.26879216003E+03  0.34146059017E+03  0.17291365210E+03 0.  0.
        -24    2    5    5    0    0 -0.23136632688E+02 -0.10649769946E+03  0.28663693283E+03  0.31645350040E+03  0.78134645883E+02 0.  0.
          5    1    3    3  501    0  0.69193127359E+02  0.63813193543E+02 -0.30869855183E+02  0.99170814773E+02  0.47000000000E+01 0. -1.
        -11    1    4    4    0    0  0.14623135934E+02  0.30667512559E+02  0.12177116374E+02  0.36091752441E+02  0.00000000000E+00 0.  1.
         12    1    4    4    0    0 -0.71378158769E+02  0.25069583825E+02 -0.66061912278E+01  0.75940551387E+02  0.00000000000E+00 0. -1.
         -5    1    5    5    0  502  0.10698528163E+02 -0.13052590463E+02 -0.17844772804E+02  0.25007089776E+02  0.47000000000E+01 0.  1.
         13    1    6    6    0    0 -0.40887200995E+02 -0.28630657797E+02  0.15116272245E+03  0.15919059780E+03  0.00000000000E+00 0. -1.
        -14    1    6    6    0    0  0.17750568307E+02 -0.77867041666E+02  0.13547421038E+03  0.15726290259E+03  0.00000000000E+00 0.  1.
</event>
<event>
12    1  0.8135779E-002  0.1988382E+03  0.7818608E-02  0.1151378E+00
         21   -1    0    0  501  502  0.00000000000E+00  0.00000000000E+00  0.62917547652E+03  0.62917547652E+03  0.00000000000E+00 0.  1.
         21   -1    0    0  502  503 -0.00000000000E+00 -0.00000000000E+00 -0.14001067533E+03  0.14001067533E+03  0.00000000000E+00 0.  1.
         -6    2    1    2    0  503  0.89320216936E+02 -0.43771990673E+02 -0.41880105802E+02  0.20320081629E+03  0.17217009078E+03 0.  0.
        -24    2    3    3    0    0  0.14630690552E+02  0.36094735161E+02 -0.21421409138E+02  0.91855104584E+02  0.80384055984E+02 0.  0.
          6    2    1    2  501    0 -0.89320216936E+02  0.43771990673E+02  0.53104490699E+03  0.56598533556E+03  0.16863160591E+03 0.  0.
         24    2    5    5    0    0 -0.79903327036E+02  0.33968064782E+02  0.18362527262E+03  0.21826808387E+03  0.79902093812E+02 0.  0.
          5    1    5    5  501    0 -0.94168899005E+01  0.98039258914E+01  0.34741963437E+03  0.34771725169E+03  0.47000000000E+01 0. -1.
        -13    1    6    6    0    0 -0.92888563644E+02  0.37990467277E+02  0.17620678619E+03  0.20278163713E+03  0.00000000000E+00 0.  1.
         14    1    6    6    0    0  0.12985236608E+02 -0.40224024951E+01  0.74184864303E+01  0.15486446736E+02  0.00000000000E+00 0. -1.
         -5    1    3    3    0  503  0.74689526384E+02 -0.79866725834E+02 -0.20458696664E+02  0.11134571171E+03  0.47000000000E+01 0.  1.
         13    1    4    4    0    0  0.47873696682E+01  0.15586794165E+02  0.30824681066E+02  0.34871593360E+02  0.00000000000E+00 0. -1.
        -14    1    4    4    0    0  0.98433208838E+01  0.20507940996E+02 -0.52246090203E+02  0.56983511224E+02  0.00000000000E+00 0.  1.
</event>
<event>
12    1  0.8135779E-002  0.2109893E+03  0.7818608E-02  0.1141101E+00
         21   -1    0    0  501  502  0.00000000000E+00  0.00000000000E+00  0.14488591605E+03  0.14488591605E+03  0.00000000000E+00 0. -1.
         21   -1    0    0  502  503 -0.00000000000E+00 -0.00000000000E+00 -0.31400324706E+03  0.31400324706E+03  0.00000000000E+00 0.  1.
         -6    2    1    2    0  503  0.28977885725E+02  0.11637991101E+03 -0.45235330771E+02  0.21421948812E+03  0.17163843507E+03 0.  0.
        -24    2    3    3    0    0  0.56768884450E+01 -0.91768249840E+01 -0.27122333416E+02  0.85155158806E+02  0.79995868157E+02 0.  0.
          6    2    1    2  501    0 -0.28977885725E+02 -0.11637991101E+03 -0.12388200024E+03  0.24466967499E+03  0.17358714909E+03 0.  0.
         24    2    5    5    0    0 -0.68620781304E+02 -0.11313769880E+03 -0.13241818080E+03  0.20371814891E+03  0.80358938971E+02 0.  0.
          5    1    5    5  501    0  0.39642895578E+02 -0.32422122131E+01  0.85361805583E+01  0.40951526081E+02  0.47000000000E+01 0. -1.
        -11    1    6    6    0    0 -0.24756559965E+02 -0.86527037766E+02 -0.12160436843E+03  0.15128594762E+03  0.00000000000E+00 0.  1.
         12    1    6    6    0    0 -0.43864221339E+02 -0.26610661034E+02 -0.10813812372E+02  0.52432201292E+02  0.00000000000E+00 0. -1.
         -5    1    3    3    0  503  0.23300997280E+02  0.12555673600E+03 -0.18112997355E+02  0.12906432932E+03  0.47000000000E+01 0.  1.
         11    1    4    4    0    0  0.38521188060E+02  0.29294937375E+01  0.33067682029E+01  0.38773684105E+02  0.00000000000E+00 0. -1.
        -12    1    4    4    0    0 -0.32844299615E+02 -0.12106318722E+02 -0.30429101619E+02  0.46381474702E+02  0.00000000000E+00 0.  1.
</event>
<event>
12    1  0.8135779E-002  0.2066028E+03  0.7818608E-02  0.1144325E+00
         21   -1    0    0  501  502  0.00000000000E+00  0.00000000000E+00  0.67695335379E+02  0.67695335379E+02  0.00000000000E+00 0.  1.
         21   -1    0    0  502  503 -0.00000000000E+00 -0.00000000000E+00 -0.90165259200E+03  0.90165259200E+03  0.00000000000E+00 0.  1.
         -6    2    1    2    0  503  0.10416447130E+03 -0.38310231893E+02 -0.68290373112E+03  0.71341457235E+03  0.17402567374E+03 0.  0.
        -24    2    3    3    0    0  0.45252506828E+02 -0.30009819604E+02 -0.15865495833E+03  0.18577986711E+03  0.79964895894E+02 0.  0.
          6    2    1    2  501    0 -0.10416447130E+03  0.38310231893E+02 -0.15105352550E+03  0.25593335503E+03  0.17426073482E+03 0.  0.
         24    2    5    5    0    0 -0.92865175910E+02  0.78030976451E+02 -0.15672434457E+03  0.21398505574E+03  0.80711273787E+02 0.  0.
          5    1    5    5  501    0 -0.11299295386E+02 -0.39720744557E+02  0.56708190644E+01  0.41948299289E+02  0.47000000000E+01 0. -1.
        -13    1    6    6    0    0 -0.49807009690E+02  0.42718505495E+01 -0.22334365333E+02  0.54752267498E+02  0.00000000000E+00 0.  1.
         14    1    6    6    0    0 -0.43058166220E+02  0.73759125901E+02 -0.13438997923E+03  0.15923278824E+03  0.00000000000E+00 0. -1.
         -5    1    3    3    0  503  0.58911964468E+02 -0.83004122895E+01 -0.52424877279E+03  0.52763470524E+03  0.47000000000E+01 0.  1.
         13    1    4    4    0    0 -0.14895213202E+02  0.10936221951E+02 -0.11905463352E+02  0.21982001377E+02  0.00000000000E+00 0. -1.
        -14    1    4    4    0    0  0.60147720030E+02 -0.40946041555E+02 -0.14674949497E+03  0.16379786573E+03  0.00000000000E+00 0.  1.
</event>
<event>
12    1  0.8135779E-002  0.2137966E+03  0.7818608E-02  0.1138789E+00
         21   -1    0    0  503  502  0.00000000000E+00  0.00000000000E+00  0.60976273556E+03  0.60976273556E+03  0.00000000000E+00 0.  1.
         21   -1    0    0  501  503 -0.00000000000E+00 -0.00000000000E+00 -0.97265306634E+02  0.97265306634E+02  0.00000000000E+00 0. -1.
          6    2    1    2  501    0 -0.98948179706E+02  0.81034153661E+02  0.85175624755E+02  0.22920701878E+03  0.17006967419E+03 0.  0.
         24    2    3    3    0    0 -0.52435018190E+02  0.51183183484E+02  0.12168022158E+03  0.16280498414E+03  0.79562787373E+02 0.  0.
         -6    2    1    2    0  502  0.98948179706E+02 -0.81034153661E+02  0.42732180417E+03  0.47782102341E+03  0.17132346532E+03 0.  0.
        -24    2    5    5    0    0  0.11394551321E+03 -0.98285315065E+02  0.27317343862E+03  0.32191614477E+03  0.79766493950E+02 0.  0.
          5    1    3    3  501    0 -0.46513161515E+02  0.29850970177E+02 -0.36504596825E+02  0.66402034637E+02  0.47000000000E+01 0. -1.
        -13    1    4    4    0    0 -0.65926416737E+02  0.49584198748E+02  0.66445512455E+02  0.10592398838E+03  0.00000000000E+00 0.  1.
         14    1    4    4    0    0  0.13491398547E+02  0.15989847369E+01  0.55234709125E+02  0.56880995763E+02  0.00000000000E+00 0. -1.
         -5    1    5    5    0  502 -0.14997333509E+02  0.17251161404E+02  0.15414836556E+03  0.15590487865E+03  0.47000000000E+01 0.  1.
         11    1    6    6    0    0  0.22973301932E+02 -0.69384039350E+02  0.14178950943E+03  0.15951859611E+03  0.00000000000E+00 0. -1.
        -12    1    6    6    0    0  0.90972211283E+02 -0.28901275715E+02  0.13138392918E+03  0.16239754866E+03  0.00000000000E+00 0.  1.
</event>
<event>
12    1  0.8135779E-002  0.1731171E+03  0.7818608E-02  0.1175045E+00
         21   -1    0    0  503  502  0.00000000000E+00  0.00000000000E+00  0.45173626308E+03  0.45173626308E+03  0.00000000000E+00 0.  1.
         21   -1    0    0  501  503 -0.00000000000E+00 -0.00000000000E+00 -0.11458373176E+03  0.11458373176E+03  0.00000000000E+00 0.  1.
          6    2    1    2  501    0  0.24004641770E+01 -0.51624054750E+01 -0.16761750906E+02  0.17233416108E+03  0.17142256014E+03 0.  0.
         24    2    3    3    0    0  0.21384994575E+02 -0.46280752738E+02 -0.57943438058E+02  0.11094073934E+03  0.79694288161E+02 0.  0.
         -6    2    1    2    0  502 -0.24004641770E+01  0.51624054750E+01  0.35391428223E+03  0.39398583375E+03  0.17302342435E+03 0.  0.
        -24    2    5    5    0    0 -0.20014476930E+02 -0.51535868837E+02  0.11290996668E+03  0.14573169408E+03  0.73705773304E+02 0.  0.
          5    1    3    3  501    0 -0.18984530398E+02  0.41118347263E+02  0.41181687152E+02  0.61393421738E+02  0.47000000000E+01 0. -1.
        -13    1    4    4    0    0  0.46901767379E+02 -0.13662449717E+02 -0.47705622308E+02  0.68280778520E+02  0.00000000000E+00 0.  1.
         14    1    4    4    0    0 -0.25516772804E+02 -0.32618303020E+02 -0.10237815750E+02  0.42659960825E+02  0.00000000000E+00 0. -1.
         -5    1    5    5    0  502  0.17614012753E+02  0.56698274312E+02  0.24100431554E+03  0.24825413968E+03  0.47000000000E+01 0.  1.
         13    1    6    6    0    0 -0.42509183507E+02 -0.32184969353E+02  0.10009422039E+03  0.11340968164E+03  0.00000000000E+00 0. -1.
        -14    1    6    6    0    0  0.22494706577E+02 -0.19350899484E+02  0.12815746295E+02  0.32322012436E+02  0.00000000000E+00 0.  1.
</event>
<event>
12    1  0.8135779E-002  0.2060589E+03  0.7818608E-02  0.1146133E+00
         21   -1    0    0  501  502  0.00000000000E+00  0.00000000000E+00  0.12982860061E+03  0.12982860061E+03  0.00000000000E+00 0. -1.
         21   -1    0    0  502  503 -0.00000000000E+00 -0.00000000000E+00 -0.33753597253E+03  0.33753597253E+03  0.00000000000E+00 0. -1.
         -6    2    1    2    0  503  0.89716487013E+02 -0.60691184416E+02 -0.16406646413E+03  0.26339714399E+03  0.17529341945E+03 0.  0.
        -24    2    3    3    0    0  0.10685576181E+03 -0.96418405848E+02 -0.14380355829E+03  0.21864377043E+03  0.80068546598E+02 0.  0.
          6    2    1    2  501    0 -0.89716487013E+02  0.60691184416E+02 -0.43640907796E+02  0.20396742915E+03  0.16722952913E+03 0.  0.
         24    2    5    5    0    0 -0.61818304098E+02 -0.27773180437E+02 -0.78260133008E+01  0.10442322225E+03  0.79057640926E+02 0.  0.
          5    1    5    5  501    0 -0.27898182914E+02  0.88464364854E+02 -0.35814894495E+02  0.99544206896E+02  0.47000000000E+01 0. -1.
        -13    1    6    6    0    0 -0.23913697700E+02 -0.53039180571E+02 -0.88957810126E+01  0.58857068676E+02  0.00000000000E+00 0.  1.
         14    1    6    6    0    0 -0.37904606399E+02  0.25266000134E+02  0.10697677117E+01  0.45566153579E+02  0.00000000000E+00 0. -1.
         -5    1    3    3    0  503 -0.17139274794E+02  0.35727221432E+02 -0.20262905845E+02  0.44753373560E+02  0.47000000000E+01 0.  1.
         11    1    4    4    0    0  0.44245566496E+02  0.39432207657E+01 -0.55177300916E+02  0.70836104360E+02  0.00000000000E+00 0. -1.
        -12    1    4    4    0    0  0.62610195311E+02 -0.10036162661E+03 -0.88626257369E+02  0.14780766607E+03  0.00000000000E+00 0.  1.
</event>
<event>
12    1  0.8135779E-002  0.1823687E+03  0.7818608E-02  0.1165536E+00
         21   -1    0    0  501  502  0.00000000000E+00  0.00000000000E+00  0.13097735028E+03  0.13097735028E+03  0.00000000000E+00 0.  1.
         21   -1    0    0  502  503 -0.00000000000E+00 -0.00000000000E+00 -0.29295895950E+03  0.29295895950E+03  0.00000000000E+00 0. -1.
         -6    2    1    2    0  503  0.61726655762E+02  0.46801398610E+01 -0.15840324584E+03  0.24155730564E+03  0.17154084026E+03 0.  0.
        -24    2    3    3    0    0  0.15375871909E+02  0.51954334126E+02 -0.14644615155E+03  0.17411617049E+03  0.77034377067E+02 0.  0.
          6    2    1    2  501    0 -0.61726655762E+02 -0.46801398610E+01 -0.35783633708E+01  0.18237900414E+03  0.17151446798E+03 0.  0.
         24    2    5    5    0    0  0.16845655059E+02  0.23815742536E+02 -0.35733058134E+02  0.92703825094E+02  0.80412573994E+02 0.  0.
          5    1    5    5  501    0 -0.78572310821E+02 -0.28495882398E+02  0.32154694764E+02  0.89675179045E+02  0.47000000000E+01 0. -1.
        -13    1    6    6    0    0  0.48145304183E+02  0.10262571962E+02 -0.10650229084E+02  0.50365842371E+02  0.00000000000E+00 0.  1.
         14    1    6    6    0    0 -0.31299649124E+02  0.13553170575E+02 -0.25082829050E+02  0.42337982723E+02  0.00000000000E+00 0. -1.
         -5    1    3    3    0  503  0.46350783852E+02 -0.47274194265E+02 -0.11957094292E+02  0.67441135156E+02  0.47000000000E+01 0.  1.
         11    1    4    4    0    0  0.25851566903E+02  0.45886769451E+02 -0.15194919557E+03  0.16081808716E+03  0.00000000000E+00 0. -1.
        -12    1    4    4    0    0 -0.10475694994E+02  0.60675646750E+01  0.55030440236E+01  0.13298083329E+02  0.00000000000E+00 0.  1.
</event>
<event>
12    1  0.8135779E-002  0.2000951E+03  0.7818608E-02  0.1149910E+00
         21   -1    0    0  503  502  0.00000000000E+00  0.00000000000E+00  0.92348512157E+02  0.92348512157E+02  0.00000000000E+00 0. -1.
         21   -1    0    0  501  503 -0.00000000000E+00 -0.00000000000E+00 -0.74454346002E+03  0.74454346002E+03  0.00000000000E+00 0. -1.
          6    2    1    2  501    0 -0.57666283561E+02 -0.82243137893E+02 -0.59708724431E+03  0.62934698194E+03  0.17168317440E+03 0.  0.
         24    2    3    3    0    0 -0.10077201439E+03 -0.73372252388E+02 -0.39738948328E+03  0.42480338658E+03  0.83672155054E+02 0.  0.
         -6    2    1    2    0  502  0.57666283561E+02  0.82243137893E+02 -0.55107703552E+02  0.20754499024E+03  0.17305701370E+03 0.  0.
        -24    2    5    5    0    0 -0.22961821174E+02 -0.12947193747E+01 -0.39654168164E+02  0.90325680282E+02  0.77829004463E+02 0.  0.
          5    1    3    3  501    0  0.43105730824E+02 -0.88708855049E+01 -0.19969776103E+03  0.20454359536E+03  0.47000000000E+01 0. -1.
        -13    1    4    4    0    0  0.87783583852E+01 -0.11864336836E+02 -0.11219968779E+03  0.11316621406E+03  0.00000000000E+00 0.  1.
         14    1    4    4    0    0 -0.10955037277E+03 -0.61507915552E+02 -0.28518979549E+03  0.31163717252E+03  0.00000000000E+00 0. -1.
         -5    1    5    5    0  502  0.80628104735E+02  0.83537857267E+02 -0.15453535389E+02  0.11721930995E+03  0.47000000000E+01 0.  1.
         11    1    6    6    0    0  0.76908790068E+01 -0.22290627404E+01  0.20936904257E+02  0.22415893925E+02  0.00000000000E+00 0. -1.
        -12    1    6    6    0    0 -0.30652700181E+02  0.93434336574E+00 -0.60591072421E+02  0.67909786356E+02  0.00000000000E+00 0.  1.
</event>
<event>
12    1  0.8135779E-002  0.1732963E+03  0.7818608E-02  0.1174497E+00
         21   -1    0    0  501  502  0.00000000000E+00  0.00000000000E+00  0.94362297410E+03  0.94362297410E+03  0.00000000000E+00 0. -1.
         21   -1    0    0  502  503 -0.00000000000E+00 -0.00000000000E+00 -0.42387812206E+02  0.42387812206E+02  0.00000000000E+00 0. -1.
         -6    2    1    2    0  503  0.19147324799E+02  0.12973672429E+02  0.69725003667E+03  0.71846309128E+03  0.17174592764E+03 0.  0.
        -24    2    3    3    0    0  0.14305245303E+02 -0.35394955205E+01  0.69578903870E+03  0.70056462864E+03  0.80319639338E+02 0.  0.
          6    2    1    2  501    0 -0.19147324799E+02 -0.12973672429E+02  0.20398512522E+03  0.26754769503E+03  0.17157185545E+03 0.  0.
         24    2    5    5    0    0 -0.73002840117E+02  0.16621750676E+02  0.15145197425E+03  0.18656542814E+03  0.79140768343E+02 0.  0.
          5    1    5    5  501    0  0.53855515318E+02 -0.29595423105E+02  0.52533150973E+02  0.80982266887E+02  0.47000000000E+01 0. -1.
        -13    1    6    6    0    0 -0.24205467371E+02 -0.31931976612E+02  0.58097531904E+02  0.70575342680E+02  0.00000000000E+00 0.  1.
         14    1    6    6    0    0 -0.48797372747E+02  0.48553727288E+02  0.93354442345E+02  0.11599008546E+03  0.00000000000E+00 0. -1.
         -5    1    3    3    0  503  0.48420794958E+01  0.16513167950E+02  0.14609979771E+01  0.17898462634E+02  0.47000000000E+01 0.  1.
         11    1    4    4    0    0 -0.65746083680E+01  0.16593958555E+02  0.60481900581E+03  0.60508232062E+03  0.00000000000E+00 0. -1.
        -12    1    4    4    0    0  0.20879853671E+02 -0.20133454075E+02  0.90970032889E+02  0.95482308027E+02  0.00000000000E+00 0.  1.
</event>
<event>
12    1  0.8135779E-002  0.2036901E+03  0.7818608E-02  0.1146766E+00
         21   -1    0    0  501  502  0.00000000000E+00  0.00000000000E+00  0.39358675766E+03  0.39358675766E+03  0.00000000000E+00 0.  1.
         21   -1    0    0  502  503 -0.00000000000E+00 -0.00000000000E+00 -0.11184385797E+03  0.11184385797E+03  0.00000000000E+00 0.  1.
         -6    2    1    2    0  503  0.58759802059E+02  0.90614934509E+02  0.78903449425E+02  0.21797017294E+03  0.17210886458E+03 0.  0.
        -24    2    3    3    0    0  0.75320748868E+02  0.72164355423E+02  0.11435844953E+03  0.17445194848E+03  0.80465632079E+02 0.  0.
          6    2    1    2  501    0 -0.58759802059E+02 -0.90614934509E+02  0.20283945027E+03  0.28746044269E+03  0.17270171636E+03 0.  0.
         24    2    5    5    0    0 -0.95823918926E+02 -0.10281583686E+03  0.18054327705E+03  0.24227393898E+03  0.79670991418E+02 0.  0.
          5    1    5    5  501    0  0.37064116867E+02  0.12200902354E+02  0.22296173219E+02  0.45186503711E+02  0.47000000000E+01 0. -1.
        -13    1    6    6    0    0 -0.64805229450E+02 -0.97459186056E+02  0.93775646735E+02  0.14997293966E+03  0.00000000000E+00 0.  1.
         14    1    6    6    0    0 -0.31018689476E+02 -0.53566508075E+01  0.86767630316E+02  0.92300999319E+02  0.00000000000E+00 0. -1.
         -5    1    3    3    0  503 -0.16560946810E+02  0.18450579086E+02 -0.35455000103E+02  0.43518224460E+02  0.47000000000E+01 0.  1.
         13    1    4    4    0    0 -0.16605384800E+02  0.76679597471E+01  0.24811538226E+02  0.30824484426E+02  0.00000000000E+00 0. -1.
        -14    1    4    4    0    0  0.91926133668E+02  0.64496395676E+02  0.89546911302E+02  0.14362746405E+03  0.00000000000E+00 0.  1.
</event>
<event>
12    1  0.8135779E-002  0.1834567E+03  0.7818608E-02  0.1164706E+00
         21   -1    0    0  501  502  0.00000000000E+00  0.00000000000E+00  0.35782743368E+03  0.35782743368E+03  0.00000000000E+00 0.  1.
         21   -1    0    0  502  503 -0.00000000000E+00 -0.00000000000E+00 -0.12805767024E+03  0.12805767024E+03  0.00000000000E+00 0.  1.
         -6    2    1    2    0  503 -0.60239109537E+02  0.19040158119E+02 -0.10917775000E+02  0.18378130897E+03  0.17223557640E+03 0.  0.
        -24    2    3    3    0    0 -0.95383987520E+02 -0.17322613090E+02  0.17019327956E+02  0.12581592879E+03  0.78369716171E+02 0.  0.
          6    2    1    2  501    0  0.60239109537E+02 -0.19040158119E+02  0.24068753845E+03  0.30210379495E+03  0.17130363049E+03 0.  0.
         24    2    5    5    0    0  0.70805694570E+02 -0.70124750172E+02  0.15227186233E+03  0.19933847955E+03  0.81352212037E+02 0.  0.
          5    1    5    5  501    0 -0.10566585033E+02  0.51084592053E+02  0.88415676119E+02  0.10276531539E+03  0.47000000000E+01 0. -1.
        -11    1    6    6    0    0  0.10150151768E+02 -0.53195031037E+02  0.11250271842E+03  0.12485831394E+03  0.00000000000E+00 0.  1.
         12    1    6    6    0    0  0.60655542802E+02 -0.16929719134E+02  0.39769143907E+02  0.74480165613E+02  0.00000000000E+00 0. -1.
         -5    1    3    3    0  503  0.35144877983E+02  0.36362771209E+02 -0.27937102955E+02  0.57965380185E+02  0.47000000000E+01 0.  1.
         13    1    4    4    0    0 -0.91521197139E+02 -0.79727215494E+00 -0.11889681431E+02  0.92293714267E+02  0.00000000000E+00 0. -1.
        -14    1    4    4    0    0 -0.38627903813E+01 -0.16525340935E+02  0.28909009387E+02  0.33522214520E+02  0.00000000000E+00 0.  1.
</event>
<event>
12    1  0.8135779E-002  0.1826143E+03  0.7818608E-02  0.1165519E+00
         21   -1    0    0  501  502  0.00000000000E+00  0.00000000000E+00  0.71888565988E+03  0.71888565988E+03  0.00000000000E+00 0.  1.
         21   -1    0    0  502  503 -0.00000000000E+00 -0.00000000000E+00 -0.55407196806E+02  0.55407196806E+02  0.00000000000E+00 0.  1.
         -6    2    1    2    0  503 -0.11401927680E+02  0.57887664198E+02  0.17421443679E+03  0.25238593351E+03  0.17282072742E+03 0.  0.
        -24    2    3    3    0    0 -0.68028996710E+02  0.12660232038E+02  0.13113994599E+03  0.16794869454E+03  0.78872382340E+02 0.  0.
          6    2    1    2  501    0  0.11401927680E+02 -0.57887664198E+02  0.48926402628E+03  0.52190692318E+03  0.17183295208E+03 0.  0.
         24    2    5    5    0    0 -0.53338279236E+02 -0.57655586026E+02  0.26102318305E+03  0.28461528663E+03  0.81875641463E+02 0.  0.
          5    1    5    5  501    0  0.64740206916E+02 -0.23207817260E+00  0.22824084324E+03  0.23729163655E+03  0.47000000000E+01 0. -1.
        -11    1    6    6    0    0 -0.12506477648E+02 -0.69756582850E+02  0.16219820606E+03  0.17700466345E+03  0.00000000000E+00 0.  1.
         12    1    6    6    0    0 -0.40831801589E+02  0.12100996824E+02  0.98824976986E+02  0.10761062318E+03  0.00000000000E+00 0. -1.
         -5    1    3    3    0  503  0.56627069030E+02  0.45227432160E+02  0.43074490802E+02  0.84437238968E+02  0.47000000000E+01 0.  1.
         11    1    4    4    0    0  0.14325267972E+02 -0.95946210194E+01  0.37514120907E+02  0.41286551350E+02  0.00000000000E+00 0. -1.
        -12    1    4    4    0    0 -0.82354264681E+02  0.22254853057E+02  0.93625825082E+02  0.12666214319E+03  0.00000000000E+00 0.  1.
</event>
<event>
12    1  0.8135779E-002  0.1743076E+03  0.7818608E-02  0.1173471E+00
         21   -1    0    0  503  502  0.00000000000E+00  0.00000000000E+00  0.15620055140E+04  0.15620055140E+04  0.00000000000E+00 0.  1.
         21   -1    0    0  501  503 -0.00000000000E+00 -0.00000000000E+00 -0.23732800755E+02  0.23732800755E+02  0.00000000000E+00 0.  1.
          6    2    1    2  501    0 -0.27495024277E+02  0.87564868752E+01  0.43193956539E+03  0.46578419727E+03  0.17190252429E+03 0.  0.
         24    2    3    3    0    0 -0.80874585472E+02 -0.16945253165E+02  0.27040280093E+03  0.29366164423E+03  0.79319898896E+02 0.  0.
         -6    2    1    2    0  502  0.27495024277E+02 -0.87564868752E+01  0.11063331479E+04  0.11199541175E+04  0.17173100710E+03 0.  0.
        -24    2    5    5    0    0  0.69197645012E+02 -0.11299542609E+01  0.45269105261E+03  0.46492178908E+03  0.80209039235E+02 0.  0.
          5    1    3    3  501    0  0.53379561195E+02  0.25701740040E+02  0.16153676446E+03  0.17212255304E+03  0.47000000000E+01 0. -1.
        -13    1    4    4    0    0 -0.48118823209E+02 -0.22403710049E+02  0.57772425002E+02  0.78453811007E+02  0.00000000000E+00 0.  1.
         14    1    4    4    0    0 -0.32755762263E+02  0.54584568841E+01  0.21263037593E+03  0.21520783322E+03  0.00000000000E+00 0. -1.
         -5    1    5    5    0  502 -0.41702620735E+02 -0.76265326144E+01  0.65364209528E+03  0.65503232843E+03  0.47000000000E+01 0.  1.
         13    1    6    6    0    0  0.81616117472E+02 -0.16624681656E+02  0.40075467831E+03  0.40931880345E+03  0.00000000000E+00 0. -1.
        -14    1    6    6    0    0 -0.12418472460E+02  0.15494727395E+02  0.51936374301E+02  0.55602985628E+02  0.00000000000E+00 0.  1.
</event>
<event>
12    1  0.8135779E-002  0.2137305E+03  0.7818608E-02  0.1138936E+00
         21   -1    0    0  503  502  0.00000000000E+00  0.00000000000E+00  0.12691253244E+04  0.12691253244E+04  0.00000000000E+00 0.  1.
         21   -1    0    0  501  503 -0.00000000000E+00 -0.00000000000E+00 -0.35812403888E+02  0.35812403888E+02  0.00000000000E+00 0.  1.
          6    2    1    2  501    0  0.26408859389E+01 -0.12488318573E+03  0.64771784648E+03  0.68206974600E+03  0.17342994381E+03 0.  0.
         24    2    3    3    0    0  0.34382899216E+02 -0.13290494968E+03  0.61579080418E+03  0.63609877545E+03  0.81101345293E+02 0.  0.
         -6    2    1    2    0  502 -0.26408859389E+01  0.12488318573E+03  0.58559507405E+03  0.62286798230E+03  0.17158131678E+03 0.  0.
        -24    2    5    5    0    0 -0.40390416882E+02  0.10859393952E+03  0.26427216376E+03  0.29889133298E+03  0.77924469308E+02 0.  0.
          5    1    3    3  501    0 -0.31742013277E+02  0.80217639475E+01  0.31927042299E+02  0.45970970553E+02  0.47000000000E+01 0. -1.
        -13    1    4    4    0    0 -0.95195009427E+01 -0.88836322541E+02  0.26029727656E+03  0.27520389765E+03  0.00000000000E+00 0.  1.
         14    1    4    4    0    0  0.43902400158E+02 -0.44068627137E+02  0.35549352762E+03  0.36089487780E+03  0.00000000000E+00 0. -1.
         -5    1    5    5    0  502  0.37749530943E+02  0.16289246213E+02  0.32132291029E+03  0.32397664932E+03  0.47000000000E+01 0.  1.
         13    1    6    6    0    0 -0.32318425835E+02  0.14568094463E+02  0.13017394134E+03  0.13491465832E+03  0.00000000000E+00 0. -1.
        -14    1    6    6    0    0 -0.80719910470E+01  0.94025845054E+02  0.13409822242E+03  0.16397667466E+03  0.00000000000E+00 0.  1.
</event>
<event>
12    1  0.8135779E-002  0.2041559E+03  0.7818608E-02  0.1148579E+00
         21   -1    0    0  503  502  0.00000000000E+00  0.00000000000E+00  0.42382949440E+03  0.42382949440E+03  0.00000000000E+00 0. -1.
         21   -1    0    0  501  503 -0.00000000000E+00 -0.00000000000E+00 -0.15403497723E+03  0.15403497723E+03  0.00000000000E+00 0. -1.
          6    2    1    2  501    0 -0.31606880473E+02 -0.80400546189E+02 -0.44449844865E+02  0.20893877167E+03  0.18497669820E+03 0.  0.
         24    2    3    3    0    0  0.12824353886E+02 -0.36140979798E+02 -0.91498670320E+02  0.13039753549E+03  0.84621960023E+02 0.  0.
         -6    2    1    2    0  502  0.31606880473E+02  0.80400546189E+02  0.31424436204E+03  0.36892569997E+03  0.17289710901E+03 0.  0.
        -24    2    5    5    0    0  0.82278169214E+02  0.34694738296E+02  0.15943396257E+03  0.19967750895E+03  0.80489112099E+02 0.  0.
          5    1    3    3  501    0 -0.44431234360E+02 -0.44259566391E+02  0.47048825455E+02  0.78541236180E+02  0.47000000000E+01 0. -1.
        -11    1    4    4    0    0  0.20292676711E+02  0.23637139359E+01  0.91434296035E+01  0.22382631137E+02  0.00000000000E+00 0.  1.
         12    1    4    4    0    0 -0.74683228249E+01 -0.38504693734E+02 -0.10064209992E+03  0.10801490435E+03  0.00000000000E+00 0. -1.
         -5    1    5    5    0  502 -0.50671288741E+02  0.45705807893E+02  0.15481039947E+03  0.16924819101E+03  0.47000000000E+01 0.  1.
         13    1    6    6    0    0  0.37969104103E+02  0.56586720964E+02  0.71268859798E+02  0.98605072044E+02  0.00000000000E+00 0. -1.
        -14    1    6    6    0    0  0.44309065111E+02 -0.21891982668E+02  0.88165102767E+02  0.10107243691E+03  0.00000000000E+00 0.  1.
</event>
<event>
12    1  0.8135779E-002  0.2998638E+03  0.7818608E-02  0.1085633E+00
         21   -1    0    0  501  502  0.00000000000E+00  0.00000000000E+00  0.63031970352E+03  0.63031970352E+03  0.00000000000E+00 0. -1.
         21   -1    0    0  502  503 -0.00000000000E+00 -0.00000000000E+00 -0.15126165677E+04  0.15126165677E+04  0.00000000000E+00 0. -1.
         -6    2    1    2    0  503 -0.24223081314E+03  0.11021254426E+02 -0.14614740669E+04  0.14919198107E+04  0.17641155915E+03 0.  0.
        -24    2    3    3    0    0 -0.53327537797E+02 -0.24902089106E+02 -0.69730301036E+03  0.70391319408E+03  0.76146938341E+02 0.  0.
          6    2    1    2  501    0  0.24223081314E+03 -0.11021254426E+02  0.57917720279E+03  0.65101646054E+03  0.17198536213E+03 0.  0.
         24    2    5    5    0    0  0.25530320950E+03  0.20970325313E+01  0.47070938207E+03  0.54087865990E+03  0.76146411870E+02 0.  0.
          5    1    5    5  501    0 -0.13072396362E+02 -0.13118286957E+02  0.10846782072E+03  0.11013780064E+03  0.47000000000E+01 0. -1.
        -13    1    6    6    0    0  0.22995788827E+03 -0.21878087838E+02  0.41989759010E+03  0.47924238886E+03  0.00000000000E+00 0.  1.
         14    1    6    6    0    0  0.25345321227E+02  0.23975120370E+02  0.50811791970E+02  0.61636271043E+02  0.00000000000E+00 0. -1.
         -5    1    3    3    0  503 -0.18890327534E+03  0.35923343532E+02 -0.76417105659E+03  0.78800661658E+03  0.47000000000E+01 0.  1.
         11    1    4    4    0    0  0.19639282334E+02 -0.87607927593E+01 -0.15890814292E+03  0.16035663624E+03  0.00000000000E+00 0. -1.
        -12    1    4    4    0    0 -0.72966820131E+02 -0.16141296346E+02 -0.53839486744E+03  0.54355655784E+03  0.00000000000E+00 0.  1.
</event>
<event>
12    1  0.8135779E-002  0.3137260E+03  0.7818608E-02  0.1078887E+00
         21   -1    0    0  501  502  0.00000000000E+00  0.00000000000E+00  0.11018517193E+03  0.11018517193E+03  0.00000000000E+00 0. -1.
         21   -1    0    0  502  503 -0.00000000000E+00 -0.00000000000E+00 -0.89104504854E+03  0.89104504854E+03  0.00000000000E+00 0.  1.
         -6    2    1    2    0  503 -0.13158891454E+03 -0.22329640280E+03 -0.35016606554E+03  0.46838771655E+03  0.17202864187E+03 0.  0.
        -24    2    3    3    0    0 -0.37938069468E+02 -0.12665591691E+03 -0.10791289830E+03  0.19122611867E+03  0.86262485710E+02 0.  0.
          6    2    1    2  501    0  0.13158891454E+03  0.22329640280E+03 -0.43069381107E+03  0.53284250393E+03  0.17676834888E+03 0.  0.
         24    2    5    5    0    0 -0.37602153077E+01  0.40118757032E+02 -0.11995036626E+03  0.14754130311E+03  0.75872866511E+02 0.  0.
          5    1    5    5  501    0  0.13534912985E+03  0.18317764576E+03 -0.31074344481E+03  0.38530120082E+03  0.47000000000E+01 0. -1.
        -11    1    6    6    0    0  0.19648030041E+02 -0.15241537262E+02 -0.45548963622E+02  0.51894678240E+02  0.00000000000E+00 0.  1.
         12    1    6    6    0    0 -0.23408245349E+02  0.55360294293E+02 -0.74401402638E+02  0.95646624870E+02  0.00000000000E+00 0. -1.
         -5    1    3    3    0  503 -0.93650845075E+02 -0.96640485884E+02 -0.24225316725E+03  0.27716159788E+03  0.47000000000E+01 0.  1.
         11    1    4    4    0    0  0.17119158169E+02 -0.69549503035E+01 -0.37570473958E+02  0.41868573222E+02  0.00000000000E+00 0. -1.
        -12    1    4    4    0    0 -0.55057227637E+02 -0.11970096661E+03 -0.70342424337E+02  0.14935754545E+03  0.00000000000E+00 0.  1.
</event>
<event>
12    1  0.8135779E-002  0.2210652E+03  0.7818608E-02  0.1133422E+00
         21   -1    0    0  503  502  0.00000000000E+00  0.00000000000E+00  0.42732525944E+03  0.42732525944E+03  0.00000000000E+00 0. -1.
         21   -1    0    0  501  503 -0.00000000000E+00 -0.00000000000E+00 -0.19429295209E+03  0.19429295209E+03  0.00000000000E+00 0.  1.
          6    2    1    2  501    0  0.14839833561E+02 -0.13683735807E+03 -0.84253080516E+02  0.23491442324E+03  0.17070887922E+03 0.  0.
         24    2    3    3    0    0 -0.33312104090E+02 -0.14214018184E+03 -0.47216627452E+02  0.17375464973E+03  0.81533679078E+02 0.  0.
         -6    2    1    2    0  502 -0.14839833561E+02  0.13683735807E+03  0.31728538786E+03  0.38670378829E+03  0.17298878376E+03 0.  0.
        -24    2    5    5    0    0 -0.32353321107E+02  0.15030657565E+01  0.99669212658E+02  0.12979722429E+03  0.76579180506E+02 0.  0.
          5    1    3    3  501    0  0.48151937651E+02  0.53028237719E+01 -0.37036453064E+02  0.61159773504E+02  0.47000000000E+01 0. -1.
        -13    1    4    4    0    0 -0.20973033819E+02 -0.49140113604E+02  0.21368017117E+02  0.57543123551E+02  0.00000000000E+00 0.  1.
         14    1    4    4    0    0 -0.12339070271E+02 -0.93000068234E+02 -0.68584644569E+02  0.11621152618E+03  0.00000000000E+00 0. -1.
         -5    1    5    5    0  502  0.17513487546E+02  0.13533429231E+03  0.21761617520E+03  0.25690656401E+03  0.47000000000E+01 0.  1.
         11    1    6    6    0    0  0.64614701703E+01 -0.12827368766E+02  0.84525715740E+02  0.85737323305E+02  0.00000000000E+00 0. -1.
        -12    1    6    6    0    0 -0.38814791277E+02  0.14330434522E+02  0.15143496918E+02  0.44059900980E+02  0.00000000000E+00 0.  1.
</event>
<event>
12    1  0.8135779E-002  0.1836281E+03  0.7818608E-02  0.1164690E+00
         21   -1    0    0  501  502  0.00000000000E+00  0.00000000000E+00  0.10951555953E+04  0.10951555953E+04  0.00000000000E+00 0. -1.
         21   -1    0    0  502  503 -0.00000000000E+00 -0.00000000000E+00 -0.36083545562E+02  0.36083545562E+02  0.00000000000E+00 0. -1.
         -6    2    1    2    0  503 -0.55878173662E+02 -0.27938261130E+02  0.30601935324E+03  0.35612130734E+03  0.17108952117E+03 0.  0.
        -24    2    3    3    0    0 -0.37295697633E+02  0.18238893844E+02  0.68873262976E+02  0.11376207771E+03  0.80465257483E+02 0.  0.
          6    2    1    2  501    0  0.55878173662E+02  0.27938261130E+02  0.75305269646E+03  0.77511783349E+03  0.17267418863E+03 0.  0.
         24    2    5    5    0    0  0.21782932635E+02 -0.52166915882E+02  0.32984349362E+03  0.34302126533E+03  0.75305875727E+02 0.  0.
          5    1    5    5  501    0  0.34095241026E+02  0.80105177011E+02  0.42320920284E+03  0.43209656816E+03  0.47000000000E+01 0. -1.
        -11    1    6    6    0    0  0.29754211781E+01 -0.24942006802E+02  0.21959668831E+02  0.33364410525E+02  0.00000000000E+00 0.  1.
         12    1    6    6    0    0  0.18807511457E+02 -0.27224909080E+02  0.30788382479E+03  0.30965685481E+03  0.00000000000E+00 0. -1.
         -5    1    3    3    0  503 -0.18582476029E+02 -0.46177154974E+02  0.23714609026E+03  0.24235922962E+03  0.47000000000E+01 0.  1.
         13    1    4    4    0    0 -0.27256345147E+02 -0.29038090383E+02  0.18369619691E+02  0.43858431019E+02  0.00000000000E+00 0. -1.
        -14    1    4    4    0    0 -0.10039352486E+02  0.47276984227E+02  0.50503643285E+02  0.69903646693E+02  0.00000000000E+00 0.  1.
</event>
<event>
12    1  0.8135779E-002  0.1808351E+03  0.7818608E-02  0.1167372E+00
         21   -1    0    0  503  502  0.00000000000E+00  0.00000000000E+00  0.46136537660E+03  0.46136537660E+03  0.00000000000E+00 0. -1.
         21   -1    0    0  501  503 -0.00000000000E+00 -0.00000000000E+00 -0.99191442261E+02  0.99191442261E+02  0.00000000000E+00 0.  1.
          6    2    1    2  501    0  0.50023145239E+02 -0.37824761351E+01  0.29201510059E+02  0.18164788563E+03  0.17212380422E+03 0.  0.
         24    2    3    3    0    0  0.77336500655E+02 -0.10824271252E+01 -0.29430177489E+02  0.11673968558E+03  0.82340226256E+02 0.  0.
         -6    2    1    2    0  502 -0.50023145239E+02  0.37824761351E+01  0.33297242428E+03  0.37890893324E+03  0.17373750939E+03 0.  0.
        -24    2    5    5    0    0 -0.33729858416E+02  0.32732314175E+02  0.76966468131E+02  0.12071384439E+03  0.80242677369E+02 0.  0.
          5    1    3    3  501    0 -0.27313355416E+02 -0.27000490099E+01  0.58631687548E+02  0.64908200048E+02  0.47000000000E+01 0. -1.
        -13    1    4    4    0    0  0.49528921186E+01  0.28353760319E+02 -0.25576097213E+02  0.38504592106E+02  0.00000000000E+00 0.  1.
         14    1    4    4    0    0  0.72383608537E+02 -0.29436187444E+02 -0.38540802760E+01  0.78235093474E+02  0.00000000000E+00 0. -1.
         -5    1    5    5    0  502 -0.16293286823E+02 -0.28949838040E+02  0.25600595615E+03  0.25819508884E+03  0.47000000000E+01 0.  1.
         13    1    6    6    0    0 -0.54604176130E+02  0.42118826386E+02  0.65519989904E+02  0.95123502164E+02  0.00000000000E+00 0. -1.
        -14    1    6    6    0    0  0.20874317715E+02 -0.93865122109E+01  0.11446478228E+02  0.25590342228E+02  0.00000000000E+00 0.  1.
</event>
<event>
12    1  0.8135779E-002  0.1881985E+03  0.7818608E-02  0.1160138E+00
         21   -1    0    0  501  502  0.00000000000E+00  0.00000000000E+00  0.10484722141E+04  0.10484722141E+04  0.00000000000E+00 0.  1.
         21   -1    0    0  502  503 -0.00000000000E+00 -0.00000000000E+00 -0.35851353983E+02  0.35851353983E+02  0.00000000000E+00 0.  1.
         -6    2    1    2    0  503 -0.77775785008E+02  0.29771674068E+01  0.37523836318E+03  0.41978863054E+03  0.17134972679E+03 0.  0.
        -24    2    3    3    0    0 -0.39346358175E+02 -0.14052537997E+02  0.36514487771E+03  0.37630529854E+03  0.80803999064E+02 0.  0.
          6    2    1    2  501    0  0.77775785008E+02 -0.29771674068E+01  0.63738249695E+03  0.66453493756E+03  0.17114993296E+03 0.  0.
         24    2    5    5    0    0  0.14252778685E+02 -0.61104054501E+02  0.34097203690E+03  0.35583579897E+03  0.80127016068E+02 0.  0.
          5    1    5    5  501    0  0.63523006322E+02  0.58126887095E+02  0.29641046005E+03  0.30869913859E+03  0.47000000000E+01 0. -1.
        -13    1    6    6    0    0  0.42295138196E+02 -0.48799053866E+02  0.28297924675E+03  0.29025416528E+03  0.00000000000E+00 0.  1.
         14    1    6    6    0    0 -0.28042359511E+02 -0.12305000635E+02  0.57992790152E+02  0.65581633688E+02  0.00000000000E+00 0. -1.
         -5    1    3    3    0  503 -0.38429426832E+02  0.17029705403E+02  0.10093485465E+02  0.43483331998E+02  0.47000000000E+01 0.  1.
         11    1    4    4    0    0 -0.35774415273E+02 -0.33137459263E+02  0.34461547171E+03  0.34804844969E+03  0.00000000000E+00 0. -1.
        -12    1    4    4    0    0 -0.35719429024E+01  0.19084921266E+02  0.20529406005E+02  0.28256848847E+02  0.00000000000E+00 0.  1.
</event>
<event>
12    1  0.8135779E-002  0.2253441E+03  0.7818608E-02  0.1130749E+00
         21   -1    0    0  503  502  0.00000000000E+00  0.00000000000E+00  0.25111754515E+03  0.25111754515E+03  0.00000000000E+00 0. -1.
         21   -1    0    0  501  503 -0.00000000000E+00 -0.00000000000E+00 -0.19925695421E+03  0.19925695421E+03  0.00000000000E+00 0.  1.
          6    2    1    2  501    0 -0.11530294965E+03  0.86707167173E+02  0.11067756220E+02  0.22561572603E+03  0.17310995802E+03 0.  0.
         24    2    3    3    0    0 -0.64692719276E+02  0.54026298524E+02 -0.59506654789E+02  0.13270570459E+03  0.83461207797E+02 0.  0.
         -6    2    1    2    0  502  0.11530294965E+03 -0.86707167173E+02  0.40792834717E+02  0.22475877333E+03  0.16745013523E+03 0.  0.
        -24    2    5    5    0    0  0.56001042525E+02  0.17458516192E+02  0.93708747835E+01  0.10075621148E+03  0.81382334118E+02 0.  0.
          5    1    3    3  501    0 -0.50610230376E+02  0.32680868649E+02  0.70574411009E+02  0.92910021438E+02  0.47000000000E+01 0. -1.
        -13    1    4    4    0    0 -0.16547022745E+01  0.46033931776E+02 -0.61295850014E+00  0.46067739607E+02  0.00000000000E+00 0.  1.
         14    1    4    4    0    0 -0.63038017002E+02  0.79923667478E+01 -0.58893696289E+02  0.86637964983E+02  0.00000000000E+00 0. -1.
         -5    1    5    5    0  502  0.59301907127E+02 -0.10416568337E+03  0.31421959934E+02  0.12400256185E+03  0.47000000000E+01 0.  1.
         11    1    6    6    0    0  0.49616714944E+02  0.13862762274E+02  0.42525666508E+02  0.66801398875E+02  0.00000000000E+00 0. -1.
        -12    1    6    6    0    0  0.63843275810E+01  0.35957539185E+01 -0.33154791724E+02  0.33954812607E+02  0.00000000000E+00 0.  1.
</event>
<event>
12    1  0.8135779E-002  0.4537671E+03  0.7818608E-02  0.1026608E+00
         21   -1    0    0  503  502  0.00000000000E+00  0.00000000000E+00  0.36332767453E+03  0.36332767453E+03  0.00000000000E+00 0. -1.
         21   -1    0    0  501  503 -0.00000000000E+00 -0.00000000000E+00 -0.62384507444E+03  0.62384507444E+03  0.00000000000E+00 0.  1.
          6    2    1    2  501    0 -0.14551574171E+03  0.39385187947E+03 -0.27969896825E+03  0.53304415663E+03  0.17207680271E+03 0.  0.
         24    2    3    3    0    0 -0.13975792287E+03  0.20661404703E+03 -0.19933155018E+03  0.32915161076E+03  0.79912918437E+02 0.  0.
         -6    2    1    2    0  502  0.14551574171E+03 -0.39385187947E+03  0.19181568331E+02  0.45412859235E+03  0.17196136711E+03 0.  0.
        -24    2    5    5    0    0  0.83264865674E+02 -0.24976555125E+03  0.79373677379E+02  0.28595837639E+03  0.78461098105E+02 0.  0.
          5    1    3    3  501    0 -0.57578188340E+01  0.18723783243E+03 -0.80367418069E+02  0.20389254586E+03  0.47000000000E+01 0. -1.
        -11    1    4    4    0    0 -0.10323869251E+03  0.19871445545E+03 -0.17852009218E+03  0.28638276091E+03  0.00000000000E+00 0.  1.
         12    1    4    4    0    0 -0.36519230362E+02  0.78995915848E+01 -0.20811457999E+02  0.42768849850E+02  0.00000000000E+00 0. -1.
         -5    1    5    5    0  502  0.62250876033E+02 -0.14408632821E+03 -0.60192109049E+02  0.16817021596E+03  0.47000000000E+01 0.  1.
         11    1    6    6    0    0  0.70015814667E+02 -0.17580978093E+03  0.20186007673E+02  0.19031229146E+03  0.00000000000E+00 0. -1.
        -12    1    6    6    0    0  0.13249051007E+02 -0.73955770320E+02  0.59187669706E+02  0.95646084925E+02  0.00000000000E+00 0.  1.
</event>
<event>
12    1  0.8135779E-002  0.1946481E+03  0.7818608E-02  0.1154930E+00
         21   -1    0    0  501  502  0.00000000000E+00  0.00000000000E+00  0.71758396734E+02  0.71758396734E+02  0.00000000000E+00 0. -1.
         21   -1    0    0  502  503 -0.00000000000E+00 -0.00000000000E+00 -0.60342564862E+03  0.60342564862E+03  0.00000000000E+00 0. -1.
         -6    2    1    2    0  503 -0.71210419812E+02  0.54049155084E+02 -0.39244902429E+03  0.43806860748E+03  0.17290353709E+03 0.  0.
        -24    2    3    3    0    0 -0.52677824137E+02  0.70438008833E+02 -0.13851219564E+03  0.18288621277E+03  0.80779157174E+02 0.  0.
          6    2    1    2  501    0  0.71210419812E+02 -0.54049155084E+02 -0.13921822759E+03  0.23711543787E+03  0.16985223262E+03 0.  0.
         24    2    5    5    0    0 -0.68678686940E+01 -0.63004374365E+02 -0.11914903557E+03  0.15586719139E+03  0.77983138329E+02 0.  0.
          5    1    5    5  501    0  0.78078288506E+02  0.89552192805E+01 -0.20069192024E+02  0.81248246485E+02  0.47000000000E+01 0. -1.
        -11    1    6    6    0    0 -0.11168661870E+02 -0.80101294484E+02 -0.84356499595E+02  0.11686306264E+03  0.00000000000E+00 0.  1.
         12    1    6    6    0    0  0.43007931763E+01  0.17096920119E+02 -0.34792535975E+02  0.39004128744E+02  0.00000000000E+00 0. -1.
         -5    1    3    3    0  503 -0.18532595675E+02 -0.16388853749E+02 -0.25393682864E+03  0.25518239471E+03  0.47000000000E+01 0.  1.
         13    1    4    4    0    0 -0.55635481664E+02  0.30074541436E+02 -0.12522481486E+03  0.14028912688E+03  0.00000000000E+00 0. -1.
        -14    1    4    4    0    0  0.29576575265E+01  0.40363467397E+02 -0.13287380784E+02  0.42597085892E+02  0.00000000000E+00 0.  1.
</event>
<event>
12    1  0.8135779E-002  0.2398099E+03  0.7818608E-02  0.1120476E+00
         21   -1    0    0  503  502  0.00000000000E+00  0.00000000000E+00  0.59092972116E+02  0.59092972116E+02  0.00000000000E+00 0. -1.
         21   -1    0    0  501  503 -0.00000000000E+00 -0.00000000000E+00 -0.13208325061E+04  0.13208325061E+04  0.00000000000E+00 0.  1.
          6    2    1    2  501    0  0.16749544011E+03 -0.82544411437E+01 -0.99477597183E+03  0.10232731957E+04  0.17142327926E+03 0.  0.
         24    2    3    3    0    0  0.15461862937E+03 -0.59275164016E+02 -0.69906887553E+03  0.72288394288E+03  0.80271019144E+02 0.  0.
         -6    2    1    2    0  502 -0.16749544011E+03  0.82544411437E+01 -0.26696356213E+03  0.35665228248E+03  0.16675865445E+03 0.  0.
        -24    2    5    5    0    0 -0.20803472834E+02  0.25021514707E+02 -0.68004627470E+02  0.10884910312E+03  0.78515203701E+02 0.  0.
          5    1    3    3  501    0  0.12876810749E+02  0.51020722872E+02 -0.29570709629E+03  0.30038925283E+03  0.47000000000E+01 0. -1.
        -13    1    4    4    0    0  0.68200702964E+01  0.63933835771E+00 -0.17387436008E+03  0.17400923885E+03  0.00000000000E+00 0.  1.
         14    1    4    4    0    0  0.14779855907E+03 -0.59914502374E+02 -0.52519451546E+03  0.54887470403E+03  0.00000000000E+00 0. -1.
         -5    1    5    5    0  502 -0.14669196728E+03 -0.16767073564E+02 -0.19895893466E+03  0.24780317936E+03  0.47000000000E+01 0.  1.
         11    1    6    6    0    0 -0.32502061046E+02  0.46891192556E+02 -0.32879353997E+02  0.65849979733E+02  0.00000000000E+00 0. -1.
        -12    1    6    6    0    0  0.11698588212E+02 -0.21869677849E+02 -0.35125273473E+02  0.42999123385E+02  0.00000000000E+00 0.  1.
</event>
<event>
12    1  0.8135779E-002  0.2333093E+03  0.7818608E-02  0.1124415E+00
         21   -1    0    0  501  502  0.00000000000E+00  0.00000000000E+00  0.65241753649E+03  0.65241753649E+03  0.00000000000E+00 0.  1.
         21   -1    0    0  502  503 -0.00000000000E+00 -0.00000000000E+00 -0.68925248823E+03  0.68925248823E+03  0.00000000000E+00 0. -1.
         -6    2    1    2    0  503 -0.96960323838E+02  0.12328335054E+03 -0.64743260938E+03  0.68818764168E+03  0.17272277661E+03 0.  0.
        -24    2    3    3    0    0  0.88740056310E+01  0.89206066471E+02 -0.30221152576E+03  0.32547308013E+03  0.81021289299E+02 0.  0.
          6    2    1    2  501    0  0.96960323838E+02 -0.12328335054E+03  0.61059765764E+03  0.65348238304E+03  0.17207450858E+03 0.  0.
         24    2    5    5    0    0  0.21741707029E+02 -0.37189980915E+02  0.43209831541E+03  0.44145876693E+03  0.79505296796E+02 0.  0.
          5    1    5    5  501    0  0.75218616809E+02 -0.86093369623E+02  0.17849934223E+03  0.21202361610E+03  0.47000000000E+01 0. -1.
        -13    1    6    6    0    0  0.33411176160E+02 -0.46165906400E+02  0.41500477986E+03  0.41889923003E+03  0.00000000000E+00 0.  1.
         14    1    6    6    0    0 -0.11669469131E+02  0.89759254845E+01  0.17093535546E+02  0.22559536909E+02  0.00000000000E+00 0. -1.
         -5    1    3    3    0  503 -0.10583432947E+03  0.34077284067E+02 -0.34522108362E+03  0.36271456155E+03  0.47000000000E+01 0.  1.
         11    1    4    4    0    0 -0.13412986796E+02  0.72423384505E+02 -0.28081473082E+03  0.29031356821E+03  0.00000000000E+00 0. -1.
        -12    1    4    4    0    0  0.22286992427E+02  0.16782681966E+02 -0.21396794934E+02  0.35159511925E+02  0.00000000000E+00 0.  1.
</event>
<event>
12    1  0.8135779E-002  0.1796011E+03  0.7818608E-02  0.1168371E+00
         21   -1    0    0  503  502  0.00000000000E+00  0.00000000000E+00  0.40401752330E+02  0.40401752330E+02  0.00000000000E+00 0. -1.
         21   -1    0    0  501  503 -0.00000000000E+00 -0.00000000000E+00 -0.95899759701E+03  0.95899759701E+03  0.00000000000E+00 0. -1.
          6    2    1    2  501    0 -0.25662815436E+02 -0.41856264906E+02 -0.66509658869E+03  0.68872519329E+03  0.17198369858E+03 0.  0.
         24    2    3    3    0    0 -0.15588064354E+02 -0.26878426864E+02 -0.17866788890E+03  0.20193899153E+03  0.88835264371E+02 0.  0.
         -6    2    1    2    0  502  0.25662815436E+02  0.41856264906E+02 -0.25349925599E+03  0.31067415605E+03  0.17276004006E+03 0.  0.
        -24    2    5    5    0    0 -0.43418346977E+02  0.11722859791E+02 -0.19310085249E+03  0.21397727788E+03  0.80472094030E+02 0.  0.
          5    1    3    3  501    0 -0.10074751082E+02 -0.14977838041E+02 -0.48642869979E+03  0.48678620176E+03  0.47000000000E+01 0. -1.
        -13    1    4    4    0    0 -0.41504486217E+02 -0.13704693311E+02 -0.16331270254E+03  0.16906058028E+03  0.00000000000E+00 0.  1.
         14    1    4    4    0    0  0.25916421862E+02 -0.13173733553E+02 -0.15355186354E+02  0.32878411243E+02  0.00000000000E+00 0. -1.
         -5    1    5    5    0  502  0.69081162413E+02  0.30133405115E+02 -0.60398403500E+02  0.96696878179E+02  0.47000000000E+01 0.  1.
         13    1    6    6    0    0 -0.18363628910E+02  0.45741197128E+02 -0.91250593241E+02  0.10371186407E+03  0.00000000000E+00 0. -1.
        -14    1    6    6    0    0 -0.25054718067E+02 -0.34018337337E+02 -0.10185025925E+03  0.11026541381E+03  0.00000000000E+00 0.  1.
</event>
<event>
12    1  0.8135779E-002  0.2088698E+03  0.7818608E-02  0.1143152E+00
         21   -1    0    0  503  502  0.00000000000E+00  0.00000000000E+00  0.91822134105E+03  0.91822134105E+03  0.00000000000E+00 0.  1.
         21   -1    0    0  501  503 -0.00000000000E+00 -0.00000000000E+00 -0.11222325633E+03  0.11222325633E+03  0.00000000000E+00 0. -1.
          6    2    1    2  501    0 -0.58891887418E+02  0.96630843855E+02  0.80460768665E+01  0.20560886579E+03  0.17147738028E+03 0.  0.
         24    2    3    3    0    0 -0.11236664688E+02  0.49103476188E+02  0.65364956326E+02  0.11707969052E+03  0.83052166795E+02 0.  0.
         -6    2    1    2    0  502  0.58891887418E+02 -0.96630843855E+02  0.79795200785E+03  0.82483573160E+03  0.17555854548E+03 0.  0.
        -24    2    5    5    0    0  0.27951010309E+02 -0.11661045348E+03  0.40302528411E+03  0.42816744473E+03  0.80738616893E+02 0.  0.
          5    1    3    3  501    0 -0.47655222731E+02  0.47527367667E+02 -0.57318879460E+02  0.88529175266E+02  0.47000000000E+01 0. -1.
        -11    1    4    4    0    0  0.24110284548E+02 -0.63031558199E+01  0.38968179096E+02  0.46255319439E+02  0.00000000000E+00 0.  1.
         12    1    4    4    0    0 -0.35346949236E+02  0.55406632008E+02  0.26396777230E+02  0.70824371080E+02  0.00000000000E+00 0. -1.
         -5    1    5    5    0  502  0.30940877110E+02  0.19979609624E+02  0.39492672374E+03  0.39666828686E+03  0.47000000000E+01 0.  1.
         13    1    6    6    0    0  0.36137907027E+02 -0.12530348083E+03  0.38549778708E+03  0.40695878720E+03  0.00000000000E+00 0. -1.
        -14    1    6    6    0    0 -0.81868967187E+01  0.86930273471E+01  0.17527497027E+02  0.21208657533E+02  0.00000000000E+00 0.  1.
</event>
<event>
12    1  0.8135779E-002  0.2334754E+03  0.7818608E-02  0.1124477E+00
         21   -1    0    0  503  502  0.00000000000E+00  0.00000000000E+00  0.83289448268E+02  0.83289448268E+02  0.00000000000E+00 0.  1.
         21   -1    0    0  501  503 -0.00000000000E+00 -0.00000000000E+00 -0.85637814712E+03  0.85637814712E+03  0.00000000000E+00 0.  1.
          6    2    1    2  501    0 -0.15506124011E+03 -0.18936237167E+02 -0.15699916089E+03  0.28135298724E+03  0.17351713934E+03 0.  0.
         24    2    3    3    0    0 -0.80086070573E+02 -0.56156523373E+02 -0.32552284577E+02  0.13130052716E+03  0.81319391191E+02 0.  0.
         -6    2    1    2    0  502  0.15506124011E+03  0.18936237167E+02 -0.61608953796E+03  0.65831460814E+03  0.17149121041E+03 0.  0.
        -24    2    5    5    0    0  0.26987280199E+02 -0.25822823454E+02 -0.33098309892E+03  0.34253923815E+03  0.79926130862E+02 0.  0.
          5    1    3    3  501    0 -0.74975169541E+02  0.37220286207E+02 -0.12444687632E+03  0.15005246009E+03  0.47000000000E+01 0. -1.
        -11    1    4    4    0    0 -0.92083644949E+02 -0.64412235082E+02 -0.31457702765E+02  0.11669584722E+03  0.00000000000E+00 0.  1.
         12    1    4    4    0    0  0.11997574376E+02  0.82557117083E+01 -0.10945818114E+01  0.14604679937E+02  0.00000000000E+00 0. -1.
         -5    1    5    5    0  502  0.12807395991E+03  0.44759060620E+02 -0.28510643903E+03  0.31577536999E+03  0.47000000000E+01 0.  1.
         13    1    6    6    0    0  0.29904305495E+02 -0.36455734150E+02 -0.32764325737E+03  0.33101871871E+03  0.00000000000E+00 0. -1.
        -14    1    6    6    0    0 -0.29170252956E+01  0.10632910696E+02 -0.33398415552E+01  0.11520519435E+02  0.00000000000E+00 0.  1.
</event>
<event>
12    1  0.8135779E-002  0.2188391E+03  0.7818608E-02  0.1135143E+00
         21   -1    0    0  503  502  0.00000000000E+00  0.00000000000E+00  0.82518239642E+02  0.82518239642E+02  0.00000000000E+00 0. -1.
         21   -1    0    0  501  503 -0.00000000000E+00 -0.00000000000E+00 -0.57860935084E+03  0.57860935084E+03  0.00000000000E+00 0. -1.
          6    2    1    2  501    0  0.24539404471E+02  0.13146063162E+03 -0.22032776496E+03  0.30908214823E+03  0.17059709935E+03 0.  0.
         24    2    3    3    0    0  0.68385597147E+02  0.67391090193E+02 -0.80856120517E+02  0.14938924183E+03  0.81001755634E+02 0.  0.
         -6    2    1    2    0  502 -0.24539404471E+02 -0.13146063162E+03 -0.27576334624E+03  0.35204544225E+03  0.17322381546E+03 0.  0.
        -24    2    5    5    0    0  0.30586564357E+02 -0.13690875762E+03 -0.17546224940E+03  0.23736783091E+03  0.76661205014E+02 0.  0.
          5    1    3    3  501    0 -0.43846192676E+02  0.64069541424E+02 -0.13947164444E+03  0.15969290640E+03  0.47000000000E+01 0. -1.
        -11    1    4    4    0    0 -0.14279250796E+02  0.20782615912E+00  0.20219101953E+01  0.14423186743E+02  0.00000000000E+00 0.  1.
         12    1    4    4    0    0  0.82664847943E+02  0.67183264034E+02 -0.82878030713E+02  0.13496605509E+03  0.00000000000E+00 0. -1.
         -5    1    5    5    0  502 -0.55125968828E+02  0.54481260001E+01 -0.10030109684E+03  0.11467761134E+03  0.47000000000E+01 0.  1.
         13    1    6    6    0    0  0.23701632991E+02 -0.52163076867E+02 -0.12741942534E+03  0.13970849633E+03  0.00000000000E+00 0. -1.
        -14    1    6    6    0    0  0.68849313663E+01 -0.84745680751E+02 -0.48042824066E+02  0.97659334577E+02  0.00000000000E+00 0.  1.
</event>
<event>
12    1  0.8135779E-002  0.1978460E+03  0.7818608E-02  0.1151851E+00
         21   -1    0    0  503  502  0.00000000000E+00  0.00000000000E+00  0.84917413103E+02  0.84917413103E+02  0.00000000000E+00 0. -1.
         21   -1    0    0  501  503 -0.00000000000E+00 -0.00000000000E+00 -0.59689203281E+03  0.59689203281E+03  0.00000000000E+00 0.  1.
          6    2    1    2  501    0 -0.98956291220E+02  0.10469208195E+01 -0.41983855069E+03  0.46356169079E+03  0.16979867167E+03 0.  0.
         24    2    3    3    0    0 -0.95393437593E+02  0.35783634302E+02 -0.18264244847E+03  0.22376299584E+03  0.79569076300E+02 0.  0.
         -6    2    1    2    0  502  0.98956291220E+02 -0.10469208195E+01 -0.92136069014E+02  0.21824775513E+03  0.17131720226E+03 0.  0.
        -24    2    5    5    0    0  0.60314259014E+02  0.66084813402E+02 -0.56745855382E+02  0.13295746486E+03  0.80327971197E+02 0.  0.
          5    1    3    3  501    0 -0.35628536275E+01 -0.34736713483E+02 -0.23719610222E+03  0.23979869495E+03  0.47000000000E+01 0. -1.
        -11    1    4    4    0    0 -0.92660875118E+02  0.55595233795E+00 -0.14548142805E+03  0.17248534073E+03  0.00000000000E+00 0.  1.
         12    1    4    4    0    0 -0.27325624746E+01  0.35227681964E+02 -0.37161020424E+02  0.51277655106E+02  0.00000000000E+00 0. -1.
         -5    1    5    5    0  502  0.38642032207E+02 -0.67131734222E+02 -0.35390213631E+02  0.85290290265E+02  0.47000000000E+01 0.  1.
         11    1    6    6    0    0  0.18127953556E+02  0.19934246299E+02  0.20297684411E+02  0.33734149879E+02  0.00000000000E+00 0. -1.
        -12    1    6    6    0    0  0.42186305458E+02  0.46150567104E+02 -0.77043539794E+02  0.99223314983E+02  0.00000000000E+00 0.  1.
</event>
<event>
12    1  0.8135779E-002  0.2294681E+03  0.7818608E-02  0.1127222E+00
         21   -1    0    0  503  502  0.00000000000E+00  0.00000000000E+00  0.38673825023E+03  0.38673825023E+03  0.00000000000E+00 0. -1.
         21   -1    0    0  501  503 -0.00000000000E+00 -0.00000000000E+00 -0.14363495202E+03  0.14363495202E+03  0.00000000000E+00 0. -1.
          6    2    1    2  501    0  0.23434630694E+02  0.14987480068E+03  0.58570800633E+02  0.23682512764E+03  0.17217422746E+03 0.  0.
         24    2    3    3    0    0  0.77218624443E+02  0.94749602646E+02  0.14380515096E+02  0.14790731853E+03  0.82033971600E+02 0.  0.
         -6    2    1    2    0  502 -0.23434630694E+02 -0.14987480068E+03  0.18453249758E+03  0.29354807461E+03  0.17060654046E+03 0.  0.
        -24    2    5    5    0    0 -0.50074129209E+02 -0.77411399854E+02  0.46933472854E+02  0.13569944793E+03  0.87815978330E+02 0.  0.
          5    1    3    3  501    0 -0.53783993749E+02  0.55125198036E+02  0.44190285536E+02  0.88917809115E+02  0.47000000000E+01 0. -1.
        -13    1    4    4    0    0  0.70249957716E+02  0.79650340229E+02  0.43184152442E+02  0.11464773997E+03  0.00000000000E+00 0.  1.
         14    1    4    4    0    0  0.69686667273E+01  0.15099262417E+02 -0.28803637346E+02  0.33259578558E+02  0.00000000000E+00 0. -1.
         -5    1    5    5    0  502  0.26639498515E+02 -0.72463400828E+02  0.13759902472E+03  0.15784862668E+03  0.47000000000E+01 0.  1.
         11    1    6    6    0    0  0.18848438288E+02 -0.48888805544E+02  0.24245343521E+02  0.57734007447E+02  0.00000000000E+00 0. -1.
        -12    1    6    6    0    0 -0.68922567497E+02 -0.28522594310E+02  0.22688129333E+02  0.77965440479E+02  0.00000000000E+00 0.  1.
</event>
<event>
12    1  0.8135779E-002  0.2376409E+03  0.7818608E-02  0.1121606E+00
         21   -1    0    0  501  502  0.00000000000E+00  0.00000000000E+00  0.92622870304E+03  0.92622870304E+03  0.00000000000E+00 0.  1.
         21   -1    0    0  502  503 -0.00000000000E+00 -0.00000000000E+00 -0.30028483838E+03  0.30028483838E+03  0.00000000000E+00 0.  1.
         -6    2    1    2    0  503  0.83590392151E+02 -0.14079350450E+03 -0.23507940340E+03  0.33329786188E+03  0.17033782393E+03 0.  0.
        -24    2    3    3    0    0  0.96500962157E+01 -0.88748136777E+01 -0.10748979633E+03  0.13538144976E+03  0.81253885760E+02 0.  0.
          6    2    1    2  501    0 -0.83590392151E+02  0.14079350450E+03  0.86102326806E+03  0.89321567954E+03  0.17222954878E+03 0.  0.
         24    2    5    5    0    0 -0.58576407094E+02  0.33210250985E+02  0.62180970941E+03  0.62969134950E+03  0.73005237305E+02 0.  0.
          5    1    5    5  501    0 -0.25013985057E+02  0.10758325352E+03  0.23921355865E+03  0.26352433004E+03  0.47000000000E+01 0. -1.
        -13    1    6    6    0    0 -0.15889314229E+02  0.35868739577E+02  0.47927859016E+03  0.48088148620E+03  0.00000000000E+00 0.  1.
         14    1    6    6    0    0 -0.42687092865E+02 -0.26584885924E+01  0.14253111926E+03  0.14880986330E+03  0.00000000000E+00 0. -1.
         -5    1    3    3    0  503  0.73940295935E+02 -0.13191869082E+03 -0.12758960708E+03  0.19791641212E+03  0.47000000000E+01 0.  1.
         13    1    4    4    0    0  0.41324158448E+02 -0.22635139494E+01 -0.29147004848E+02  0.50619733884E+02  0.00000000000E+00 0. -1.
        -14    1    4    4    0    0 -0.31674062232E+02 -0.66112997283E+01 -0.78342791478E+02  0.84761715880E+02  0.00000000000E+00 0.  1.
</event>
<event>
12    1  0.8135779E-002  0.1993356E+03  0.7818608E-02  0.1150941E+00
         21   -1    0    0  501  502  0.00000000000E+00  0.00000000000E+00  0.93428434856E+02  0.93428434856E+02  0.00000000000E+00 0.  1.
         21   -1    0    0  502  503 -0.00000000000E+00 -0.00000000000E+00 -0.47477205010E+03  0.47477205010E+03  0.00000000000E+00 0. -1.
         -6    2    1    2    0  503 -0.98302160106E+02 -0.22830510112E+02 -0.28938431313E+03  0.35139433032E+03  0.17190156435E+03 0.  0.
        -24    2    3    3    0    0 -0.51762853859E+02  0.20658352403E+02 -0.62235142142E+02  0.11543665601E+03  0.79663342063E+02 0.  0.
          6    2    1    2  501    0  0.98302160106E+02  0.22830510112E+02 -0.91959302109E+02  0.21680615463E+03  0.16841570166E+03 0.  0.
         24    2    5    5    0    0  0.66769486522E+01  0.51554465853E+02 -0.66795071262E+02  0.11743023440E+03  0.81399224893E+02 0.  0.
          5    1    5    5  501    0  0.91625211454E+02 -0.28723955741E+02 -0.25164230847E+02  0.99375920230E+02  0.47000000000E+01 0. -1.
        -13    1    6    6    0    0  0.30692495485E+01  0.31287341554E+02  0.13737691788E+02  0.34308048764E+02  0.00000000000E+00 0.  1.
         14    1    6    6    0    0  0.36076991038E+01  0.20267124299E+02 -0.80532763050E+02  0.83122185634E+02  0.00000000000E+00 0. -1.
         -5    1    3    3    0  503 -0.46539306247E+02 -0.43488862516E+02 -0.22714917099E+03  0.23595767432E+03  0.47000000000E+01 0.  1.
         13    1    4    4    0    0 -0.28484745865E+02  0.11260619290E+02 -0.79348339450E+02  0.85054930881E+02  0.00000000000E+00 0. -1.
        -14    1    4    4    0    0 -0.23278107994E+02  0.93977331132E+01  0.17113197308E+02  0.30381725124E+02  0.00000000000E+00 0.  1.
</event>
<event>
12    1  0.8135779E-002  0.2205626E+03  0.7818608E-02  0.1133930E+00
         21   -1    0    0  503  502  0.00000000000E+00  0.00000000000E+00  0.23305223357E+03  0.23305223357E+03  0.00000000000E+00 0.  1.
         21   -1    0    0  501  503 -0.00000000000E+00 -0.00000000000E+00 -0.33595457122E+03  0.33595457122E+03  0.00000000000E+00 0.  1.
          6    2    1    2  501    0 -0.23559014366E+02 -0.13157164167E+03 -0.22794996908E+03  0.31546241436E+03  0.17230560764E+03 0.  0.
         24    2    3    3    0    0 -0.41126380878E+02 -0.47003096077E+01 -0.11753645591E+03  0.14629332394E+03  0.76638411040E+02 0.  0.
         -6    2    1    2    0  502  0.23559014366E+02  0.13157164167E+03  0.12504763142E+03  0.25354439042E+03  0.17544721069E+03 0.  0.
        -24    2    5    5    0    0  0.69762577828E+02  0.48546708006E+02  0.32746700796E+02  0.12099454816E+03  0.79647562102E+02 0.  0.
          5    1    3    3  501    0  0.17567366512E+02 -0.12687133206E+03 -0.11041351317E+03  0.16916909043E+03  0.47000000000E+01 0. -1.
        -13    1    4    4    0    0 -0.20327515833E+02 -0.40400389940E+02 -0.69660780599E+02  0.83054342216E+02  0.00000000000E+00 0.  1.
         14    1    4    4    0    0 -0.20798865045E+02  0.35700080333E+02 -0.47875675308E+02  0.63238981721E+02  0.00000000000E+00 0. -1.
         -5    1    5    5    0  502 -0.46203563462E+02  0.83024933665E+02  0.92300930629E+02  0.13254984225E+03  0.47000000000E+01 0.  1.
         11    1    6    6    0    0 -0.12214262737E+02  0.98028385443E+01  0.25640363352E+02  0.30045167507E+02  0.00000000000E+00 0. -1.
        -12    1    6    6    0    0  0.81976840565E+02  0.38743869462E+02  0.71063374439E+01  0.90949380656E+02  0.00000000000E+00 0.  1.
</event>
<event>
12    1  0.8135779E-002  0.2162422E+03  0.7818608E-02  0.1137595E+00
         21   -1    0    0  501  502  0.00000000000E+00  0.00000000000E+00  0.17816553818E+03  0.17816553818E+03  0.00000000000E+00 0.  1.
         21   -1    0    0  502  503 -0.00000000000E+00 -0.00000000000E+00 -0.27690236149E+03  0.27690236149E+03  0.00000000000E+00 0.  1.
         -6    2    1    2    0  503 -0.30305648818E+02  0.12454595506E+03 -0.11092727973E+03  0.24303408023E+03  0.17415675552E+03 0.  0.
        -24    2    3    3    0    0 -0.37790344210E+02  0.61186570674E+02 -0.13675805196E+03  0.17404313120E+03  0.80102061120E+02 0.  0.
          6    2    1    2  501    0  0.30305648818E+02 -0.12454595506E+03  0.12190456424E+02  0.21203381943E+03  0.16846247678E+03 0.  0.
         24    2    5    5    0    0 -0.41781237266E+02 -0.93386430587E+02 -0.11164469126E+02  0.12996690979E+03  0.79372886201E+02 0.  0.
          5    1    5    5  501    0  0.72086886084E+02 -0.31159524474E+02  0.23354925550E+02  0.82066909642E+02  0.47000000000E+01 0. -1.
        -11    1    6    6    0    0 -0.39928328985E+02 -0.10227772385E+03  0.66230132526E+01  0.10999485696E+03  0.00000000000E+00 0.  1.
         12    1    6    6    0    0 -0.18529082810E+01  0.88912932655E+01 -0.17787482378E+02  0.19972052833E+02  0.00000000000E+00 0. -1.
         -5    1    3    3    0  503  0.74846953921E+01  0.63359384387E+02  0.25830772225E+02  0.68990949035E+02  0.47000000000E+01 0.  1.
         11    1    4    4    0    0 -0.58239670167E+02  0.45508118367E+02 -0.12608640137E+03  0.14615275786E+03  0.00000000000E+00 0. -1.
        -12    1    4    4    0    0  0.20449325957E+02  0.15678452308E+02 -0.10671650586E+02  0.27890373341E+02  0.00000000000E+00 0.  1.
</event>
<event>
12    1  0.8135779E-002  0.2293169E+03  0.7818608E-02  0.1127632E+00
         21   -1    0    0  503  502  0.00000000000E+00  0.00000000000E+00  0.21717369764E+03  0.21717369764E+03  0.00000000000E+00 0.  1.
         21   -1    0    0  501  503 -0.00000000000E+00 -0.00000000000E+00 -0.24006616554E+03  0.24006616554E+03  0.00000000000E+00 0. -1.
          6    2    1    2  501    0  0.96433583860E+02 -0.11784180392E+03 -0.25901619331E+02  0.23077505537E+03  0.17146458950E+03 0.  0.
         24    2    3    3    0    0  0.95587833481E+02 -0.68536391938E+02  0.39914474062E+02  0.14840038030E+03  0.81211062693E+02 0.  0.
         -6    2    1    2    0  502 -0.96433583860E+02  0.11784180392E+03  0.30091514292E+01  0.22646480781E+03  0.16760407912E+03 0.  0.
        -24    2    5    5    0    0 -0.42636512090E+02  0.14127737053E+03  0.27667896198E+01  0.16759631494E+03  0.79395856738E+02 0.  0.
          5    1    3    3  501    0  0.84575037868E+00 -0.49305411979E+02 -0.65816093393E+02  0.82374675074E+02  0.47000000000E+01 0. -1.
        -11    1    4    4    0    0  0.49331705178E+02  0.50205010757E+01  0.36263094619E+02  0.61431544000E+02  0.00000000000E+00 0.  1.
         12    1    4    4    0    0  0.46256128303E+02 -0.73556893014E+02  0.36513794427E+01  0.86968836299E+02  0.00000000000E+00 0. -1.
         -5    1    5    5    0  502 -0.53797071771E+02 -0.23435566618E+02  0.24236180943E+00  0.58868492872E+02  0.47000000000E+01 0.  1.
         13    1    6    6    0    0  0.12352625485E+02  0.24883547368E+02  0.24504887313E+02  0.37044132980E+02  0.00000000000E+00 0. -1.
        -14    1    6    6    0    0 -0.54989137574E+02  0.11639382317E+03 -0.21738097693E+02  0.13055218196E+03  0.00000000000E+00 0.  1.
</event>
<event>
12    1  0.8135779E-002  0.2240170E+03  0.7818608E-02  0.1132114E+00
         21   -1    0    0  503  502  0.00000000000E+00  0.00000000000E+00  0.14625595801E+03  0.14625595801E+03  0.00000000000E+00 0.  1.
         21   -1    0    0  501  503 -0.00000000000E+00 -0.00000000000E+00 -0.44652964708E+03  0.44652964708E+03  0.00000000000E+00 0.  1.
          6    2    1    2  501    0 -0.87393009971E+02 -0.99017091380E+02 -0.30099518556E+03  0.37520891929E+03  0.18094670157E+03 0.  0.
         24    2    3    3    0    0 -0.33524417365E+02 -0.12232977683E+03 -0.26920218195E+03  0.30828962723E+03  0.80524646103E+02 0.  0.
         -6    2    1    2    0  502  0.87393009971E+02  0.99017091380E+02  0.72149648389E+00  0.21757668580E+03  0.17290798440E+03 0.  0.
        -24    2    5    5    0    0  0.12419398838E+03  0.66710376493E+02  0.47960904510E+01  0.16821345905E+03  0.91642480545E+02 0.  0.
          5    1    3    3  501    0 -0.53868592606E+02  0.23312685449E+02 -0.31793003607E+02  0.66919292065E+02  0.47000000000E+01 0. -1.
        -13    1    4    4    0    0 -0.30684976598E+02 -0.62602822454E+02 -0.64306314859E+02  0.94847157568E+02  0.00000000000E+00 0.  1.
         14    1    4    4    0    0 -0.28394407670E+01 -0.59726954375E+02 -0.20489586709E+03  0.21344246966E+03  0.00000000000E+00 0. -1.
         -5    1    5    5    0  502 -0.36800978413E+02  0.32306714887E+02 -0.40745939672E+01  0.49363226747E+02  0.47000000000E+01 0.  1.
         13    1    6    6    0    0 -0.94401307289E+01  0.53478099299E+01  0.17527972893E+02  0.20614193483E+02  0.00000000000E+00 0. -1.
        -14    1    6    6    0    0  0.13363411911E+03  0.61362566564E+02 -0.12731882442E+02  0.14759926557E+03  0.00000000000E+00 0.  1.
</event>
<event>
12    1  0.8135779E-002  0.1998752E+03  0.7818608E-02  0.1150057E+00
         21   -1    0    0  503  502  0.00000000000E+00  0.00000000000E+00  0.37915630720E+03  0.37915630720E+03  0.00000000000E+00 0.  1.
         21   -1    0    0  501  503 -0.00000000000E+00 -0.00000000000E+00 -0.18451971526E+03  0.18451971526E+03  0.00000000000E+00 0.  1.
          6    2    1    2  501    0 -0.14783735383E+02 -0.10002088511E+03 -0.87751501477E+02  0.21828977870E+03  0.17241625556E+03 0.  0.
         24    2    3    3    0    0 -0.33559936967E+02 -0.12165006697E+03 -0.10735741770E+03  0.18326337144E+03  0.78325219520E+02 0.  0.
         -6    2    1    2    0  502  0.14783735383E+02  0.10002088511E+03  0.28238809342E+03  0.34538624377E+03  0.17124802419E+03 0.  0.
        -24    2    5    5    0    0 -0.16763984631E+02  0.77550176266E+02  0.77882580393E+02  0.13719213662E+03  0.80379879334E+02 0.  0.
          5    1    3    3  501    0  0.18776201584E+02  0.21629181861E+02  0.19605916227E+02  0.35026407253E+02  0.47000000000E+01 0. -1.
        -13    1    4    4    0    0 -0.45675854254E+02 -0.11279218303E+03 -0.64232730861E+02  0.13760161310E+03  0.00000000000E+00 0.  1.
         14    1    4    4    0    0  0.12115917287E+02 -0.88578839475E+01 -0.43124686844E+02  0.45661758345E+02  0.00000000000E+00 0. -1.
         -5    1    5    5    0  502  0.31547720014E+02  0.22470708846E+02  0.20450551303E+03  0.20819410715E+03  0.47000000000E+01 0.  1.
         11    1    6    6    0    0 -0.37502645267E+02  0.95122743854E+01  0.43412803265E+02  0.58151554179E+02  0.00000000000E+00 0. -1.
        -12    1    6    6    0    0  0.20738660636E+02  0.68037901881E+02  0.34469777128E+02  0.79040582441E+02  0.00000000000E+00 0.  1.
</event>
<event>
12    1  0.8135779E-002  0.2271266E+03  0.7818608E-02  0.1128774E+00
         21   -1    0    0  503  502  0.00000000000E+00  0.00000000000E+00  0.19315608857E+03  0.19315608857E+03  0.00000000000E+00 0. -1.
         21   -1    0    0  501  503 -0.00000000000E+00 -0.00000000000E+00 -0.27643390336E+03  0.27643390336E+03  0.00000000000E+00 0. -1.
          6    2    1    2  501    0  0.13825014736E+03  0.52592905109E+02 -0.86218345280E+02  0.24244439998E+03  0.17165828587E+03 0.  0.
         24    2    3    3    0    0  0.10264521785E+03  0.96120327024E+02 -0.88347377074E+02  0.18597343186E+03  0.83700061576E+02 0.  0.
         -6    2    1    2    0  502 -0.13825014736E+03 -0.52592905109E+02  0.29405304928E+01  0.22714559195E+03  0.17235822089E+03 0.  0.
        -24    2    5    5    0    0 -0.51952641356E+02  0.50141399702E+01  0.56071473132E+02  0.11048018040E+03  0.79609306108E+02 0.  0.
          5    1    3    3  501    0  0.35604929515E+02 -0.43527421916E+02  0.21290317934E+01  0.56470968123E+02  0.47000000000E+01 0. -1.
        -13    1    4    4    0    0  0.53749359369E+02  0.23603408727E+02 -0.78408584144E+02  0.97949071478E+02  0.00000000000E+00 0.  1.
         14    1    4    4    0    0  0.48895858480E+02  0.72516918297E+02 -0.99387929304E+01  0.88024360383E+02  0.00000000000E+00 0. -1.
         -5    1    5    5    0  502 -0.86297506008E+02 -0.57607045079E+02 -0.53130942640E+02  0.11666541155E+03  0.47000000000E+01 0.  1.
         11    1    6    6    0    0 -0.14670202472E+02 -0.33597045260E+02  0.61361067595E+01  0.37170258231E+02  0.00000000000E+00 0. -1.
        -12    1    6    6    0    0 -0.37282438885E+02  0.38611185230E+02  0.49935366373E+02  0.73309922172E+02  0.00000000000E+00 0.  1.
</event>
<event>
12    1  0.8135779E-002  0.2390039E+03  0.7818608E-02  0.1121279E+00
         21   -1    0    0  501  502  0.00000000000E+00  0.00000000000E+00  0.16924763894E+03  0.16924763894E+03  0.00000000000E+00 0.  1.
         21   -1    0    0  502  503 -0.00000000000E+00 -0.00000000000E+00 -0.33566339340E+03  0.33566339340E+03  0.00000000000E+00 0.  1.
         -6    2    1    2    0  503 -0.11389972843E+02  0.15833436690E+03 -0.11475311861E+03  0.26512475609E+03  0.17867108003E+03 0.  0.
        -24    2    3    3    0    0  0.24448284419E+02  0.73048033787E+01 -0.34694687921E+02  0.90408551733E+02  0.79491547306E+02 0.  0.
          6    2    1    2  501    0  0.11389972843E+02 -0.15833436690E+03 -0.51662635852E+02  0.23978627625E+03  0.17213055251E+03 0.  0.
         24    2    5    5    0    0 -0.43008913909E+02 -0.94938785503E+02  0.16543018191E+02  0.13184027185E+03  0.79025604476E+02 0.  0.
          5    1    5    5  501    0  0.54398886752E+02 -0.63395581400E+02 -0.68205654043E+02  0.10794600439E+03  0.47000000000E+01 0. -1.
        -11    1    6    6    0    0 -0.78797822365E+01 -0.95323273501E+02  0.11111865188E+02  0.96291697394E+02  0.00000000000E+00 0.  1.
         12    1    6    6    0    0 -0.35129131673E+02  0.38448799776E+00  0.54311530033E+01  0.35548574459E+02  0.00000000000E+00 0. -1.
         -5    1    3    3    0  503 -0.35838257262E+02  0.15102956352E+03 -0.80058430688E+02  0.17471620436E+03  0.47000000000E+01 0.  1.
         11    1    4    4    0    0  0.53568710342E+02  0.80899295881E+01 -0.19715617124E+02  0.57652053277E+02  0.00000000000E+00 0. -1.
        -12    1    4    4    0    0 -0.29120425924E+02 -0.78512620938E+00 -0.14979070797E+02  0.32756498456E+02  0.00000000000E+00 0.  1.
</event>
<event>
12    1  0.8135779E-002  0.2614596E+03  0.7818608E-02  0.1106288E+00
         21   -1    0    0  501  502  0.00000000000E+00  0.00000000000E+00  0.57685676823E+03  0.57685676823E+03  0.00000000000E+00 0.  1.
         21   -1    0    0  502  503 -0.00000000000E+00 -0.00000000000E+00 -0.16027678324E+03  0.16027678324E+03  0.00000000000E+00 0.  1.
         -6    2    1    2    0  503 -0.19347490909E+03  0.34987022616E+02  0.19970751778E+02  0.26209671756E+03  0.17216046651E+03 0.  0.
        -24    2    3    3    0    0 -0.11864246413E+03  0.18985709405E+02 -0.55657365401E+02  0.15440438287E+03  0.79413346918E+02 0.  0.
          6    2    1    2  501    0  0.19347490909E+03 -0.34987022616E+02  0.39660923321E+03  0.47503683391E+03  0.17234986945E+03 0.  0.
         24    2    5    5    0    0  0.14689716129E+03 -0.55392212966E+02  0.17831654347E+03  0.25085020010E+03  0.80510620180E+02 0.  0.
          5    1    5    5  501    0  0.46577747799E+02  0.20405190349E+02  0.21829268974E+03  0.22418663381E+03  0.47000000000E+01 0. -1.
        -13    1    6    6    0    0  0.32063949000E+02 -0.30833692400E+02  0.99600548341E+01  0.45585261925E+02  0.00000000000E+00 0.  1.
         14    1    6    6    0    0  0.11483321229E+03 -0.24558520566E+02  0.16835648864E+03  0.20526493817E+03  0.00000000000E+00 0. -1.
         -5    1    3    3    0  503 -0.74832444960E+02  0.16001313211E+02  0.75628117179E+02  0.10769233469E+03  0.47000000000E+01 0.  1.
         11    1    4    4    0    0 -0.62910217594E+02 -0.30055602463E+02 -0.29293599127E+02  0.75625059781E+02  0.00000000000E+00 0. -1.
        -12    1    4    4    0    0 -0.55732246539E+02  0.49041311869E+02 -0.26363766274E+02  0.78779323088E+02  0.00000000000E+00 0.  1.
</event>
<event>
12    1  0.8135779E-002  0.2667222E+03  0.7818608E-02  0.1103214E+00
         21   -1    0    0  503  502  0.00000000000E+00  0.00000000000E+00  0.36423661480E+03  0.36423661480E+03  0.00000000000E+00 0. -1.
         21   -1    0    0  501  503 -0.00000000000E+00 -0.00000000000E+00 -0.19511393756E+03  0.19511393756E+03  0.00000000000E+00 0.  1.
          6    2    1    2  501    0 -0.20259108726E+03 -0.15395262723E+02  0.87425053330E+02  0.28068465505E+03  0.17280212059E+03 0.  0.
         24    2    3    3    0    0 -0.20292817299E+03 -0.55062855345E+02  0.89246532088E+02  0.24069666540E+03  0.75882671384E+02 0.  0.
         -6    2    1    2    0  502  0.20259108726E+03  0.15395262723E+02  0.81697623907E+02  0.27866589731E+03  0.17233693109E+03 0.  0.
        -24    2    5    5    0    0  0.19452857805E+03 -0.11022367369E+02  0.11100167165E+03  0.23812317357E+03  0.80115007462E+02 0.  0.
          5    1    3    3  501    0  0.33708572668E+00  0.39667592623E+02 -0.18214787578E+01  0.39987989648E+02  0.47000000000E+01 0. -1.
        -11    1    4    4    0    0 -0.27004497638E+02 -0.25271794332E+02 -0.74842462517E+01  0.37734870126E+02  0.00000000000E+00 0.  1.
         12    1    4    4    0    0 -0.17592367535E+03 -0.29791061013E+02  0.96730778340E+02  0.20296179528E+03  0.00000000000E+00 0. -1.
         -5    1    5    5    0  502  0.80625092108E+01  0.26417630091E+02 -0.29304047738E+02  0.40542723740E+02  0.47000000000E+01 0.  1.
         11    1    6    6    0    0  0.28430516758E+02 -0.26270618135E+02  0.43381225185E+02  0.58140952511E+02  0.00000000000E+00 0. -1.
        -12    1    6    6    0    0  0.16609806129E+03  0.15248250767E+02  0.67620446460E+02  0.17998222105E+03  0.00000000000E+00 0.  1.
</event>
<event>
12    1  0.8135779E-002  0.2780869E+03  0.7818608E-02  0.1096815E+00
         21   -1    0    0  501  502  0.00000000000E+00  0.00000000000E+00  0.90728836143E+03  0.90728836143E+03  0.00000000000E+00 0. -1.
         21   -1    0    0  502  503 -0.00000000000E+00 -0.00000000000E+00 -0.96362648568E+02  0.96362648568E+02  0.00000000000E+00 0. -1.
         -6    2    1    2    0  503  0.26829183059E+02  0.21629253151E+03  0.23326543641E+03  0.36253968821E+03  0.17181384535E+03 0.  0.
        -24    2    3    3    0    0  0.31957795703E+02  0.21748471103E+03  0.14699431635E+03  0.27598034373E+03  0.78974178374E+02 0.  0.
          6    2    1    2  501    0 -0.26829183059E+02 -0.21629253151E+03  0.57766027645E+03  0.64111132179E+03  0.17271383176E+03 0.  0.
         24    2    5    5    0    0 -0.31927645033E+02 -0.16724601629E+03  0.55123906413E+03  0.58497109174E+03  0.96623329797E+02 0.  0.
          5    1    5    5  501    0  0.50984619736E+01 -0.49046515218E+02  0.26421212322E+02  0.56140230050E+02  0.47000000000E+01 0. -1.
        -11    1    6    6    0    0 -0.61672478427E+02 -0.99329188831E+02  0.27216284002E+03  0.29621342616E+03  0.00000000000E+00 0.  1.
         12    1    6    6    0    0  0.29744833394E+02 -0.67916827460E+02  0.27907622411E+03  0.28875766558E+03  0.00000000000E+00 0. -1.
         -5    1    3    3    0  503 -0.51286126440E+01 -0.11921795207E+01  0.86271120064E+02  0.86559344479E+02  0.47000000000E+01 0.  1.
         11    1    4    4    0    0  0.54496678161E+02  0.13478927825E+03  0.72706664802E+02  0.16255551842E+03  0.00000000000E+00 0. -1.
        -12    1    4    4    0    0 -0.22538882458E+02  0.82695432777E+02  0.74287651544E+02  0.11342482531E+03  0.00000000000E+00 0.  1.
</event>
<event>
12    1  0.8135779E-002  0.2040754E+03  0.7818608E-02  0.1146491E+00
         21   -1    0    0  501  502  0.00000000000E+00  0.00000000000E+00  0.41762209153E+02  0.41762209153E+02  0.00000000000E+00 0. -1.
         21   -1    0    0  502  503 -0.00000000000E+00 -0.00000000000E+00 -0.11437808694E+04  0.11437808694E+04  0.00000000000E+00 0.  1.
         -6    2    1    2    0  503  0.10917341513E+03  0.22402493772E+02 -0.76651179637E+03  0.79321316122E+03  0.17095636533E+03 0.  0.
        -24    2    3    3    0    0  0.65815818245E+02 -0.16991458015E+02 -0.22099057841E+03  0.24453542894E+03  0.79626055314E+02 0.  0.
          6    2    1    2  501    0 -0.10917341513E+03 -0.22402493772E+02 -0.33550686383E+03  0.39232991729E+03  0.17010938254E+03 0.  0.
         24    2    5    5    0    0  0.78404615156E+01  0.19475404514E+01 -0.19406247564E+03  0.20709013634E+03  0.71838808245E+02 0.  0.
          5    1    5    5  501    0 -0.11701387665E+03 -0.24350034223E+02 -0.14144438819E+03  0.18523978095E+03  0.47000000000E+01 0. -1.
        -11    1    6    6    0    0 -0.26111353884E+02  0.18409966625E+02 -0.11703381401E+03  0.12131629443E+03  0.00000000000E+00 0.  1.
         12    1    6    6    0    0  0.33951815399E+02 -0.16462426174E+02 -0.77028661625E+02  0.85773841911E+02  0.00000000000E+00 0. -1.
         -5    1    3    3    0  503  0.43357596888E+02  0.39393951786E+02 -0.54552121796E+03  0.54867773227E+03  0.47000000000E+01 0.  1.
         11    1    4    4    0    0  0.22129186198E+02  0.21871997042E+02 -0.24715106951E+02  0.39735647069E+02  0.00000000000E+00 0. -1.
        -12    1    4    4    0    0  0.43686632048E+02 -0.38863455057E+02 -0.19627547146E+03  0.20479978187E+03  0.00000000000E+00 0.  1.
</event>
<event>
12    1  0.8135779E-002  0.2031775E+03  0.7818608E-02  0.1147213E+00
         21   -1    0    0  503  502  0.00000000000E+00  0.00000000000E+00  0.51007892931E+03  0.51007892931E+03  0.00000000000E+00 0.  1.
         21   -1    0    0  501  503 -0.00000000000E+00 -0.00000000000E+00 -0.12526519364E+03  0.12526519364E+03  0.00000000000E+00 0. -1.
          6    2    1    2  501    0  0.81151016791E+02  0.70216791282E+02  0.27118395568E+01  0.20258213395E+03  0.17180303146E+03 0.  0.
         24    2    3    3    0    0  0.43970061417E+01  0.78948835897E+01  0.45411494873E+02  0.94783484179E+02  0.82704547376E+02 0.  0.
         -6    2    1    2    0  502 -0.81151016791E+02 -0.70216791282E+02  0.38210189611E+03  0.43276198900E+03  0.17252592503E+03 0.  0.
        -24    2    5    5    0    0 -0.10394144896E+03 -0.24722100626E+01  0.23310374951E+03  0.26744027302E+03  0.79856151708E+02 0.  0.
          5    1    3    3  501    0  0.76754010649E+02  0.62321907692E+02 -0.42699655316E+02  0.10779864977E+03  0.47000000000E+01 0. -1.
        -13    1    4    4    0    0  0.22896736752E+02  0.39493878994E+02  0.32166855857E+02  0.55845623352E+02  0.00000000000E+00 0.  1.
         14    1    4    4    0    0 -0.18499730610E+02 -0.31598995404E+02  0.13244639016E+02  0.38937860828E+02  0.00000000000E+00 0. -1.
         -5    1    5    5    0  502  0.22790432168E+02 -0.67744581219E+02  0.14899814660E+03  0.16532171598E+03  0.47000000000E+01 0.  1.
         13    1    6    6    0    0 -0.11345196848E+03 -0.13039265186E+02  0.18620979786E+03  0.21843868798E+03  0.00000000000E+00 0. -1.
        -14    1    6    6    0    0  0.95105195171E+01  0.10567055123E+02  0.46893951650E+02  0.49001585044E+02  0.00000000000E+00 0.  1.
</event>
<event>
12    1  0.8135779E-002  0.2329755E+03  0.7818608E-02  0.1124670E+00
         21   -1    0    0  501  502  0.00000000000E+00  0.00000000000E+00  0.90000608007E+03  0.90000608007E+03  0.00000000000E+00 0.  1.
         21   -1    0    0  502  503 -0.00000000000E+00 -0.00000000000E+00 -0.60487563111E+02  0.60487563111E+02  0.00000000000E+00 0.  1.
         -6    2    1    2    0  503  0.15591115859E+03  0.21472577363E+02  0.38436059401E+03  0.44945592986E+03  0.17177952646E+03 0.  0.
        -24    2    3    3    0    0  0.21514139616E+02 -0.66790524565E+01  0.44381175067E+02  0.82763731588E+02  0.66126232473E+02 0.  0.
          6    2    1    2  501    0 -0.15591115859E+03 -0.21472577363E+02  0.45515792295E+03  0.51103771332E+03  0.17094282278E+03 0.  0.
         24    2    5    5    0    0 -0.13240369676E+03 -0.78760396050E+02  0.35735651286E+03  0.39518564926E+03  0.68804659686E+02 0.  0.
          5    1    5    5  501    0 -0.23507461826E+02  0.57287818686E+02  0.97801410094E+02  0.11585206406E+03  0.47000000000E+01 0. -1.
        -11    1    6    6    0    0 -0.10179354844E+03 -0.30522666312E+02  0.18196910409E+03  0.21072805818E+03  0.00000000000E+00 0.  1.
         12    1    6    6    0    0 -0.30610148327E+02 -0.48237729738E+02  0.17538740877E+03  0.18445759107E+03  0.00000000000E+00 0. -1.
         -5    1    3    3    0  503  0.13439701897E+03  0.28151629820E+02  0.33997941894E+03  0.36669219827E+03  0.47000000000E+01 0.  1.
         13    1    4    4    0    0  0.17920551098E+02 -0.36045369176E+02  0.24642850068E+02  0.47198356434E+02  0.00000000000E+00 0. -1.
        -14    1    4    4    0    0  0.35935885180E+01  0.29366316719E+02  0.19738324999E+02  0.35565375154E+02  0.00000000000E+00 0.  1.
</event>
<event>
12    1  0.8135779E-002  0.1831349E+03  0.7818608E-02  0.1165297E+00
         21   -1    0    0  501  502  0.00000000000E+00  0.00000000000E+00  0.15942274949E+03  0.15942274949E+03  0.00000000000E+00 0. -1.
         21   -1    0    0  502  503 -0.00000000000E+00 -0.00000000000E+00 -0.22387811890E+03  0.22387811890E+03  0.00000000000E+00 0.  1.
         -6    2    1    2    0  503 -0.58978208675E+02 -0.27262636432E+02 -0.83102343119E+02  0.19921904460E+03  0.16899866229E+03 0.  0.
        -24    2    3    3    0    0 -0.59980183060E+02 -0.67093171012E+02 -0.17357484520E+02  0.12219987900E+03  0.80823339469E+02 0.  0.
          6    2    1    2  501    0  0.58978208675E+02  0.27262636432E+02  0.18646973718E+02  0.18408182379E+03  0.17122128307E+03 0.  0.
         24    2    5    5    0    0  0.13215455031E+01 -0.17694397451E+02 -0.36749259266E+02  0.92232717463E+02  0.82713529306E+02 0.  0.
          5    1    5    5  501    0  0.57656663171E+02  0.44957033882E+02  0.55396232983E+02  0.91849106323E+02  0.47000000000E+01 0. -1.
        -13    1    6    6    0    0 -0.23925299622E+02  0.42884834020E+01  0.16469464808E+02  0.29360761621E+02  0.00000000000E+00 0.  1.
         14    1    6    6    0    0  0.25246845125E+02 -0.21982880853E+02 -0.53218724074E+02  0.62871955842E+02  0.00000000000E+00 0. -1.
         -5    1    3    3    0  503  0.10019743854E+01  0.39830534580E+02 -0.65744858599E+02  0.77019165601E+02  0.47000000000E+01 0.  1.
         13    1    4    4    0    0  0.23716911442E+01 -0.82809467356E+01  0.25107998351E+02  0.26544501858E+02  0.00000000000E+00 0. -1.
        -14    1    4    4    0    0 -0.62351874204E+02 -0.58812224276E+02 -0.42465482870E+02  0.95655377144E+02  0.00000000000E+00 0.  1.
</event>
<event>
12    1  0.8135779E-002  0.1798915E+03  0.7818608E-02  0.1168857E+00
         21   -1    0    0  503  502  0.00000000000E+00  0.00000000000E+00  0.46035902430E+03  0.46035902430E+03  0.00000000000E+00 0. -1.
         21   -1    0    0  501  503 -0.00000000000E+00 -0.00000000000E+00 -0.16241928586E+03  0.16241928586E+03  0.00000000000E+00 0. -1.
          6    2    1    2  501    0  0.27721001390E+02 -0.34003986810E+02 -0.86761073215E+02  0.19972092169E+03  0.17445984552E+03 0.  0.
         24    2    3    3    0    0  0.31074433600E+02 -0.13314486961E+02 -0.12705106171E+03  0.15406269040E+03  0.80314658086E+02 0.  0.
         -6    2    1    2    0  502 -0.27721001390E+02  0.34003986810E+02  0.38470081165E+03  0.42305738847E+03  0.17046440807E+03 0.  0.
        -24    2    5    5    0    0 -0.65432435389E+02  0.31391037624E+02  0.15065401404E+03  0.18593089642E+03  0.81282627019E+02 0.  0.
          5    1    3    3  501    0 -0.33534322096E+01 -0.20689499849E+02  0.40289988498E+02  0.45658231293E+02  0.47000000000E+01 0. -1.
        -13    1    4    4    0    0  0.50073386377E+02  0.36829566142E+01 -0.42593312828E+02  0.65841464826E+02  0.00000000000E+00 0.  1.
         14    1    4    4    0    0 -0.18998952777E+02 -0.16997443575E+02 -0.84457748885E+02  0.88221225572E+02  0.00000000000E+00 0. -1.
         -5    1    5    5    0  502  0.37711433998E+02  0.26129491866E+01  0.23404679761E+03  0.23712649205E+03  0.47000000000E+01 0.  1.
         11    1    6    6    0    0 -0.57565701259E+02  0.87720268018E+01  0.15114910856E+03  0.16197781155E+03  0.00000000000E+00 0. -1.
        -12    1    6    6    0    0 -0.78667341299E+01  0.22619010822E+02 -0.49509452194E+00  0.23953084875E+02  0.00000000000E+00 0.  1.
</event>
<event>
12    1  0.8135779E-002  0.1947059E+03  0.7818608E-02  0.1154331E+00
         21   -1    0    0  501  502  0.00000000000E+00  0.00000000000E+00  0.75087911919E+02  0.75087911919E+02  0.00000000000E+00 0. -1.
         21   -1    0    0  502  503 -0.00000000000E+00 -0.00000000000E+00 -0.62598256168E+03  0.62598256168E+03  0.00000000000E+00 0. -1.
         -6    2    1    2    0  503 -0.70011711365E+02  0.60937294888E+02 -0.42985825325E+03  0.47181034137E+03  0.17091485221E+03 0.  0.
        -24    2    3    3    0    0 -0.34971660382E+02  0.97332291678E+02 -0.21908007370E+03  0.25501105185E+03  0.79611342410E+02 0.  0.
          6    2    1    2  501    0  0.70011711365E+02 -0.60937294888E+02 -0.12103639651E+03  0.22926013223E+03  0.17115900593E+03 0.  0.
         24    2    5    5    0    0  0.24050888846E+02 -0.88338500324E+02 -0.12297954343E+03  0.17550988492E+03  0.85426083302E+02 0.  0.
          5    1    5    5  501    0  0.45960822519E+02  0.27401205436E+02  0.19431469117E+01  0.53750247310E+02  0.47000000000E+01 0. -1.
        -11    1    6    6    0    0  0.13928191620E+02 -0.26706871587E+02 -0.10683467873E+03  0.11099954996E+03  0.00000000000E+00 0.  1.
         12    1    6    6    0    0  0.10122697226E+02 -0.61631628737E+02 -0.16144864692E+02  0.64510334954E+02  0.00000000000E+00 0. -1.
         -5    1    3    3    0  503 -0.35040050983E+02 -0.36394996790E+02 -0.21077817955E+03  0.21679928952E+03  0.47000000000E+01 0.  1.
         11    1    4    4    0    0  0.98349003506E+01  0.82591764054E+02 -0.13342462061E+03  0.15722676025E+03  0.00000000000E+00 0. -1.
        -12    1    4    4    0    0 -0.44806560733E+02  0.14740527625E+02 -0.85655453095E+02  0.97784291603E+02  0.00000000000E+00 0.  1.
</event>
<event>
12    1  0.8135779E-002  0.2230619E+03  0.7818608E-02  0.1131680E+00
         21   -1    0    0  503  502  0.00000000000E+00  0.00000000000E+00  0.24527569166E+03  0.24527569166E+03  0.00000000000E+00 0.  1.
         21   -1    0    0  501  503 -0.00000000000E+00 -0.00000000000E+00 -0.20592626428E+03  0.20592626428E+03  0.00000000000E+00 0.  1.
          6    2    1    2  501    0  0.47988530088E+02  0.13307513473E+03 -0.91297616388E+01  0.22324861016E+03  0.17246651527E+03 0.  0.
         24    2    3    3    0    0  0.51834942652E+02  0.13830033578E+03 -0.55787526008E+02  0.17590798710E+03  0.77572725320E+02 0.  0.
         -6    2    1    2    0  502 -0.47988530088E+02 -0.13307513473E+03  0.48479189019E+02  0.22795334578E+03  0.17204826526E+03 0.  0.
        -24    2    5    5    0    0 -0.66025635513E+02 -0.13812581206E+03 -0.31501478608E+01  0.17283052890E+03  0.80139526987E+02 0.  0.
          5    1    3    3  501    0 -0.38464125639E+01 -0.52252010482E+01  0.46657764369E+02  0.47340623058E+02  0.47000000000E+01 0. -1.
        -13    1    4    4    0    0  0.28058504836E+02  0.10257276547E+03 -0.10422218369E+01  0.10634631228E+03  0.00000000000E+00 0.  1.
         14    1    4    4    0    0  0.23776437816E+02  0.35727570306E+02 -0.54745304171E+02  0.69561674822E+02  0.00000000000E+00 0. -1.
         -5    1    5    5    0  502  0.18037105425E+02  0.50506773350E+01  0.51629336880E+02  0.55122816876E+02  0.47000000000E+01 0.  1.
         13    1    6    6    0    0 -0.59344247764E+02 -0.35389874441E+02  0.66365338130E+01  0.69413446368E+02  0.00000000000E+00 0. -1.
        -14    1    6    6    0    0 -0.66813877484E+01 -0.10273593762E+03 -0.97866816738E+01  0.10341708253E+03  0.00000000000E+00 0.  1.
</event>
<event>
12    1  0.8135779E-002  0.1855412E+03  0.7818608E-02  0.1162732E+00
         21   -1    0    0  501  502  0.00000000000E+00  0.00000000000E+00  0.23956270395E+03  0.23956270395E+03  0.00000000000E+00 0.  1.
         21   -1    0    0  502  503 -0.00000000000E+00 -0.00000000000E+00 -0.16998104108E+03  0.16998104108E+03  0.00000000000E+00 0.  1.
         -6    2    1    2    0  503 -0.55239650577E+02 -0.40125537376E+02 -0.46602310483E+02  0.19130428677E+03  0.17252268561E+03 0.  0.
        -24    2    3    3    0    0  0.34298567073E+02 -0.35687355685E+02 -0.10872864820E+02  0.94684034423E+02  0.79980423393E+02 0.  0.
          6    2    1    2  501    0  0.55239650577E+02  0.40125537376E+02  0.11618397335E+03  0.21823945826E+03  0.17166323931E+03 0.  0.
         24    2    5    5    0    0  0.87328626305E+02  0.59172188582E+02  0.12851434850E+03  0.17865909144E+03  0.65387279419E+02 0.  0.
          5    1    5    5  501    0 -0.32088975728E+02 -0.19046651205E+02 -0.12330375159E+02  0.39580366812E+02  0.47000000000E+01 0. -1.
        -13    1    6    6    0    0  0.40669761283E+02  0.57813887763E+02  0.47511914000E+02  0.85169578331E+02  0.00000000000E+00 0.  1.
         14    1    6    6    0    0  0.46658865022E+02  0.13583008183E+01  0.81002434505E+02  0.93489513112E+02  0.00000000000E+00 0. -1.
         -5    1    3    3    0  503 -0.89538217650E+02 -0.44381816914E+01 -0.35729445663E+02  0.96620252350E+02  0.47000000000E+01 0.  1.
         11    1    4    4    0    0  0.27390716528E+02 -0.25447381771E+01 -0.40994560644E+02  0.49368826669E+02  0.00000000000E+00 0. -1.
        -12    1    4    4    0    0  0.69078505453E+01 -0.33142617508E+02  0.30121695824E+02  0.45315207754E+02  0.00000000000E+00 0.  1.
</event>
<event>
12    1  0.8135779E-002  0.1786011E+03  0.7818608E-02  0.1169259E+00
         21   -1    0    0  501  502  0.00000000000E+00  0.00000000000E+00  0.81510651170E+02  0.81510651170E+02  0.00000000000E+00 0. -1.
         21   -1    0    0  502  503 -0.00000000000E+00 -0.00000000000E+00 -0.16605567703E+04  0.16605567703E+04  0.00000000000E+00 0. -1.
         -6    2    1    2    0  503  0.13738025664E+02 -0.45047452146E+02 -0.15510869772E+04  0.15612911626E+04  0.17187576097E+03 0.  0.
        -24    2    3    3    0    0 -0.19203907788E+01 -0.89117510459E+02 -0.82275169537E+03  0.83144067871E+03  0.80172510288E+02 0.  0.
          6    2    1    2  501    0 -0.13738025664E+02  0.45047452146E+02 -0.27959141970E+02  0.18077625893E+03  0.17227981855E+03 0.  0.
         24    2    5    5    0    0 -0.53789180108E+02 -0.20774492810E+02 -0.36159589648E+02  0.10314919695E+03  0.77507325200E+02 0.  0.
          5    1    5    5  501    0  0.40051154444E+02  0.65821944956E+02  0.82004476775E+01  0.77627061983E+02  0.47000000000E+01 0. -1.
        -13    1    6    6    0    0 -0.49016494395E+02  0.19390543186E+02 -0.67566626907E+01  0.53143789651E+02  0.00000000000E+00 0.  1.
         14    1    6    6    0    0 -0.47726857133E+01 -0.40165035996E+02 -0.29402926957E+02  0.50005407299E+02  0.00000000000E+00 0. -1.
         -5    1    3    3    0  503  0.15658416443E+02  0.44070058313E+02 -0.72833528183E+03  0.72985048387E+03  0.47000000000E+01 0.  1.
         13    1    4    4    0    0 -0.21468577645E+02 -0.49959757658E+02 -0.20335644743E+03  0.21050112095E+03  0.00000000000E+00 0. -1.
        -14    1    4    4    0    0  0.19548186866E+02 -0.39157752801E+02 -0.61939524794E+03  0.62093955776E+03  0.00000000000E+00 0.  1.
</event>
<event>
12    1  0.8135779E-002  0.1978103E+03  0.7818608E-02  0.1152047E+00
         21   -1    0    0  501  502  0.00000000000E+00  0.00000000000E+00  0.76613437552E+02  0.76613437552E+02  0.00000000000E+00 0.  1.
         21   -1    0    0  502  503 -0.00000000000E+00 -0.00000000000E+00 -0.60532987295E+03  0.60532987295E+03  0.00000000000E+00 0. -1.
         -6    2    1    2    0  503 -0.35319968130E+02  0.87429908741E+02 -0.12697293943E+03  0.23505541961E+03  0.17388914242E+03 0.  0.
        -24    2    3    3    0    0 -0.23608773180E+02 -0.65620758594E+00 -0.43417509870E+01  0.83540356482E+02  0.80014596044E+02 0.  0.
          6    2    1    2  501    0  0.35319968130E+02 -0.87429908741E+02 -0.40174349597E+03  0.44688789089E+03  0.17152102314E+03 0.  0.
         24    2    5    5    0    0 -0.23876967627E+02 -0.52502006280E+02 -0.13122934872E+03  0.16773877405E+03  0.87112479622E+02 0.  0.
          5    1    5    5  501    0  0.59196935757E+02 -0.34927902461E+02 -0.27051414725E+03  0.27914911684E+03  0.47000000000E+01 0. -1.
        -11    1    6    6    0    0  0.10023589500E+02 -0.19379648800E+02  0.59395913206E+01  0.22612427537E+02  0.00000000000E+00 0.  1.
         12    1    6    6    0    0 -0.33900557127E+02 -0.33122357480E+02 -0.13716894004E+03  0.14512634651E+03  0.00000000000E+00 0. -1.
         -5    1    3    3    0  503 -0.11711194950E+02  0.88086116327E+02 -0.12263118844E+03  0.15151506313E+03  0.47000000000E+01 0.  1.
         11    1    4    4    0    0 -0.42075240387E+02 -0.63816919502E+01 -0.29522066149E+02  0.51793862913E+02  0.00000000000E+00 0. -1.
        -12    1    4    4    0    0  0.18466467207E+02  0.57254843643E+01  0.25180315162E+02  0.31746493569E+02  0.00000000000E+00 0.  1.
</event>
<event>
12    1  0.8135779E-002  0.2307403E+03  0.7818608E-02  0.1126557E+00
         21   -1    0    0  501  502  0.00000000000E+00  0.00000000000E+00  0.53958657227E+03  0.53958657227E+03  0.00000000000E+00 0. -1.
         21   -1    0    0  502  503 -0.00000000000E+00 -0.00000000000E+00 -0.13780408450E+03  0.13780408450E+03  0.00000000000E+00 0.  1.
         -6    2    1    2    0  503 -0.64491434309E+01 -0.15041213098E+03  0.18749560967E+02  0.23150077709E+03  0.17485898078E+03 0.  0.
        -24    2    3    3    0    0  0.71083898927E+02 -0.59956853618E+02  0.22139579134E+02  0.11222331868E+03  0.58789176810E+02 0.  0.
          6    2    1    2  501    0  0.64491434309E+01  0.15041213098E+03  0.38303292681E+03  0.44588987968E+03  0.17157552617E+03 0.  0.
         24    2    5    5    0    0  0.26907552372E+02  0.14293669302E+03  0.19278332540E+03  0.25433980918E+03  0.79802339549E+02 0.  0.
          5    1    5    5  501    0 -0.20458408941E+02  0.74754379637E+01  0.19024960141E+03  0.19155007050E+03  0.47000000000E+01 0. -1.
        -11    1    6    6    0    0  0.19322558599E+02  0.64946746034E+02  0.30866566257E+02  0.74459290916E+02  0.00000000000E+00 0.  1.
         12    1    6    6    0    0  0.75849937732E+01  0.77989946986E+02  0.16191675914E+03  0.17988051827E+03  0.00000000000E+00 0. -1.
         -5    1    3    3    0  503 -0.77533042358E+02 -0.90455277366E+02 -0.33900181662E+01  0.11927745841E+03  0.47000000000E+01 0.  1.
         11    1    4    4    0    0  0.38461761673E+02 -0.55078851384E+02 -0.78594949944E+01  0.67636962102E+02  0.00000000000E+00 0. -1.
        -12    1    4    4    0    0  0.32622137254E+02 -0.48780022332E+01  0.29999074128E+02  0.44586356583E+02  0.00000000000E+00 0.  1.
</event>
<event>
12    1  0.8135779E-002  0.2295592E+03  0.7818608E-02  0.1127853E+00
         21   -1    0    0  501  502  0.00000000000E+00  0.00000000000E+00  0.31490096951E+03  0.31490096951E+03  0.00000000000E+00 0.  1.
         21   -1    0    0  502  503 -0.00000000000E+00 -0.00000000000E+00 -0.82700736476E+03  0.82700736476E+03  0.00000000000E+00 0.  1.
         -6    2    1    2    0  503 -0.79280598081E+01 -0.14467184343E+03 -0.76795148177E+03  0.80152784420E+03  0.17805788457E+03 0.  0.
        -24    2    3    3    0    0  0.57347340209E+02 -0.39179441568E+02 -0.33586089484E+03  0.35195705999E+03  0.79041035699E+02 0.  0.
          6    2    1    2  501    0  0.79280598081E+01  0.14467184343E+03  0.25584508652E+03  0.34038049007E+03  0.17149161295E+03 0.  0.
         24    2    5    5    0    0 -0.81294823582E+01  0.11174157360E+03  0.75631210414E+02  0.15642022678E+03  0.78707938625E+02 0.  0.
          5    1    5    5  501    0  0.16057542166E+02  0.32930269834E+02  0.18021387610E+03  0.18396026329E+03  0.47000000000E+01 0. -1.
        -11    1    6    6    0    0 -0.16288617114E+02  0.73969340417E+02  0.87753510946E+02  0.11592006320E+03  0.00000000000E+00 0.  1.
         12    1    6    6    0    0  0.81591347562E+01  0.37772233182E+02 -0.12122300532E+02  0.40500163576E+02  0.00000000000E+00 0. -1.
         -5    1    3    3    0  503 -0.65275400017E+02 -0.10549240187E+03 -0.43209058693E+03  0.44957078421E+03  0.47000000000E+01 0.  1.
         11    1    4    4    0    0  0.36738388982E+02  0.16748857455E+02 -0.84855230943E+02  0.93971504561E+02  0.00000000000E+00 0. -1.
        -12    1    4    4    0    0  0.20608951227E+02 -0.55928299023E+02 -0.25100566389E+03  0.25798555543E+03  0.00000000000E+00 0.  1.
</event>
<event>
12    1  0.8135779E-002  0.1913405E+03  0.7818608E-02  0.1157402E+00
         21   -1    0    0  501  502  0.00000000000E+00  0.00000000000E+00  0.30081635906E+03  0.30081635906E+03  0.00000000000E+00 0. -1.
         21   -1    0    0  502  503 -0.00000000000E+00 -0.00000000000E+00 -0.13719762875E+03  0.13719762875E+03  0.00000000000E+00 0.  1.
         -6    2    1    2    0  503 -0.71218129208E+01 -0.87813786891E+02  0.71302562494E+01  0.19083020586E+03  0.16912523622E+03 0.  0.
        -24    2    3    3    0    0  0.42464471106E+02 -0.34519886639E+00  0.10597956947E+01  0.89991255318E+02  0.79334433875E+02 0.  0.
          6    2    1    2  501    0  0.71218129208E+01  0.87813786891E+02  0.15648847406E+03  0.24718378195E+03  0.16985051709E+03 0.  0.
         24    2    5    5    0    0  0.45373741370E+02  0.38668157057E+02  0.26522527508E+02  0.10299036939E+03  0.79684182530E+02 0.  0.
          5    1    5    5  501    0 -0.38251928450E+02  0.49145629835E+02  0.12996594655E+03  0.14419341256E+03  0.47000000000E+01 0. -1.
        -13    1    6    6    0    0  0.64988471760E-01  0.43971814381E+02 -0.93527139915E+01  0.44955510702E+02  0.00000000000E+00 0.  1.
         14    1    6    6    0    0  0.45308752899E+02 -0.53036573244E+01  0.35875241499E+02  0.58034858687E+02  0.00000000000E+00 0. -1.
         -5    1    3    3    0  503 -0.49586284027E+02 -0.87468588025E+02  0.60704605548E+01  0.10083895054E+03  0.47000000000E+01 0.  1.
         13    1    4    4    0    0 -0.12894340657E+02 -0.22825670385E+02  0.12681795630E+02  0.29122211281E+02  0.00000000000E+00 0. -1.
        -14    1    4    4    0    0  0.55358811763E+02  0.22480471519E+02 -0.11621999935E+02  0.60869044037E+02  0.00000000000E+00 0.  1.
</event>
<event>
12    1  0.8135779E-002  0.1862078E+03  0.7818608E-02  0.1162143E+00
         21   -1    0    0  501  502  0.00000000000E+00  0.00000000000E+00  0.80960518023E+02  0.80960518023E+02  0.00000000000E+00 0. -1.
         21   -1    0    0  502  503 -0.00000000000E+00 -0.00000000000E+00 -0.42678700990E+03  0.42678700990E+03  0.00000000000E+00 0. -1.
         -6    2    1    2    0  503 -0.67509858942E+02 -0.10229411922E+02 -0.18325755615E+03  0.26125976425E+03  0.17323715135E+03 0.  0.
        -24    2    3    3    0    0 -0.36165061359E+02  0.58681160860E+02 -0.80401876350E+02  0.13346092136E+03  0.81215549668E+02 0.  0.
          6    2    1    2  501    0  0.67509858942E+02  0.10229411922E+02 -0.16256893573E+03  0.24648776367E+03  0.17223628204E+03 0.  0.
         24    2    5    5    0    0  0.69863769044E+02  0.71080989049E+02 -0.11521982261E+03  0.16920591687E+03  0.73631389718E+02 0.  0.
          5    1    5    5  501    0 -0.23539101021E+01 -0.60851577127E+02 -0.47349113112E+02  0.77281846796E+02  0.47000000000E+01 0. -1.
        -13    1    6    6    0    0  0.60247359996E+02  0.48259317898E+02 -0.12123198414E+03  0.14372160634E+03  0.00000000000E+00 0.  1.
         14    1    6    6    0    0  0.96164090478E+01  0.22821671152E+02  0.60121615245E+01  0.25484310533E+02  0.00000000000E+00 0. -1.
         -5    1    3    3    0  503 -0.31344797583E+02 -0.68910572782E+02 -0.10285567980E+03  0.12779884289E+03  0.47000000000E+01 0.  1.
         13    1    4    4    0    0 -0.17740427102E+02 -0.13076100007E+02 -0.47569497558E+02  0.52426751216E+02  0.00000000000E+00 0. -1.
        -14    1    4    4    0    0 -0.18424634257E+02  0.71757260867E+02 -0.32832378793E+02  0.81034170149E+02  0.00000000000E+00 0.  1.
</event>
<event>
12    1  0.8135779E-002  0.2175217E+03  0.7818608E-02  0.1135785E+00
         21   -1    0    0  501  502  0.00000000000E+00  0.00000000000E+00  0.40599833154E+03  0.40599833154E+03  0.00000000000E+00 0.  1.
         21   -1    0    0  502  503 -0.00000000000E+00 -0.00000000000E+00 -0.11969734111E+03  0.11969734111E+03  0.00000000000E+00 0.  1.
         -6    2    1    2    0  503  0.69531500899E+02 -0.11231665911E+03  0.18653110874E+03  0.28638472324E+03  0.17254765616E+03 0.  0.
        -24    2    3    3    0    0  0.80827223823E+02 -0.14489556524E+02  0.12164637477E+03  0.16835992051E+03  0.82487786851E+02 0.  0.
          6    2    1    2  501    0 -0.69531500899E+02  0.11231665911E+03  0.99769881680E+02  0.23931094941E+03  0.17281793797E+03 0.  0.
         24    2    5    5    0    0  0.26644836627E+02  0.43675152478E+02  0.24740068684E+02  0.99264145906E+02  0.81386936305E+02 0.  0.
          5    1    5    5  501    0 -0.96176337526E+02  0.68641506633E+02  0.75029812995E+02  0.14004680350E+03  0.47000000000E+01 0. -1.
        -11    1    6    6    0    0 -0.25477811807E+02  0.33227693981E+02  0.34955168798E+01  0.42016867803E+02  0.00000000000E+00 0.  1.
         12    1    6    6    0    0  0.52122648434E+02  0.10447458497E+02  0.21244551804E+02  0.57247278103E+02  0.00000000000E+00 0. -1.
         -5    1    3    3    0  503 -0.11295722923E+02 -0.97827102587E+02  0.64884733969E+02  0.11802480273E+03  0.47000000000E+01 0.  1.
         11    1    4    4    0    0  0.75266591591E+02 -0.59383365396E+01  0.38797750067E+02  0.84885741210E+02  0.00000000000E+00 0. -1.
        -12    1    4    4    0    0  0.55606322320E+01 -0.85512199840E+01  0.82848624707E+02  0.83474179301E+02  0.00000000000E+00 0.  1.
</event>
<event>
12    1  0.8135779E-002  0.2605162E+03  0.7818608E-02  0.1107090E+00
         21   -1    0    0  503  502  0.00000000000E+00  0.00000000000E+00  0.47824327262E+03  0.47824327262E+03  0.00000000000E+00 0. -1.
         21   -1    0    0  501  503 -0.00000000000E+00 -0.00000000000E+00 -0.18279363720E+03  0.18279363720E+03  0.00000000000E+00 0.  1.
          6    2    1    2  501    0 -0.32639443085E+01 -0.19495558832E+03 -0.99705733814E+01  0.26070696623E+03  0.17277261114E+03 0.  0.
         24    2    3    3    0    0  0.44926110316E+02 -0.77035020688E+02  0.34659491039E+02  0.12564596414E+03  0.81442483912E+02 0.  0.
         -6    2    1    2    0  502  0.32639443085E+01  0.19495558832E+03  0.30542020881E+03  0.40032994359E+03  0.17018879232E+03 0.  0.
        -24    2    5    5    0    0 -0.57453361129E+02  0.15938789690E+03  0.23526448391E+03  0.30085347607E+03  0.80361970443E+02 0.  0.
          5    1    3    3  501    0 -0.48190054625E+02 -0.11792056763E+03 -0.44630064420E+02  0.13506100209E+03  0.47000000000E+01 0. -1.
        -11    1    4    4    0    0  0.49061219685E+02 -0.90643954663E+02  0.39850261609E+02  0.11050508198E+03  0.00000000000E+00 0.  1.
         12    1    4    4    0    0 -0.41351093688E+01  0.13608933975E+02 -0.51907705703E+01  0.15140882159E+02  0.00000000000E+00 0. -1.
         -5    1    5    5    0  502  0.60717305437E+02  0.35567691426E+02  0.70155724895E+02  0.99476467511E+02  0.47000000000E+01 0.  1.
         13    1    6    6    0    0 -0.29674811194E+02  0.47412452709E+02  0.14160846081E+03  0.15225469209E+03  0.00000000000E+00 0. -1.
        -14    1    6    6    0    0 -0.27778549935E+02  0.11197544419E+03  0.93656023100E+02  0.14859878398E+03  0.00000000000E+00 0.  1.
</event>
<event>
12    1  0.8135779E-002  0.1943585E+03  0.7818608E-02  0.1154632E+00
         21   -1    0    0  501  502  0.00000000000E+00  0.00000000000E+00  0.23921425082E+03  0.23921425082E+03  0.00000000000E+00 0. -1.
         21   -1    0    0  502  503 -0.00000000000E+00 -0.00000000000E+00 -0.17285513206E+03  0.17285513206E+03  0.00000000000E+00 0.  1.
         -6    2    1    2    0  503 -0.13526706783E+02  0.88942013183E+02 -0.27738256221E+02  0.19613059165E+03  0.17205854997E+03 0.  0.
        -24    2    3    3    0    0 -0.66561082963E+02  0.93190419302E+02 -0.35017095138E+02  0.14222543877E+03  0.76727090820E+02 0.  0.
          6    2    1    2  501    0  0.13526706783E+02 -0.88942013183E+02  0.94097374978E+02  0.21593879122E+03  0.17228346430E+03 0.  0.
         24    2    5    5    0    0  0.42964062420E+02 -0.41476084643E+02 -0.85637753926E+01  0.98973095080E+02  0.78461194509E+02 0.  0.
          5    1    5    5  501    0 -0.29437355637E+02 -0.47465928539E+02  0.10266115037E+03  0.11696569614E+03  0.47000000000E+01 0. -1.
        -11    1    6    6    0    0  0.16399763651E+02 -0.60242642459E+02 -0.18230990522E+02  0.65042272666E+02  0.00000000000E+00 0.  1.
         12    1    6    6    0    0  0.26564298769E+02  0.18766557815E+02  0.96672151294E+01  0.33930822414E+02  0.00000000000E+00 0. -1.
         -5    1    3    3    0  503  0.53034376181E+02 -0.42484061189E+01  0.72788389170E+01  0.53905152883E+02  0.47000000000E+01 0.  1.
         13    1    4    4    0    0 -0.60126752744E+02  0.90836356316E+02 -0.24661398977E+01  0.10896124022E+03  0.00000000000E+00 0. -1.
        -14    1    4    4    0    0 -0.64343302196E+01  0.23540629855E+01 -0.32550955240E+02  0.33264198547E+02  0.00000000000E+00 0.  1.
</event>
<event>
12    1  0.8135779E-002  0.2848222E+03  0.7818608E-02  0.1093299E+00
         21   -1    0    0  503  502  0.00000000000E+00  0.00000000000E+00  0.65664477360E+03  0.65664477360E+03  0.00000000000E+00 0.  1.
         21   -1    0    0  501  503 -0.00000000000E+00 -0.00000000000E+00 -0.24411577409E+03  0.24411577409E+03  0.00000000000E+00 0. -1.
          6    2    1    2  501    0 -0.21482079384E+03  0.69963320942E+02 -0.11146458135E+03  0.30436053086E+03  0.17078682652E+03 0.  0.
         24    2    3    3    0    0 -0.32428882364E+02  0.15353768383E+01 -0.56380320329E+02  0.10186223774E+03  0.78378473857E+02 0.  0.
         -6    2    1    2    0  502  0.21482079384E+03 -0.69963320942E+02  0.52399358085E+03  0.59640001682E+03  0.17343836813E+03 0.  0.
        -24    2    5    5    0    0  0.16027803709E+03 -0.41721499635E+02  0.22159893657E+03  0.28779489101E+03  0.79310011326E+02 0.  0.
          5    1    3    3  501    0 -0.18239191147E+03  0.68427944103E+02 -0.55084261016E+02  0.20249829312E+03  0.47000000000E+01 0. -1.
        -13    1    4    4    0    0 -0.32797463692E+00 -0.28541655841E+02  0.21725260419E+01  0.28626099192E+02  0.00000000000E+00 0.  1.
         14    1    4    4    0    0 -0.32100907727E+02  0.30077032680E+02 -0.58552846371E+02  0.73236138551E+02  0.00000000000E+00 0. -1.
         -5    1    5    5    0  502  0.54542756749E+02 -0.28241821306E+02  0.30239464428E+03  0.30860512581E+03  0.47000000000E+01 0.  1.
         11    1    6    6    0    0 -0.87646692287E+01  0.16216989571E+01  0.13930675985E+02  0.16538230485E+02  0.00000000000E+00 0. -1.
        -12    1    6    6    0    0  0.16904270632E+03 -0.43343198592E+02  0.20766826059E+03  0.27125666053E+03  0.00000000000E+00 0.  1.
</event>
<event>
12    1  0.8135779E-002  0.1878845E+03  0.7818608E-02  0.1160476E+00
         21   -1    0    0  501  502  0.00000000000E+00  0.00000000000E+00  0.10148540749E+04  0.10148540749E+04  0.00000000000E+00 0. -1.
         21   -1    0    0  502  503 -0.00000000000E+00 -0.00000000000E+00 -0.76762643644E+02  0.76762643644E+02  0.00000000000E+00 0. -1.
         -6    2    1    2    0  503 -0.33517276146E+02 -0.66567648849E+02  0.65288597313E+02  0.19890496139E+03  0.17247006422E+03 0.  0.
        -24    2    3    3    0    0 -0.23299406489E+02  0.19631995745E+02 -0.87520607180E+01  0.84716990787E+02  0.78562665189E+02 0.  0.
          6    2    1    2  501    0  0.33517276146E+02  0.66567648849E+02  0.87280283391E+03  0.89271175713E+03  0.17203149349E+03 0.  0.
         24    2    5    5    0    0  0.63123067669E+02 -0.13271232261E+02  0.44594731744E+03  0.45742050776E+03  0.78764609521E+02 0.  0.
          5    1    5    5  501    0 -0.29605791523E+02  0.79838881109E+02  0.42685551647E+03  0.43529124936E+03  0.47000000000E+01 0. -1.
        -11    1    6    6    0    0  0.56740734179E+02 -0.41094558165E+02  0.36299247526E+03  0.36969150751E+03  0.00000000000E+00 0.  1.
         12    1    6    6    0    0  0.63823334903E+01  0.27823325905E+02  0.82954842174E+02  0.87729000253E+02  0.00000000000E+00 0. -1.
         -5    1    3    3    0  503 -0.10217869657E+02 -0.86199644593E+02  0.74040658031E+02  0.11418797060E+03  0.47000000000E+01 0.  1.
         13    1    4    4    0    0  0.24190456213E+02 -0.11823009515E+02  0.91277961389E+00  0.26940580774E+02  0.00000000000E+00 0. -1.
        -14    1    4    4    0    0 -0.47489862703E+02  0.31455005260E+02 -0.96648403319E+01  0.57776410014E+02  0.00000000000E+00 0.  1.
</event>
<event>
12    1  0.8135779E-002  0.1989463E+03  0.7818608E-02  0.1152008E+00
         21   -1    0    0  503  502  0.00000000000E+00  0.00000000000E+00  0.75645076123E+03  0.75645076123E+03  0.00000000000E+00 0.  1.
         21   -1    0    0  501  503 -0.00000000000E+00 -0.00000000000E+00 -0.81388119145E+02  0.81388119145E+02  0.00000000000E+00 0. -1.
          6    2    1    2  501    0  0.62490966535E+02  0.79792427306E+02  0.76732862780E+02  0.20730088975E+03  0.16374912002E+03 0.  0.
         24    2    3    3    0    0 -0.20072481676E+02  0.42383515192E+02  0.73930090309E+01  0.93080685738E+02  0.80063041375E+02 0.  0.
         -6    2    1    2    0  502 -0.62490966535E+02 -0.79792427306E+02  0.59832977930E+03  0.63053799063E+03  0.17119486110E+03 0.  0.
        -24    2    5    5    0    0 -0.57175084934E+02  0.22962119075E+02  0.16453600522E+03  0.18468388463E+03  0.56919161788E+02 0.  0.
          5    1    3    3  501    0  0.82563448212E+02  0.37408912114E+02  0.69339853749E+02  0.11422020401E+03  0.47000000000E+01 0. -1.
        -13    1    4    4    0    0 -0.10946366529E+02 -0.13993245982E+02  0.27324129042E+02  0.32592052731E+02  0.00000000000E+00 0.  1.
         14    1    4    4    0    0 -0.91261151477E+01  0.56376761175E+02 -0.19931120011E+02  0.60488633008E+02  0.00000000000E+00 0. -1.
         -5    1    5    5    0  502 -0.53158816011E+01 -0.10275454638E+03  0.43379377408E+03  0.44585410599E+03  0.47000000000E+01 0.  1.
         13    1    6    6    0    0 -0.11710016545E+02  0.30059681329E+02  0.10241879399E+03  0.10737931967E+03  0.00000000000E+00 0. -1.
        -14    1    6    6    0    0 -0.45465068390E+02 -0.70975622539E+01  0.62117211230E+02  0.77304564966E+02  0.00000000000E+00 0.  1.
</event>
<event>
12    1  0.8135779E-002  0.2145933E+03  0.7818608E-02  0.1138252E+00
         21   -1    0    0  503  502  0.00000000000E+00  0.00000000000E+00  0.22572147518E+03  0.22572147518E+03  0.00000000000E+00 0.  1.
         21   -1    0    0  501  503 -0.00000000000E+00 -0.00000000000E+00 -0.31576476926E+03  0.31576476926E+03  0.00000000000E+00 0. -1.
          6    2    1    2  501    0  0.91176856654E+02 -0.90093415443E+02 -0.20695181450E+03  0.29711381243E+03  0.17034530025E+03 0.  0.
         24    2    3    3    0    0  0.93558348827E+02 -0.60763914887E+01 -0.15441676430E+03  0.19788401187E+03  0.80767926116E+02 0.  0.
         -6    2    1    2    0  502 -0.91176856654E+02  0.90093415443E+02  0.11690852042E+03  0.24437243201E+03  0.17210531858E+03 0.  0.
        -24    2    5    5    0    0 -0.96017903900E+02  0.98820441438E+00  0.68518315582E+02  0.14275119262E+03  0.80391100293E+02 0.  0.
          5    1    3    3  501    0 -0.23814921731E+01 -0.84017023954E+02 -0.52535050203E+02  0.99229800558E+02  0.47000000000E+01 0. -1.
        -13    1    4    4    0    0 -0.26925602397E+01 -0.15488730966E+02 -0.45459516607E-01  0.15721092015E+02  0.00000000000E+00 0.  1.
         14    1    4    4    0    0  0.96250909067E+02  0.94123394769E+01 -0.15437130478E+03  0.18216291986E+03  0.00000000000E+00 0. -1.
         -5    1    5    5    0  502  0.48410472459E+01  0.89105211028E+02  0.48390204842E+02  0.10162123939E+03  0.47000000000E+01 0.  1.
         11    1    6    6    0    0 -0.60057610242E+02  0.70719219420E+01 -0.50047612214E+01  0.60679290230E+02  0.00000000000E+00 0. -1.
        -12    1    6    6    0    0 -0.35960293658E+02 -0.60837175276E+01  0.73523076803E+02  0.82071902388E+02  0.00000000000E+00 0.  1.
</event>
<event>
12    1  0.8135779E-002  0.1897126E+03  0.7818608E-02  0.1158813E+00
         21   -1    0    0  503  502  0.00000000000E+00  0.00000000000E+00  0.40124579686E+03  0.40124579686E+03  0.00000000000E+00 0. -1.
         21   -1    0    0  501  503 -0.00000000000E+00 -0.00000000000E+00 -0.89777370499E+02  0.89777370499E+02  0.00000000000E+00 0.  1.
          6    2    1    2  501    0 -0.67679533094E+02  0.37140515416E+02  0.16943718813E+03  0.25436160061E+03  0.17329433361E+03 0.  0.
         24    2    3    3    0    0 -0.57651630404E+02  0.80627149153E+02  0.70007986852E+02  0.14527492768E+03  0.79870136594E+02 0.  0.
         -6    2    1    2    0  502  0.67679533094E+02 -0.37140515416E+02  0.14203123823E+03  0.23666156675E+03  0.17284642737E+03 0.  0.
        -24    2    5    5    0    0 -0.20314875127E+02 -0.54052226107E+02  0.82084892621E+02  0.12875106592E+03  0.80650914936E+02 0.  0.
          5    1    3    3  501    0 -0.10027902690E+02 -0.43486633736E+02  0.99429201277E+02  0.10908667294E+03  0.47000000000E+01 0. -1.
        -11    1    4    4    0    0 -0.47961246250E+02  0.74936523338E+02  0.16359546736E+02  0.90462138164E+02  0.00000000000E+00 0.  1.
         12    1    4    4    0    0 -0.96903841538E+01  0.56906258150E+01  0.53648440116E+02  0.54812789512E+02  0.00000000000E+00 0. -1.
         -5    1    5    5    0  502  0.87994408221E+02  0.16911710690E+02  0.59946345612E+02  0.10791050083E+03  0.47000000000E+01 0.  1.
         11    1    6    6    0    0 -0.11263731141E+02 -0.27708469423E+02  0.93858993476E+02  0.98509601427E+02  0.00000000000E+00 0. -1.
        -12    1    6    6    0    0 -0.90511439857E+01 -0.26343756684E+02 -0.11774100855E+02  0.30241464492E+02  0.00000000000E+00 0.  1.
</event>
<event>
12    1  0.8135779E-002  0.1914501E+03  0.7818608E-02  0.1157232E+00
         21   -1    0    0  503  502  0.00000000000E+00  0.00000000000E+00  0.43242521179E+03  0.43242521179E+03  0.00000000000E+00 0. -1.
         21   -1    0    0  501  503 -0.00000000000E+00 -0.00000000000E+00 -0.99633724981E+02  0.99633724981E+02  0.00000000000E+00 0. -1.
          6    2    1    2  501    0 -0.80057019042E+02  0.24707296148E+02  0.63002578871E+02  0.20124298903E+03  0.17178428016E+03 0.  0.
         24    2    3    3    0    0  0.71123626266E+01  0.10690032516E+02  0.77344203695E+02  0.11167314487E+03  0.79522971168E+02 0.  0.
         -6    2    1    2    0  502  0.80057019042E+02 -0.24707296148E+02  0.26978890794E+03  0.33081594774E+03  0.17214400847E+03 0.  0.
        -24    2    5    5    0    0  0.83284250000E+02  0.81332212934E+01  0.27330970731E+03  0.29729877850E+03  0.81767670896E+02 0.  0.
          5    1    3    3  501    0 -0.87169381668E+02  0.14017263632E+02 -0.14341624824E+02  0.89569844159E+02  0.47000000000E+01 0. -1.
        -13    1    4    4    0    0  0.28948187855E+01  0.35086462588E+02  0.79374496228E+02  0.86831736619E+02  0.00000000000E+00 0.  1.
         14    1    4    4    0    0  0.42175438411E+01 -0.24396430072E+02 -0.20302925330E+01  0.24841408255E+02  0.00000000000E+00 0. -1.
         -5    1    5    5    0  502 -0.32272309581E+01 -0.32840517441E+02 -0.35207993689E+01  0.33517169237E+02  0.47000000000E+01 0.  1.
         11    1    6    6    0    0  0.67080548463E+02 -0.29933581289E+02  0.14603647486E+03  0.16347009286E+03  0.00000000000E+00 0. -1.
        -12    1    6    6    0    0  0.16203701536E+02  0.38066802583E+02  0.12727323245E+03  0.13382868564E+03  0.00000000000E+00 0.  1.
</event>
<event>
12    1  0.8135779E-002  0.1721823E+03  0.7818608E-02  0.1175633E+00
         21   -1    0    0  503  502  0.00000000000E+00  0.00000000000E+00  0.53384224213E+02  0.53384224213E+02  0.00000000000E+00 0. -1.
         21   -1    0    0  501  503 -0.00000000000E+00 -0.00000000000E+00 -0.87761718075E+03  0.87761718075E+03  0.00000000000E+00 0. -1.
          6    2    1    2  501    0 -0.11342042232E+02  0.37965272857E+01 -0.69430611682E+03  0.71529852791E+03  0.17160403441E+03 0.  0.
         24    2    3    3    0    0 -0.92310320662E+01 -0.48584617188E+02 -0.22426762155E+03  0.24232229415E+03  0.77320444814E+02 0.  0.
         -6    2    1    2    0  502  0.11342042232E+02 -0.37965272857E+01 -0.12992683972E+03  0.21570287706E+03  0.17176638772E+03 0.  0.
        -24    2    5    5    0    0  0.86594438243E+01  0.41257104367E+01 -0.16309639268E+03  0.18117365134E+03  0.78303583443E+02 0.  0.
          5    1    3    3  501    0 -0.21110101654E+01  0.52381144474E+02 -0.47003849527E+03  0.47297623375E+03  0.47000000000E+01 0. -1.
        -13    1    4    4    0    0 -0.30464855655E+02 -0.55888656836E+00 -0.37527473577E+02  0.48339746144E+02  0.00000000000E+00 0.  1.
         14    1    4    4    0    0  0.21233823588E+02 -0.48025730620E+02 -0.18674014798E+03  0.19398254801E+03  0.00000000000E+00 0. -1.
         -5    1    5    5    0  502  0.26825984072E+01 -0.79222377224E+01  0.33169552966E+02  0.34529225718E+02  0.47000000000E+01 0.  1.
         11    1    6    6    0    0  0.14144839896E+02 -0.26961125112E+02 -0.24649795377E+02  0.39173858313E+02  0.00000000000E+00 0. -1.
        -12    1    6    6    0    0 -0.54853960718E+01  0.31086835548E+02 -0.13844659730E+03  0.14199979303E+03  0.00000000000E+00 0.  1.
</event>
<event>
12    1  0.8135779E-002  0.1770269E+03  0.7818608E-02  0.1171260E+00
         21   -1    0    0  501  502  0.00000000000E+00  0.00000000000E+00  0.15189852193E+03  0.15189852193E+03  0.00000000000E+00 0. -1.
         21   -1    0    0  502  503 -0.00000000000E+00 -0.00000000000E+00 -0.20675695677E+03  0.20675695677E+03  0.00000000000E+00 0. -1.
         -6    2    1    2    0  503  0.31486031538E+02 -0.43367051561E+01 -0.59892219734E+01  0.17712816057E+03  0.17415032958E+03 0.  0.
        -24    2    3    3    0    0  0.28570382670E+02 -0.46223041397E+02  0.48151281704E+02  0.10845319926E+03  0.80564968679E+02 0.  0.
          6    2    1    2  501    0 -0.31486031538E+02  0.43367051561E+01 -0.48869212867E+02  0.18152731814E+03  0.17191215801E+03 0.  0.
         24    2    5    5    0    0  0.87420720893E+01 -0.54239964068E+02 -0.47463697205E+02  0.11029816699E+03  0.83033038982E+02 0.  0.
          5    1    5    5  501    0 -0.40228103628E+02  0.58576669224E+02 -0.14055156615E+01  0.71229151147E+02  0.47000000000E+01 0. -1.
        -11    1    6    6    0    0  0.32925933226E+02  0.35929129048E+01 -0.26220822253E+01  0.33225011921E+02  0.00000000000E+00 0.  1.
         12    1    6    6    0    0 -0.24183861137E+02 -0.57832876973E+02 -0.44841614980E+02  0.77073155070E+02  0.00000000000E+00 0. -1.
         -5    1    3    3    0  503  0.29156488677E+01  0.41886336241E+02 -0.54140503678E+02  0.68674961307E+02  0.47000000000E+01 0.  1.
         13    1    4    4    0    0 -0.11699109247E+02  0.42502531985E+01  0.41751674782E+02  0.43567604439E+02  0.00000000000E+00 0. -1.
        -14    1    4    4    0    0  0.40269491918E+02 -0.50473294596E+02  0.63996069224E+01  0.64885594822E+02  0.00000000000E+00 0.  1.
</event>
<event>
12    1  0.8135779E-002  0.1748527E+03  0.7818608E-02  0.1173143E+00
         21   -1    0    0  501  502  0.00000000000E+00  0.00000000000E+00  0.30313206012E+03  0.30313206012E+03  0.00000000000E+00 0. -1.
         21   -1    0    0  502  503 -0.00000000000E+00 -0.00000000000E+00 -0.18684999770E+03  0.18684999770E+03  0.00000000000E+00 0. -1.
         -6    2    1    2    0  503 -0.31339179137E+02 -0.12842151148E+02 -0.10854524960E+03  0.20580464617E+03  0.17154129584E+03 0.  0.
        -24    2    3    3    0    0  0.34761539733E+02  0.30025832819E+02 -0.74742487295E+02  0.11994612403E+03  0.81796809116E+02 0.  0.
          6    2    1    2  501    0  0.31339179137E+02  0.12842151148E+02  0.22482731202E+03  0.28417741165E+03  0.17047702503E+03 0.  0.
         24    2    5    5    0    0  0.80663333347E+02  0.92586179538E+01  0.19739141103E+03  0.22742767542E+03  0.78534597752E+02 0.  0.
          5    1    5    5  501    0 -0.49324154210E+02  0.35835331943E+01  0.27435900990E+02  0.56749736227E+02  0.47000000000E+01 0. -1.
        -11    1    6    6    0    0  0.54705621602E+02 -0.32306514336E+02  0.12108666418E+03  0.13674207892E+03  0.00000000000E+00 0.  1.
         12    1    6    6    0    0  0.25957711744E+02  0.41565132289E+02  0.76304746848E+02  0.90685596501E+02  0.00000000000E+00 0. -1.
         -5    1    3    3    0  503 -0.66100718870E+02 -0.42867983967E+02 -0.33802762308E+02  0.85858522140E+02  0.47000000000E+01 0.  1.
         11    1    4    4    0    0  0.28860660519E+02 -0.63069789455E+01 -0.77593592028E+02  0.83026990990E+02  0.00000000000E+00 0. -1.
        -12    1    4    4    0    0  0.59008792141E+01  0.36332811764E+02  0.28511047332E+01  0.36919133039E+02  0.00000000000E+00 0.  1.
</event>
<event>
12    1  0.8135779E-002  0.1948056E+03  0.7818608E-02  0.1154288E+00
         21   -1    0    0  501  502  0.00000000000E+00  0.00000000000E+00  0.32174799918E+04  0.32174799918E+04  0.00000000000E+00 0.  1.
         21   -1    0    0  502  503 -0.00000000000E+00 -0.00000000000E+00 -0.23514926225E+03  0.23514926225E+03  0.00000000000E+00 0. -1.
         -6    2    1    2    0  503 -0.83784359474E+02 -0.35626447746E+02 -0.19147225896E+03  0.27285337695E+03  0.17175062355E+03 0.  0.
        -24    2    3    3    0    0 -0.30440044948E+02 -0.56411336314E+02 -0.44496919386E+02  0.11505138733E+03  0.84545908776E+02 0.  0.
          6    2    1    2  501    0  0.83784359474E+02  0.35626447746E+02  0.31738029885E+04  0.31797758771E+04  0.17222124181E+03 0.  0.
         24    2    5    5    0    0  0.37424402851E+02 -0.42372504182E+02  0.19129872878E+04  0.19156906730E+04  0.84583546459E+02 0.  0.
          5    1    5    5  501    0  0.46359956624E+02  0.77998951928E+02  0.12608157007E+04  0.12640852041E+04  0.47000000000E+01 0. -1.
        -13    1    6    6    0    0 -0.13508544272E+02 -0.51258792178E+01  0.63322877654E+02  0.64950305931E+02  0.00000000000E+00 0.  1.
         14    1    6    6    0    0  0.50932947123E+02 -0.37246624964E+02  0.18496644101E+04  0.18507403671E+04  0.00000000000E+00 0. -1.
         -5    1    3    3    0  503 -0.53344314526E+02  0.20784888568E+02 -0.14697533957E+03  0.15780198962E+03  0.47000000000E+01 0.  1.
         13    1    4    4    0    0  0.64991072234E+01  0.16385324641E+02 -0.25896856180E+02  0.31326736477E+02  0.00000000000E+00 0. -1.
        -14    1    4    4    0    0 -0.36939152172E+02 -0.72796660955E+02 -0.18600063206E+02  0.83724650854E+02  0.00000000000E+00 0.  1.
</event>
<event>
12    1  0.8135779E-002  0.1927953E+03  0.7818608E-02  0.1157795E+00
         21   -1    0    0  503  502  0.00000000000E+00  0.00000000000E+00  0.81410886818E+02  0.81410886818E+02  0.00000000000E+00 0.  1.
         21   -1    0    0  501  503 -0.00000000000E+00 -0.00000000000E+00 -0.76990786503E+03  0.76990786503E+03  0.00000000000E+00 0.  1.
          6    2    1    2  501    0 -0.50799124697E+02 -0.49087504654E+02 -0.61965977856E+03  0.64660286667E+03  0.17066602429E+03 0.  0.
         24    2    3    3    0    0 -0.81963730471E+02 -0.70242163167E+02 -0.36172124261E+03  0.38588629536E+03  0.80087208679E+02 0.  0.
         -6    2    1    2    0  502  0.50799124697E+02  0.49087504654E+02 -0.68837199650E+02  0.20471588517E+03  0.17938756758E+03 0.  0.
        -24    2    5    5    0    0  0.46383052288E+02 -0.31335692896E+01  0.26291241131E+02  0.96005018626E+02  0.79777988476E+02 0.  0.
          5    1    3    3  501    0  0.31164605773E+02  0.21154658513E+02 -0.25793853595E+03  0.26071657131E+03  0.47000000000E+01 0. -1.
        -11    1    4    4    0    0 -0.23853490712E+02 -0.71449143558E+02 -0.22668727602E+03  0.23887463290E+03  0.00000000000E+00 0.  1.
         12    1    4    4    0    0 -0.58110239759E+02  0.12069803914E+01 -0.13503396659E+03  0.14701166246E+03  0.00000000000E+00 0. -1.
         -5    1    5    5    0  502  0.44160724088E+01  0.52221073944E+02 -0.95128440780E+02  0.10871086654E+03  0.47000000000E+01 0.  1.
         11    1    6    6    0    0 -0.21945812055E+02  0.63701449672E+01  0.10919654888E+02  0.25326592280E+02  0.00000000000E+00 0. -1.
        -12    1    6    6    0    0  0.68328864343E+02 -0.95037142568E+01  0.15371586243E+02  0.70678426346E+02  0.00000000000E+00 0.  1.
</event>
<event>
12    1  0.8135779E-002  0.1895025E+03  0.7818608E-02  0.1159238E+00
         21   -1    0    0  501  502  0.00000000000E+00  0.00000000000E+00  0.23715654076E+03  0.23715654076E+03  0.00000000000E+00 0.  1.
         21   -1    0    0  502  503 -0.00000000000E+00 -0.00000000000E+00 -0.51944582131E+03  0.51944582131E+03  0.00000000000E+00 0. -1.
         -6    2    1    2    0  503 -0.36813650709E+01 -0.71756443537E+02 -0.46021946635E+03  0.49770788715E+03  0.17535291296E+03 0.  0.
        -24    2    3    3    0    0 -0.35888965772E+02  0.21675196291E+02 -0.21623368097E+03  0.23442485630E+03  0.80250710072E+02 0.  0.
          6    2    1    2  501    0  0.36813650709E+01  0.71756443537E+02  0.17793018580E+03  0.25889447492E+03  0.17379487474E+03 0.  0.
         24    2    5    5    0    0  0.43654410575E+02 -0.15665702243E+02  0.86979940877E+02  0.12647652677E+03  0.79244431478E+02 0.  0.
          5    1    5    5  501    0 -0.39973045504E+02  0.87422145781E+02  0.90950244927E+02  0.13241794815E+03  0.47000000000E+01 0. -1.
        -13    1    6    6    0    0 -0.32694361846E+01 -0.39179124002E+02  0.35993945019E+02  0.53303443121E+02  0.00000000000E+00 0.  1.
         14    1    6    6    0    0  0.46923846759E+02  0.23513421759E+02  0.50985995857E+02  0.73173083652E+02  0.00000000000E+00 0. -1.
         -5    1    3    3    0  503  0.32207600701E+02 -0.93431639828E+02 -0.24398578538E+03  0.26328303085E+03  0.47000000000E+01 0.  1.
         13    1    4    4    0    0 -0.18632086267E+02 -0.30346770437E+02 -0.91195476212E+02  0.97901460644E+02  0.00000000000E+00 0. -1.
        -14    1    4    4    0    0 -0.17256879505E+02  0.52021966728E+02 -0.12503820476E+03  0.13652339566E+03  0.00000000000E+00 0.  1.
</event>
<event>
12    1  0.8135779E-002  0.2384980E+03  0.7818608E-02  0.1120807E+00
         21   -1    0    0  501  502  0.00000000000E+00  0.00000000000E+00  0.61562728215E+02  0.61562728215E+02  0.00000000000E+00 0.  1.
         21   -1    0    0  502  503 -0.00000000000E+00 -0.00000000000E+00 -0.12027046659E+04  0.12027046659E+04  0.00000000000E+00 0. -1.
         -6    2    1    2    0  503 -0.37144841425E+02  0.16056435410E+03 -0.26607968978E+03  0.35728601956E+03  0.17232018863E+03 0.  0.
        -24    2    3    3    0    0 -0.62112111348E+02  0.16556351806E+03 -0.16968686616E+03  0.25747608693E+03  0.78937379655E+02 0.  0.
          6    2    1    2  501    0  0.37144841425E+02 -0.16056435410E+03 -0.87506224793E+03  0.90698137457E+03  0.17239670825E+03 0.  0.
         24    2    5    5    0    0  0.21687947376E+02 -0.16296922258E+03 -0.51533747995E+03  0.54688597379E+03  0.80512207259E+02 0.  0.
          5    1    5    5  501    0  0.15456894049E+02  0.24048684776E+01 -0.35972476798E+03  0.36009540078E+03  0.47000000000E+01 0. -1.
        -13    1    6    6    0    0  0.23136779546E+02 -0.14801030775E+03 -0.50897849562E+03  0.53056712183E+03  0.00000000000E+00 0.  1.
         14    1    6    6    0    0 -0.14488321704E+01 -0.14958914831E+02 -0.63589843366E+01  0.16318851963E+02  0.00000000000E+00 0. -1.
         -5    1    3    3    0  503  0.24967269923E+02 -0.49991639538E+01 -0.96392823612E+02  0.99809932630E+02  0.47000000000E+01 0.  1.
         11    1    4    4    0    0 -0.57842257040E+02  0.12839532221E+03 -0.16909998419E+03  0.22005883331E+03  0.00000000000E+00 0. -1.
        -12    1    4    4    0    0 -0.42698543075E+01  0.37168195845E+02 -0.58688197421E+00  0.37417253623E+02  0.00000000000E+00 0.  1.
</event>
<event>
12    1  0.8135779E-002  0.2285348E+03  0.7818608E-02  0.1129049E+00
         21   -1    0    0  501  502  0.00000000000E+00  0.00000000000E+00  0.30763305048E+03  0.30763305048E+03  0.00000000000E+00 0. -1.
         21   -1    0    0  502  503 -0.00000000000E+00 -0.00000000000E+00 -0.42067921453E+03  0.42067921453E+03  0.00000000000E+00 0. -1.
         -6    2    1    2    0  503  0.18086628927E+02 -0.14771613007E+03 -0.34048884434E+03  0.40588658285E+03  0.16329140758E+03 0.  0.
        -24    2    3    3    0    0  0.64661881591E+02 -0.70174371596E+02 -0.14938680945E+03  0.19440595440E+03  0.79822646611E+02 0.  0.
          6    2    1    2  501    0 -0.18086628927E+02  0.14771613007E+03  0.22744268028E+03  0.32242568216E+03  0.17343865334E+03 0.  0.
         24    2    5    5    0    0 -0.26768038990E+02  0.14860025926E+03  0.10584799269E+03  0.20042770424E+03  0.78542358675E+02 0.  0.
          5    1    5    5  501    0  0.86814100628E+01 -0.88412919203E+00  0.12159468760E+03  0.12199797792E+03  0.47000000000E+01 0. -1.
        -11    1    6    6    0    0  0.13147767773E+02 -0.14281765862E+01  0.17053464592E+02  0.21580642724E+02  0.00000000000E+00 0.  1.
         12    1    6    6    0    0 -0.39915806763E+02  0.15002843585E+03  0.88794528093E+02  0.17884706151E+03  0.00000000000E+00 0. -1.
         -5    1    3    3    0  503 -0.46575252664E+02 -0.77541758475E+02 -0.19110203489E+03  0.21148062845E+03  0.47000000000E+01 0.  1.
         13    1    4    4    0    0  0.15242503183E+02 -0.61010436975E+02 -0.12178783027E+03  0.13706525061E+03  0.00000000000E+00 0. -1.
        -14    1    4    4    0    0  0.49419378408E+02 -0.91639346205E+01 -0.27598979174E+02  0.57340703792E+02  0.00000000000E+00 0.  1.
</event>
<event>
12    1  0.8135779E-002  0.1955359E+03  0.7818608E-02  0.1157102E+00
         21   -1    0    0  503  502  0.00000000000E+00  0.00000000000E+00  0.58035257852E+03  0.58035257852E+03  0.00000000000E+00 0. -1.
         21   -1    0    0  501  503 -0.00000000000E+00 -0.00000000000E+00 -0.67582154748E+02  0.67582154748E+02  0.00000000000E+00 0.  1.
          6    2    1    2  501    0  0.73397465228E+01  0.87632294844E+02  0.16289380537E+03  0.25449692430E+03  0.17464535971E+03 0.  0.
         24    2    3    3    0    0  0.65986193884E+01  0.97169147285E+02  0.18832114668E+03  0.22692627850E+03  0.80903007509E+02 0.  0.
         -6    2    1    2    0  502 -0.73397465228E+01 -0.87632294844E+02  0.34987661840E+03  0.39343780897E+03  0.15699162540E+03 0.  0.
        -24    2    5    5    0    0 -0.27399186686E+02 -0.30882595551E+02  0.92490794796E+02  0.12906598426E+03  0.79993943718E+02 0.  0.
          5    1    3    3  501    0  0.74112713439E+00 -0.95368524416E+01 -0.25427341307E+02  0.27570645800E+02  0.47000000000E+01 0. -1.
        -11    1    4    4    0    0  0.12119274527E+02  0.99779661256E+02  0.11250642896E+03  0.15086601398E+03  0.00000000000E+00 0.  1.
         12    1    4    4    0    0 -0.55206551381E+01 -0.26105139708E+01  0.75814717718E+02  0.76060264521E+02  0.00000000000E+00 0. -1.
         -5    1    5    5    0  502  0.20059440163E+02 -0.56749699293E+02  0.25738582361E+03  0.26437182472E+03  0.47000000000E+01 0.  1.
         13    1    6    6    0    0 -0.20641550472E+02 -0.58165783798E+02  0.59568812778E+02  0.85777476452E+02  0.00000000000E+00 0. -1.
        -14    1    6    6    0    0 -0.67576362139E+01  0.27283188247E+02  0.32921982018E+02  0.43288507806E+02  0.00000000000E+00 0.  1.
</event>
<event>
12    1  0.8135779E-002  0.1813745E+03  0.7818608E-02  0.1166718E+00
         21   -1    0    0  503  502  0.00000000000E+00  0.00000000000E+00  0.74138034578E+02  0.74138034578E+02  0.00000000000E+00 0.  1.
         21   -1    0    0  501  503 -0.00000000000E+00 -0.00000000000E+00 -0.70904021674E+03  0.70904021674E+03  0.00000000000E+00 0.  1.
          6    2    1    2  501    0 -0.49936173745E+02  0.12809492622E+02 -0.55862405951E+03  0.58733085471E+03  0.17389361254E+03 0.  0.
         24    2    3    3    0    0  0.23461823393E+01  0.17179987142E+01 -0.11143827575E+03  0.13693804705E+03  0.79530392532E+02 0.  0.
         -6    2    1    2    0  502  0.49936173745E+02 -0.12809492622E+02 -0.76278122655E+02  0.19584739661E+03  0.17285874642E+03 0.  0.
        -24    2    5    5    0    0  0.46284643413E+02  0.41241452450E+02 -0.94848706406E+02  0.13838614951E+03  0.79443839626E+02 0.  0.
          5    1    3    3  501    0 -0.52282356085E+02  0.11091493908E+02 -0.44718578376E+03  0.45039280766E+03  0.47000000000E+01 0. -1.
        -13    1    4    4    0    0  0.13977135661E+02 -0.16788641472E+02 -0.11293538252E+03  0.11502877652E+03  0.00000000000E+00 0.  1.
         14    1    4    4    0    0 -0.11630953321E+02  0.18506640186E+02  0.14971067729E+01  0.21909270522E+02  0.00000000000E+00 0. -1.
         -5    1    5    5    0  502  0.36515303320E+01 -0.54050945072E+02  0.18570583751E+02  0.57461247096E+02  0.47000000000E+01 0.  1.
         13    1    6    6    0    0 -0.17611922113E+02  0.11317904865E+02 -0.51462364058E+02  0.55557624909E+02  0.00000000000E+00 0. -1.
        -14    1    6    6    0    0  0.63896565526E+02  0.29923547585E+02 -0.43386342348E+02  0.82828524606E+02  0.00000000000E+00 0.  1.
</event>
<event>
12    1  0.8135779E-002  0.4319866E+03  0.7818608E-02  0.1033265E+00
         21   -1    0    0  503  502  0.00000000000E+00  0.00000000000E+00  0.17661097818E+04  0.17661097818E+04  0.00000000000E+00 0.  1.
         21   -1    0    0  501  503 -0.00000000000E+00 -0.00000000000E+00 -0.13614924433E+03  0.13614924433E+03  0.00000000000E+00 0.  1.
          6    2    1    2  501    0  0.26764507475E+03  0.29124296229E+03  0.12660470020E+04  0.13377172579E+04  0.17365512315E+03 0.  0.
         24    2    3    3    0    0  0.24758465619E+03  0.30195156110E+03  0.12405450641E+04  0.13032276462E+04  0.83530440802E+02 0.  0.
         -6    2    1    2    0  502 -0.26764507475E+03 -0.29124296229E+03  0.36391353550E+03  0.56454176822E+03  0.17267888588E+03 0.  0.
        -24    2    5    5    0    0 -0.45742363646E+02 -0.74998359242E+02  0.13102140578E+03  0.17690356625E+03  0.80069627567E+02 0.  0.
          5    1    3    3  501    0  0.20060418558E+02 -0.10708598813E+02  0.25501937928E+02  0.34489611760E+02  0.47000000000E+01 0. -1.
        -13    1    4    4    0    0  0.87794628626E+02  0.17192936241E+03  0.57676489401E+03  0.60821488427E+03  0.00000000000E+00 0.  1.
         14    1    4    4    0    0  0.15979002756E+03  0.13002219869E+03  0.66378017005E+03  0.69501276191E+03  0.00000000000E+00 0. -1.
         -5    1    5    5    0  502 -0.22190271110E+03 -0.21624460305E+03  0.23289212971E+03  0.38763820197E+03  0.47000000000E+01 0.  1.
         11    1    6    6    0    0 -0.36984613474E+02 -0.91755810754E+02  0.11780553974E+03  0.15383476731E+03  0.00000000000E+00 0. -1.
        -12    1    6    6    0    0 -0.87577501724E+01  0.16757451512E+02  0.13215866041E+02  0.23068798938E+02  0.00000000000E+00 0.  1.
</event>
<event>
12    1  0.8135779E-002  0.2170323E+03  0.7818608E-02  0.1136613E+00
         21   -1    0    0  503  502  0.00000000000E+00  0.00000000000E+00  0.12760046124E+03  0.12760046124E+03  0.00000000000E+00 0.  1.
         21   -1    0    0  501  503 -0.00000000000E+00 -0.00000000000E+00 -0.37712611898E+03  0.37712611898E+03  0.00000000000E+00 0. -1.
          6    2    1    2  501    0  0.10023469718E+03  0.81804498825E+02 -0.16979420098E+03  0.27351211592E+03  0.17099659739E+03 0.  0.
         24    2    3    3    0    0  0.10600968100E+03  0.24355394320E+01 -0.85328907774E+02  0.15736885133E+03  0.78993344967E+02 0.  0.
         -6    2    1    2    0  502 -0.10023469718E+03 -0.81804498825E+02 -0.79731456762E+02  0.23121446431E+03  0.17425284148E+03 0.  0.
        -24    2    5    5    0    0 -0.13781685931E+03 -0.82403957496E+02 -0.65190610420E+02  0.19063978658E+03  0.79434335252E+02 0.  0.
          5    1    3    3  501    0 -0.57749838126E+01  0.79368959393E+02 -0.84465293205E+02  0.11614326459E+03  0.47000000000E+01 0. -1.
        -11    1    4    4    0    0  0.29785721207E+02  0.14591451729E+02  0.10062304927E+02  0.34660490935E+02  0.00000000000E+00 0.  1.
         12    1    4    4    0    0  0.76223959789E+02 -0.12155912297E+02 -0.95391212701E+02  0.12270836039E+03  0.00000000000E+00 0. -1.
         -5    1    5    5    0  502  0.37582162130E+02  0.59945867094E+00 -0.14540846342E+02  0.40574677736E+02  0.47000000000E+01 0.  1.
         11    1    6    6    0    0 -0.10512853440E+03 -0.96968769134E+02 -0.47366748479E+02  0.15066041216E+03  0.00000000000E+00 0. -1.
        -12    1    6    6    0    0 -0.32688324915E+02  0.14564811639E+02 -0.17823861941E+02  0.39979374411E+02  0.00000000000E+00 0.  1.
</event>
<event>
12    1  0.8135779E-002  0.1794176E+03  0.7818608E-02  0.1168589E+00
         21   -1    0    0  503  502  0.00000000000E+00  0.00000000000E+00  0.96214629843E+03  0.96214629843E+03  0.00000000000E+00 0.  1.
         21   -1    0    0  501  503 -0.00000000000E+00 -0.00000000000E+00 -0.59568792213E+02  0.59568792213E+02  0.00000000000E+00 0.  1.
          6    2    1    2  501    0  0.35891712329E+02  0.32888215064E+02  0.11132927694E+03  0.21038012879E+03  0.17174324145E+03 0.  0.
         24    2    3    3    0    0  0.10531189667E+02 -0.44758740696E+02  0.80864668681E+02  0.12307383919E+03  0.80584269102E+02 0.  0.
         -6    2    1    2    0  502 -0.35891712329E+02 -0.32888215064E+02  0.79124822928E+03  0.81133496185E+03  0.17268702985E+03 0.  0.
        -24    2    5    5    0    0 -0.19536878210E+02  0.47010582644E+02  0.34733913593E+03  0.35997183572E+03  0.79646485612E+02 0.  0.
          5    1    3    3  501    0  0.25360522662E+02  0.77646955761E+02  0.30464608257E+02  0.87306289606E+02  0.47000000000E+01 0. -1.
        -13    1    4    4    0    0  0.96388954158E+01 -0.42067498043E+02  0.10106298388E+01  0.43169480760E+02  0.00000000000E+00 0.  1.
         14    1    4    4    0    0  0.89229425163E+00 -0.26912426531E+01  0.79854038842E+02  0.79904358426E+02  0.00000000000E+00 0. -1.
         -5    1    5    5    0  502 -0.16354834119E+02 -0.79898797709E+02  0.44390909335E+03  0.45136312613E+03  0.47000000000E+01 0.  1.
         11    1    6    6    0    0 -0.50711634327E+02  0.27282967998E+02  0.20600658572E+03  0.21390358473E+03  0.00000000000E+00 0. -1.
        -12    1    6    6    0    0  0.31174756117E+02  0.19727614647E+02  0.14133255021E+03  0.14606825099E+03  0.00000000000E+00 0.  1.
</event>
<event>
12    1  0.8135779E-002  0.1973990E+03  0.7818608E-02  0.1153587E+00
         21   -1    0    0  501  502  0.00000000000E+00  0.00000000000E+00  0.89424880983E+03  0.89424880983E+03  0.00000000000E+00 0. -1.
         21   -1    0    0  502  503 -0.00000000000E+00 -0.00000000000E+00 -0.44727698073E+02  0.44727698073E+02  0.00000000000E+00 0.  1.
         -6    2    1    2    0  503 -0.64774182923E+02  0.72722103418E+02  0.54957953566E+03  0.58395551366E+03  0.17170374723E+03 0.  0.
        -24    2    3    3    0    0 -0.45465991351E+01  0.71833474221E+02  0.17803659395E+03  0.20753234880E+03  0.78688801160E+02 0.  0.
          6    2    1    2  501    0  0.64774182923E+02 -0.72722103418E+02  0.29994157609E+03  0.35502099424E+03  0.16306672924E+03 0.  0.
         24    2    5    5    0    0  0.50740603561E+01 -0.28533021948E+02  0.25218896834E+03  0.26659486064E+03  0.81447311444E+02 0.  0.
          5    1    5    5  501    0  0.59700122567E+02 -0.44189081470E+02  0.47752607755E+02  0.88426133598E+02  0.47000000000E+01 0. -1.
        -13    1    6    6    0    0  0.16112151351E+00 -0.28936018988E+02  0.21991984535E+02  0.36345103368E+02  0.00000000000E+00 0.  1.
         14    1    6    6    0    0  0.49129388426E+01  0.40299704063E+00  0.23019698380E+03  0.23024975728E+03  0.00000000000E+00 0. -1.
         -5    1    3    3    0  503 -0.60227583788E+02  0.88862919664E+00  0.37154294171E+03  0.37642316486E+03  0.47000000000E+01 0.  1.
         13    1    4    4    0    0  0.21846090557E+02  0.39994287870E+02  0.31824649345E+02  0.55584197761E+02  0.00000000000E+00 0. -1.
        -14    1    4    4    0    0 -0.26392689692E+02  0.31839186351E+02  0.14621194461E+03  0.15194815103E+03  0.00000000000E+00 0.  1.
</event>
<event>
12    1  0.8135779E-002  0.1959579E+03  0.7818608E-02  0.1153334E+00
         21   -1    0    0  501  502  0.00000000000E+00  0.00000000000E+00  0.43234185324E+02  0.43234185324E+02  0.00000000000E+00 0.  1.
         21   -1    0    0  502  503 -0.00000000000E+00 -0.00000000000E+00 -0.89567887081E+03  0.89567887081E+03  0.00000000000E+00 0.  1.
         -6    2    1    2    0  503 -0.77164173781E+02 -0.52645410317E+02 -0.47750237153E+03  0.51614727573E+03  0.17226040313E+03 0.  0.
        -24    2    3    3    0    0 -0.46559078560E+02  0.21529305745E+02 -0.12154772085E+03  0.15123034861E+03  0.73929095057E+02 0.  0.
          6    2    1    2  501    0  0.77164173781E+02  0.52645410317E+02 -0.37494231395E+03  0.42276578040E+03  0.17153226327E+03 0.  0.
         24    2    5    5    0    0  0.42537625382E+02 -0.25300977539E+02 -0.27858829728E+03  0.29399923287E+03  0.79840594366E+02 0.  0.
          5    1    5    5  501    0  0.34626548399E+02  0.77946387856E+02 -0.96354016674E+02  0.12876654753E+03  0.47000000000E+01 0. -1.
        -11    1    6    6    0    0  0.62085651436E+02 -0.19194006209E+02 -0.14561010490E+03  0.15945325534E+03  0.00000000000E+00 0.  1.
         12    1    6    6    0    0 -0.19548026054E+02 -0.61069713302E+01 -0.13297819238E+03  0.13454597753E+03  0.00000000000E+00 0. -1.
         -5    1    3    3    0  503 -0.30605095221E+02 -0.74174716062E+02 -0.35595465068E+03  0.36491692712E+03  0.47000000000E+01 0.  1.
         13    1    4    4    0    0 -0.29007000991E+02  0.10591344270E+02 -0.12629149113E+03  0.13001201256E+03  0.00000000000E+00 0. -1.
        -14    1    4    4    0    0 -0.17552077569E+02  0.10937961475E+02  0.47437702790E+01  0.21218336048E+02  0.00000000000E+00 0.  1.
</event>
<event>
12    1  0.8135779E-002  0.2358962E+03  0.7818608E-02  0.1122640E+00
         21   -1    0    0  501  502  0.00000000000E+00  0.00000000000E+00  0.67508908923E+03  0.67508908923E+03  0.00000000000E+00 0.  1.
         21   -1    0    0  502  503 -0.00000000000E+00 -0.00000000000E+00 -0.12025609864E+03  0.12025609864E+03  0.00000000000E+00 0.  1.
         -6    2    1    2    0  503  0.16116456956E+03  0.15637851729E+02  0.54076570010E+02  0.24201508322E+03  0.17154726519E+03 0.  0.
        -24    2    3    3    0    0  0.45245636648E+02  0.18776043274E+02  0.80317280670E+02  0.12302889852E+03  0.79281377764E+02 0.  0.
          6    2    1    2  501    0 -0.16116456956E+03 -0.15637851729E+02  0.50075642058E+03  0.55333010465E+03  0.17087612784E+03 0.  0.
         24    2    5    5    0    0 -0.15511660482E+03 -0.49815494877E+02  0.47968297927E+03  0.51245383895E+03  0.77268569492E+02 0.  0.
          5    1    5    5  501    0 -0.60479647390E+01  0.34177643148E+02  0.21073441310E+02  0.40876265696E+02  0.47000000000E+01 0. -1.
        -11    1    6    6    0    0 -0.15970876520E+03 -0.53294034120E+02  0.47746530535E+03  0.50628081296E+03  0.00000000000E+00 0.  1.
         12    1    6    6    0    0  0.45921603845E+01  0.34785392424E+01  0.22176739176E+01  0.61730259891E+01  0.00000000000E+00 0. -1.
         -5    1    3    3    0  503  0.11591893291E+03 -0.31381915450E+01 -0.26240710661E+02  0.11898618470E+03  0.47000000000E+01 0.  1.
         13    1    4    4    0    0 -0.11826484483E+01 -0.24047113349E+02  0.44037125248E+02  0.50188950157E+02  0.00000000000E+00 0. -1.
        -14    1    4    4    0    0  0.46428285096E+02  0.42823156623E+02  0.36280155423E+02  0.72839948364E+02  0.00000000000E+00 0.  1.
</event>
<event>
12    1  0.8135779E-002  0.1760041E+03  0.7818608E-02  0.1171891E+00
         21   -1    0    0  503  502  0.00000000000E+00  0.00000000000E+00  0.18866386249E+03  0.18866386249E+03  0.00000000000E+00 0.  1.
         21   -1    0    0  501  503 -0.00000000000E+00 -0.00000000000E+00 -0.17751162926E+03  0.17751162926E+03  0.00000000000E+00 0.  1.
          6    2    1    2  501    0  0.57518996074E+01 -0.29612080239E+02 -0.45700018445E+02  0.18184041200E+03  0.17339978116E+03 0.  0.
         24    2    3    3    0    0 -0.12223613943E+02  0.49277100850E+02 -0.37348120361E+02  0.10036362892E+03  0.78104586988E+02 0.  0.
         -6    2    1    2    0  502 -0.57518996074E+01  0.29612080239E+02  0.56852251677E+02  0.18433507975E+03  0.17273471991E+03 0.  0.
        -24    2    5    5    0    0  0.50879739810E+02  0.55098555003E+02  0.20176831489E+02  0.11205866987E+03  0.80780209696E+02 0.  0.
          5    1    3    3  501    0  0.17975513550E+02 -0.78889181089E+02 -0.83518980841E+01  0.81476783086E+02  0.47000000000E+01 0. -1.
        -11    1    4    4    0    0  0.23659934465E+02 -0.47710739755E+01 -0.24180920157E+02  0.34165370558E+02  0.00000000000E+00 0.  1.
         12    1    4    4    0    0 -0.35883548408E+02  0.54048174826E+02 -0.13167200204E+02  0.66198258357E+02  0.00000000000E+00 0. -1.
         -5    1    5    5    0  502 -0.56631639418E+02 -0.25486474764E+02  0.36675420188E+02  0.72276409879E+02  0.47000000000E+01 0.  1.
         13    1    6    6    0    0  0.24963358488E+02 -0.18039442926E+02  0.15092448511E+02  0.34298291068E+02  0.00000000000E+00 0. -1.
        -14    1    6    6    0    0  0.25916381322E+02  0.73137997929E+02  0.50843829783E+01  0.77760378807E+02  0.00000000000E+00 0.  1.
</event>
<event>
12    1  0.8135779E-002  0.2569428E+03  0.7818608E-02  0.1111049E+00
         21   -1    0    0  501  502  0.00000000000E+00  0.00000000000E+00  0.21038822646E+03  0.21038822646E+03  0.00000000000E+00 0.  1.
         21   -1    0    0  502  503 -0.00000000000E+00 -0.00000000000E+00 -0.46628771403E+03  0.46628771403E+03  0.00000000000E+00 0. -1.
         -6    2    1    2    0  503 -0.13994510233E+03 -0.10745499146E+03 -0.33330259131E+03  0.42084465679E+03  0.18678437012E+03 0.  0.
        -24    2    3    3    0    0 -0.44340142676E+02 -0.10037103482E+03 -0.10251392121E+03  0.17089267941E+03  0.81577024642E+02 0.  0.
          6    2    1    2  501    0  0.13994510233E+03  0.10745499146E+03  0.77403103737E+02  0.25583128369E+03  0.16830685783E+03 0.  0.
         24    2    5    5    0    0  0.37030840166E+02  0.10690872654E+03  0.61517580767E+02  0.15159077524E+03  0.79966189476E+02 0.  0.
          5    1    5    5  501    0  0.10291426217E+03  0.54626491522E+00  0.15885522970E+02  0.10424050845E+03  0.47000000000E+01 0. -1.
        -13    1    6    6    0    0  0.36265834992E+02  0.14978837150E+02 -0.28856963985E+01  0.39343405975E+02  0.00000000000E+00 0.  1.
         14    1    6    6    0    0  0.76500517380E+00  0.91929889393E+02  0.64403277165E+02  0.11224736926E+03  0.00000000000E+00 0. -1.
         -5    1    3    3    0  503 -0.95604959657E+02 -0.70839566366E+01 -0.23078867010E+03  0.24995197738E+03  0.47000000000E+01 0.  1.
         13    1    4    4    0    0 -0.61276327887E+02 -0.74151623265E+02 -0.10124096107E+03  0.13965308371E+03  0.00000000000E+00 0. -1.
        -14    1    4    4    0    0  0.16936185211E+02 -0.26219411557E+02 -0.12729601457E+01  0.31239595699E+02  0.00000000000E+00 0.  1.
</event>
<event>
12    1  0.8135779E-002  0.1753516E+03  0.7818608E-02  0.1172628E+00
         21   -1    0    0  501  502  0.00000000000E+00  0.00000000000E+00  0.98671357222E+02  0.98671357222E+02  0.00000000000E+00 0.  1.
         21   -1    0    0  502  503 -0.00000000000E+00 -0.00000000000E+00 -0.15260425203E+04  0.15260425203E+04  0.00000000000E+00 0.  1.
         -6    2    1    2    0  503 -0.20851773595E+02 -0.24451592801E+02 -0.14393031081E+04  0.14499453799E+04  0.17238181680E+03 0.  0.
        -24    2    3    3    0    0  0.36199386725E+02  0.20693562552E+02 -0.49044922690E+03  0.49829486743E+03  0.77580355858E+02 0.  0.
          6    2    1    2  501    0  0.20851773595E+02  0.24451592801E+02  0.11931945062E+02  0.17476849761E+03  0.17137380078E+03 0.  0.
         24    2    5    5    0    0 -0.17043382986E+02  0.65359897156E+02  0.42949523307E+02  0.11078637185E+03  0.76593508698E+02 0.  0.
          5    1    5    5  501    0  0.37895156581E+02 -0.40908304354E+02 -0.31017578246E+02  0.63982125767E+02  0.47000000000E+01 0. -1.
        -13    1    6    6    0    0  0.46215240597E+01  0.60903320906E+01  0.46936881860E+02  0.47555457188E+02  0.00000000000E+00 0.  1.
         14    1    6    6    0    0 -0.21664907045E+02  0.59269565065E+02 -0.39873585528E+01  0.63230914658E+02  0.00000000000E+00 0. -1.
         -5    1    3    3    0  503 -0.57051160321E+02 -0.45145155354E+02 -0.94885388122E+03  0.95165051245E+03  0.47000000000E+01 0.  1.
         13    1    4    4    0    0  0.28446053574E+00  0.34292971855E+02 -0.37628386353E+03  0.37784339982E+03  0.00000000000E+00 0. -1.
        -14    1    4    4    0    0  0.35914926189E+02 -0.13599409303E+02 -0.11416536337E+03  0.12045146761E+03  0.00000000000E+00 0.  1.
</event>
<event>
12    1  0.8135779E-002  0.1756493E+03  0.7818608E-02  0.1172267E+00
         21   -1    0    0  501  502  0.00000000000E+00  0.00000000000E+00  0.48748781642E+03  0.48748781642E+03  0.00000000000E+00 0. -1.
         21   -1    0    0  502  503 -0.00000000000E+00 -0.00000000000E+00 -0.80147558241E+02  0.80147558241E+02  0.00000000000E+00 0. -1.
         -6    2    1    2    0  503  0.30824996536E+02  0.91804785105E+01  0.72139104565E+02  0.18920112798E+03  0.17192601556E+03 0.  0.
        -24    2    3    3    0    0  0.26948761024E+02 -0.10496738592E+02 -0.26747897671E+02  0.88191488415E+02  0.78904190999E+02 0.  0.
          6    2    1    2  501    0 -0.30824996536E+02 -0.91804785105E+01  0.33520115361E+03  0.37843424668E+03  0.17267948366E+03 0.  0.
         24    2    5    5    0    0  0.16198158910E+02  0.43099174657E+02  0.11418138508E+03  0.14645112797E+03  0.79313460247E+02 0.  0.
          5    1    5    5  501    0 -0.47023155447E+02 -0.52279653167E+02  0.22101976853E+03  0.23198311870E+03  0.47000000000E+01 0. -1.
        -11    1    6    6    0    0  0.34643909904E+02  0.50756502339E+01  0.13978915926E+02  0.37701098249E+02  0.00000000000E+00 0.  1.
         12    1    6    6    0    0 -0.18445750994E+02  0.38023524423E+02  0.10020246916E+03  0.10875002972E+03  0.00000000000E+00 0. -1.
         -5    1    3    3    0  503  0.38762355127E+01  0.19677217103E+02  0.98887002235E+02  0.10100963957E+03  0.47000000000E+01 0.  1.
         13    1    4    4    0    0 -0.21321302982E+02  0.17961760762E+02 -0.66433199713E+01  0.28659318044E+02  0.00000000000E+00 0. -1.
        -14    1    4    4    0    0  0.48270064005E+02 -0.28458499354E+02 -0.20104577699E+02  0.59532170371E+02  0.00000000000E+00 0.  1.
</event>
<event>
12    1  0.8135779E-002  0.3021544E+03  0.7818608E-02  0.1084205E+00
         21   -1    0    0  503  502  0.00000000000E+00  0.00000000000E+00  0.34439213074E+02  0.34439213074E+02  0.00000000000E+00 0. -1.
         21   -1    0    0  501  503 -0.00000000000E+00 -0.00000000000E+00 -0.27355197563E+04  0.27355197563E+04  0.00000000000E+00 0. -1.
          6    2    1    2  501    0 -0.20934610125E+03 -0.13292147356E+03 -0.11040271663E+04  0.11446280068E+04  0.17263655934E+03 0.  0.
         24    2    3    3    0    0 -0.15885464546E+03 -0.88043539001E+02 -0.51967005626E+03  0.55636043311E+03  0.80582262392E+02 0.  0.
         -6    2    1    2    0  502  0.20934610125E+03  0.13292147356E+03 -0.15970533769E+04  0.16253309626E+04  0.17212594556E+03 0.  0.
        -24    2    5    5    0    0  0.24251070472E+02  0.55631034075E+02 -0.50737759774E+03  0.51733756185E+03  0.80766328642E+02 0.  0.
          5    1    3    3  501    0 -0.50491455786E+02 -0.44877934560E+02 -0.58435711008E+03  0.58826757366E+03  0.47000000000E+01 0. -1.
        -11    1    4    4    0    0 -0.48880648395E+02 -0.19206787095E+02 -0.65131047343E+02  0.83667626869E+02  0.00000000000E+00 0.  1.
         12    1    4    4    0    0 -0.10997399707E+03 -0.68836751906E+02 -0.45453900892E+03  0.47269280624E+03  0.00000000000E+00 0. -1.
         -5    1    5    5    0  502  0.18509503078E+03  0.77290439486E+02 -0.10896757791E+04  0.11079934007E+04  0.47000000000E+01 0.  1.
         13    1    6    6    0    0  0.43873397636E+02  0.64850667169E+02 -0.36361584012E+03  0.37195021607E+03  0.00000000000E+00 0. -1.
        -14    1    6    6    0    0 -0.19622327164E+02 -0.92196330931E+01 -0.14376175762E+03  0.14538734578E+03  0.00000000000E+00 0.  1.
</event>
<event>
12    1  0.8135779E-002  0.1824856E+03  0.7818608E-02  0.1165869E+00
         21   -1    0    0  503  502  0.00000000000E+00  0.00000000000E+00  0.98507459416E+03  0.98507459416E+03  0.00000000000E+00 0. -1.
         21   -1    0    0  501  503 -0.00000000000E+00 -0.00000000000E+00 -0.42848174475E+02  0.42848174475E+02  0.00000000000E+00 0. -1.
          6    2    1    2  501    0  0.55442059524E+02 -0.35184162904E+02  0.22860200518E+03  0.29133549331E+03  0.16824311459E+03 0.  0.
         24    2    3    3    0    0 -0.47374024410E+01  0.35381272463E+02  0.14207239261E+03  0.16440830094E+03  0.74640788133E+02 0.  0.
         -6    2    1    2    0  502 -0.55442059524E+02  0.35184162904E+02  0.71362441451E+03  0.73658727533E+03  0.17026233262E+03 0.  0.
        -24    2    5    5    0    0 -0.14382664026E+02 -0.44993624266E+02  0.36345256630E+03  0.37498422668E+03  0.79272410456E+02 0.  0.
          5    1    3    3  501    0  0.60179461965E+02 -0.70565435367E+02  0.86529612564E+02  0.12692719236E+03  0.47000000000E+01 0. -1.
        -13    1    4    4    0    0  0.10815806046E+02 -0.19363286804E+02  0.64439605664E+02  0.68149697831E+02  0.00000000000E+00 0.  1.
         14    1    4    4    0    0 -0.15553208487E+02  0.54744559267E+02  0.77632786951E+02  0.96258603113E+02  0.00000000000E+00 0. -1.
         -5    1    5    5    0  502 -0.41059395498E+02  0.80177787170E+02  0.35017184821E+03  0.36160304865E+03  0.47000000000E+01 0.  1.
         13    1    6    6    0    0 -0.25028539517E+02 -0.57453793081E+02  0.34347099505E+03  0.34914136187E+03  0.00000000000E+00 0. -1.
        -14    1    6    6    0    0  0.10645875491E+02  0.12460168815E+02  0.19981571255E+02  0.25842864812E+02  0.00000000000E+00 0.  1.
</event>
<event>
12    1  0.8135779E-002  0.2114350E+03  0.7818608E-02  0.1140474E+00
         21   -1    0    0  503  502  0.00000000000E+00  0.00000000000E+00  0.34148850211E+03  0.34148850211E+03  0.00000000000E+00 0. -1.
         21   -1    0    0  501  503 -0.00000000000E+00 -0.00000000000E+00 -0.21238417466E+03  0.21238417466E+03  0.00000000000E+00 0. -1.
          6    2    1    2  501    0 -0.43480505104E+02 -0.11557008137E+03 -0.10712144626E+03  0.23684369495E+03  0.17138533647E+03 0.  0.
         24    2    3    3    0    0  0.30453481440E+02 -0.65775459845E+02 -0.19034642475E+02  0.11143590532E+03  0.82473133383E+02 0.  0.
         -6    2    1    2    0  502  0.43480505104E+02  0.11557008137E+03  0.23622577372E+03  0.31702898181E+03  0.17163263417E+03 0.  0.
        -24    2    5    5    0    0 -0.14245695393E+02  0.47873227998E+02  0.20001473740E+03  0.22085982184E+03  0.79236228631E+02 0.  0.
          5    1    3    3  501    0 -0.73933986543E+02 -0.49794621523E+02 -0.88086803788E+02  0.12540778963E+03  0.47000000000E+01 0. -1.
        -13    1    4    4    0    0 -0.12730663118E+02 -0.13077326610E+01  0.20640629541E+02  0.24286118174E+02  0.00000000000E+00 0.  1.
         14    1    4    4    0    0  0.43184144558E+02 -0.64467727184E+02 -0.39675272016E+02  0.87149787142E+02  0.00000000000E+00 0. -1.
         -5    1    5    5    0  502  0.57726200496E+02  0.67696853370E+02  0.36211036313E+02  0.96169159978E+02  0.47000000000E+01 0.  1.
         13    1    6    6    0    0  0.31313003621E+02  0.89748355946E+01  0.54440527497E+02  0.63441491974E+02  0.00000000000E+00 0. -1.
        -14    1    6    6    0    0 -0.45558699014E+02  0.38898392403E+02  0.14557420990E+03  0.15741832986E+03  0.00000000000E+00 0.  1.
</event>
<event>
12    1  0.8135779E-002  0.2104586E+03  0.7818608E-02  0.1141208E+00
         21   -1    0    0  503  502  0.00000000000E+00  0.00000000000E+00  0.93351690402E+03  0.93351690402E+03  0.00000000000E+00 0. -1.
         21   -1    0    0  501  503 -0.00000000000E+00 -0.00000000000E+00 -0.22394198972E+03  0.22394198972E+03  0.00000000000E+00 0.  1.
          6    2    1    2  501    0 -0.10448504403E+03  0.66473299757E+02 -0.15899969621E+03  0.26375050286E+03  0.17013994346E+03 0.  0.
         24    2    3    3    0    0 -0.13126377024E+03  0.39499093613E+02 -0.15993611206E+03  0.22544025816E+03  0.80333021118E+02 0.  0.
         -6    2    1    2    0  502  0.10448504403E+03 -0.66473299757E+02  0.86857461051E+03  0.89370839088E+03  0.17016759359E+03 0.  0.
        -24    2    5    5    0    0  0.50183309981E+02 -0.47110817122E+02  0.78450309225E+03  0.79166088118E+03  0.80895335774E+02 0.  0.
          5    1    3    3  501    0  0.26778726214E+02  0.26974206143E+02  0.93641585550E+00  0.38310244705E+02  0.47000000000E+01 0. -1.
        -13    1    4    4    0    0 -0.77491284977E+02  0.61457815251E+02 -0.83490471973E+02  0.12943191729E+03  0.00000000000E+00 0.  1.
         14    1    4    4    0    0 -0.53772485266E+02 -0.21958721638E+02 -0.76445640090E+02  0.96008340870E+02  0.00000000000E+00 0. -1.
         -5    1    5    5    0  502  0.54301734048E+02 -0.19362482635E+02  0.84071518262E+02  0.10204750971E+03  0.47000000000E+01 0.  1.
         13    1    6    6    0    0  0.22894200502E+02 -0.15955127249E+02  0.62218787088E+02  0.68190087028E+02  0.00000000000E+00 0. -1.
        -14    1    6    6    0    0  0.27289109480E+02 -0.31155689872E+02  0.72228430516E+03  0.72347079415E+03  0.00000000000E+00 0.  1.
</event>
<event>
12    1  0.8135779E-002  0.2387640E+03  0.7818608E-02  0.1120660E+00
         21   -1    0    0  503  502  0.00000000000E+00  0.00000000000E+00  0.14735261165E+03  0.14735261165E+03  0.00000000000E+00 0. -1.
         21   -1    0    0  501  503 -0.00000000000E+00 -0.00000000000E+00 -0.41650780520E+03  0.41650780520E+03  0.00000000000E+00 0. -1.
          6    2    1    2  501    0 -0.10990127308E+03 -0.12239267877E+03 -0.21033839034E+03  0.31819879457E+03  0.17306061590E+03 0.  0.
         24    2    3    3    0    0 -0.78132533763E+02 -0.12881615260E+03 -0.97119197999E+02  0.20033790484E+03  0.89469790958E+02 0.  0.
         -6    2    1    2    0  502  0.10990127308E+03  0.12239267877E+03 -0.58816803211E+02  0.24566162227E+03  0.17271930603E+03 0.  0.
        -24    2    5    5    0    0  0.14347579281E+03  0.74729929770E+02 -0.47659557866E+02  0.18611701596E+03  0.78728931452E+02 0.  0.
          5    1    3    3  501    0 -0.31768739315E+02  0.64234738275E+01 -0.11321919234E+03  0.11786088973E+03  0.47000000000E+01 0. -1.
        -11    1    4    4    0    0 -0.94045843386E+02 -0.12503408300E+03 -0.96797864990E+02  0.18397817598E+03  0.00000000000E+00 0.  1.
         12    1    4    4    0    0  0.15913309623E+02 -0.37820695987E+01 -0.32133300907E+00  0.16359728864E+02  0.00000000000E+00 0. -1.
         -5    1    5    5    0  502 -0.33574519728E+02  0.47662749002E+02 -0.11157245346E+02  0.59544606314E+02  0.47000000000E+01 0.  1.
         13    1    6    6    0    0  0.15799158005E+02  0.12789714529E+02  0.20341800472E+02  0.28757243224E+02  0.00000000000E+00 0. -1.
        -14    1    6    6    0    0  0.12767663480E+03  0.61940215242E+02 -0.68001358338E+02  0.15735977273E+03  0.00000000000E+00 0.  1.
</event>
<event>
12    1  0.8135779E-002  0.1977534E+03  0.7818608E-02  0.1151815E+00
         21   -1    0    0  501  502  0.00000000000E+00  0.00000000000E+00  0.35668610550E+03  0.35668610550E+03  0.00000000000E+00 0.  1.
         21   -1    0    0  502  503 -0.00000000000E+00 -0.00000000000E+00 -0.19595947384E+03  0.19595947384E+03  0.00000000000E+00 0.  1.
         -6    2    1    2    0  503 -0.93443542106E+02 -0.18949826276E+02 -0.10340102828E+03  0.22315503882E+03  0.17325012908E+03 0.  0.
        -24    2    3    3    0    0 -0.12436247957E+03  0.15710867816E+02 -0.63503739074E+02  0.16174471319E+03  0.80098499846E+02 0.  0.
          6    2    1    2  501    0  0.93443542106E+02  0.18949826276E+02  0.26412765994E+03  0.32949054052E+03  0.17236532155E+03 0.  0.
         24    2    5    5    0    0  0.11804152293E+03 -0.65421089959E+01  0.13874391757E+03  0.19911388512E+03  0.80124055438E+02 0.  0.
          5    1    5    5  501    0 -0.24597980820E+02  0.25491935272E+02  0.12538374237E+03  0.13037665540E+03  0.47000000000E+01 0. -1.
        -13    1    6    6    0    0  0.90859788159E+02 -0.39089917618E+02  0.83317838329E+02  0.12932665985E+03  0.00000000000E+00 0.  1.
         14    1    6    6    0    0  0.27181734767E+02  0.32547808622E+02  0.55426079241E+02  0.69787225271E+02  0.00000000000E+00 0. -1.
         -5    1    3    3    0  503  0.30918937462E+02 -0.34660694092E+02 -0.39897289201E+02  0.61410325632E+02  0.47000000000E+01 0.  1.
         13    1    4    4    0    0 -0.30144513314E+02  0.30807863187E+02  0.62425740975E+01  0.43552104983E+02  0.00000000000E+00 0. -1.
        -14    1    4    4    0    0 -0.94217966254E+02 -0.15096995372E+02 -0.69746313172E+02  0.11819260821E+03  0.00000000000E+00 0.  1.
</event>
<event>
12    1  0.8135779E-002  0.2518083E+03  0.7818608E-02  0.1112358E+00
         21   -1    0    0  503  502  0.00000000000E+00  0.00000000000E+00  0.15402102857E+04  0.15402102857E+04  0.00000000000E+00 0.  1.
         21   -1    0    0  501  503 -0.00000000000E+00 -0.00000000000E+00 -0.46507902739E+02  0.46507902739E+02  0.00000000000E+00 0.  1.
          6    2    1    2  501    0 -0.15596565959E+03 -0.93681754362E+02  0.47466894150E+03  0.53732486398E+03  0.17408574713E+03 0.  0.
         24    2    3    3    0    0 -0.17318464560E+03 -0.91246537824E+02  0.34783476924E+03  0.40921779543E+03  0.90284690117E+02 0.  0.
         -6    2    1    2    0  502  0.15596565959E+03  0.93681754362E+02  0.10190334415E+04  0.10493933245E+04  0.17232421925E+03 0.  0.
        -24    2    5    5    0    0  0.14751122557E+03  0.14350177765E+02  0.71541511108E+03  0.73543288580E+03  0.84126447013E+02 0.  0.
          5    1    3    3  501    0  0.17218986012E+02 -0.24352165379E+01  0.12683417225E+03  0.12810706854E+03  0.47000000000E+01 0. -1.
        -11    1    4    4    0    0 -0.92891908482E+02 -0.58782745118E+02  0.27464011271E+03  0.29582344277E+03  0.00000000000E+00 0.  1.
         12    1    4    4    0    0 -0.80292737115E+02 -0.32463792706E+02  0.73194656535E+02  0.11339435266E+03  0.00000000000E+00 0. -1.
         -5    1    5    5    0  502  0.84544340143E+01  0.79331576597E+02  0.30361833042E+03  0.31396043870E+03  0.47000000000E+01 0.  1.
         11    1    6    6    0    0  0.36033969183E+02 -0.60045205871E+01  0.37232101947E+03  0.37410886482E+03  0.00000000000E+00 0. -1.
        -12    1    6    6    0    0  0.11147725639E+03  0.20354698352E+02  0.34309409161E+03  0.36132402098E+03  0.00000000000E+00 0.  1.
</event>
<event>
12    1  0.8135779E-002  0.1781706E+03  0.7818608E-02  0.1170846E+00
         21   -1    0    0  503  502  0.00000000000E+00  0.00000000000E+00  0.46952431662E+03  0.46952431662E+03  0.00000000000E+00 0. -1.
         21   -1    0    0  501  503 -0.00000000000E+00 -0.00000000000E+00 -0.98729124646E+02  0.98729124646E+02  0.00000000000E+00 0. -1.
          6    2    1    2  501    0  0.18668691600E+02  0.88417089491E+01  0.19298523242E+02  0.17417899302E+03  0.17186969700E+03 0.  0.
         24    2    3    3    0    0  0.75961345585E+02 -0.84336227759E+01  0.26423233606E+02  0.11373284522E+03  0.79973250469E+02 0.  0.
         -6    2    1    2    0  502 -0.18668691600E+02 -0.88417089491E+01  0.35149666873E+03  0.39407444824E+03  0.17696911246E+03 0.  0.
        -24    2    5    5    0    0 -0.24322149577E+02 -0.82710255048E+01  0.61420084319E+02  0.10390414981E+03  0.79772606625E+02 0.  0.
          5    1    3    3  501    0 -0.57292653984E+02  0.17275331725E+02 -0.71247103634E+01  0.60446147806E+02  0.47000000000E+01 0. -1.
        -13    1    4    4    0    0  0.41690211481E+02 -0.27207678682E+02  0.47949566913E+02  0.69119407402E+02  0.00000000000E+00 0.  1.
         14    1    4    4    0    0  0.34271134104E+02  0.18774055906E+02 -0.21526333307E+02  0.44613437814E+02  0.00000000000E+00 0. -1.
         -5    1    5    5    0  502  0.56534579765E+01 -0.57068344422E+00  0.29007658441E+03  0.29017029843E+03  0.47000000000E+01 0.  1.
         11    1    6    6    0    0  0.27924695204E+02  0.64827030962E+01  0.14389583662E+02  0.32076068332E+02  0.00000000000E+00 0. -1.
        -12    1    6    6    0    0 -0.52246844781E+02 -0.14753728601E+02  0.47030500656E+02  0.71828081481E+02  0.00000000000E+00 0.  1.
</event>
<event>
12    1  0.8135779E-002  0.1905330E+03  0.7818608E-02  0.1158391E+00
         21   -1    0    0  503  502  0.00000000000E+00  0.00000000000E+00  0.69324084728E+02  0.69324084728E+02  0.00000000000E+00 0.  1.
         21   -1    0    0  501  503 -0.00000000000E+00 -0.00000000000E+00 -0.51870856334E+03  0.51870856334E+03  0.00000000000E+00 0. -1.
          6    2    1    2  501    0  0.77218360903E+02 -0.18833649517E+02 -0.22711529742E+03  0.29645267785E+03  0.17316307421E+03 0.  0.
         24    2    3    3    0    0  0.54912427337E+02  0.56226724325E+02 -0.13691311843E+03  0.17691131477E+03  0.79847304839E+02 0.  0.
         -6    2    1    2    0  502 -0.77218360903E+02  0.18833649517E+02 -0.22226918119E+03  0.29157997021E+03  0.17116631826E+03 0.  0.
        -24    2    5    5    0    0 -0.24354686825E+02  0.60771340191E+02 -0.35048829709E+02  0.92514935753E+02  0.55175051558E+02 0.  0.
          5    1    3    3  501    0  0.22305933566E+02 -0.75060373843E+02 -0.90202178989E+02  0.11954136308E+03  0.47000000000E+01 0. -1.
        -13    1    4    4    0    0  0.36234498757E+02  0.31660303500E+02 -0.13898457035E+02  0.50084736456E+02  0.00000000000E+00 0.  1.
         14    1    4    4    0    0  0.18677928580E+02  0.24566420825E+02 -0.12301466139E+03  0.12682657831E+03  0.00000000000E+00 0. -1.
         -5    1    5    5    0  502 -0.52863674078E+02 -0.41937690674E+02 -0.18722035148E+03  0.19906503446E+03  0.47000000000E+01 0.  1.
         13    1    6    6    0    0 -0.16737971273E+02  0.10471646556E+02 -0.36635591806E+02  0.41617083642E+02  0.00000000000E+00 0. -1.
        -14    1    6    6    0    0 -0.76167155525E+01  0.50299693635E+02  0.15867620965E+01  0.50897852111E+02  0.00000000000E+00 0.  1.
</event>
<event>
12    1  0.8135779E-002  0.1864440E+03  0.7818608E-02  0.1161735E+00
         21   -1    0    0  503  502  0.00000000000E+00  0.00000000000E+00  0.22042643307E+03  0.22042643307E+03  0.00000000000E+00 0.  1.
         21   -1    0    0  501  503 -0.00000000000E+00 -0.00000000000E+00 -0.15877231878E+03  0.15877231878E+03  0.00000000000E+00 0.  1.
          6    2    1    2  501    0 -0.99232694358E+01  0.71915223801E+02  0.14547719047E+02  0.18689595467E+03  0.17160475241E+03 0.  0.
         24    2    3    3    0    0 -0.17991570214E+02  0.10962606197E+03  0.38430457475E+02  0.14129244616E+03  0.78390593946E+02 0.  0.
         -6    2    1    2    0  502  0.99232694358E+01 -0.71915223801E+02  0.47106395241E+02  0.19230279718E+03  0.17172967897E+03 0.  0.
        -24    2    5    5    0    0  0.37898074571E+02  0.17741646918E+02  0.13280461745E+01  0.87714597881E+02  0.77078251687E+02 0.  0.
          5    1    3    3  501    0  0.80683007782E+01 -0.37710838169E+02 -0.23882738428E+02  0.45603508502E+02  0.47000000000E+01 0. -1.
        -11    1    4    4    0    0 -0.35411802368E+02  0.66872258060E+02  0.53563478619E+02  0.92708904032E+02  0.00000000000E+00 0.  1.
         12    1    4    4    0    0  0.17420232154E+02  0.42753803910E+02 -0.15133021144E+02  0.48583542132E+02  0.00000000000E+00 0. -1.
         -5    1    5    5    0  502 -0.27974805135E+02 -0.89656870720E+02  0.45778349066E+02  0.10458819930E+03  0.47000000000E+01 0.  1.
         13    1    6    6    0    0  0.38708040320E+02  0.77304648441E+01 -0.33310403754E+02  0.51649351113E+02  0.00000000000E+00 0. -1.
        -14    1    6    6    0    0 -0.80996574865E+00  0.10011182074E+02  0.34638449928E+02  0.36065246768E+02  0.00000000000E+00 0.  1.
</event>
<event>
12    1  0.8135779E-002  0.1895562E+03  0.7818608E-02  0.1159650E+00
         21   -1    0    0  501  502  0.00000000000E+00  0.00000000000E+00  0.33395261428E+02  0.33395261428E+02  0.00000000000E+00 0.  1.
         21   -1    0    0  502  503 -0.00000000000E+00 -0.00000000000E+00 -0.11514407524E+04  0.11514407524E+04  0.00000000000E+00 0.  1.
         -6    2    1    2    0  503 -0.68870627124E+02 -0.36494010225E+02 -0.39359084966E+03  0.43685845600E+03  0.17279055988E+03 0.  0.
        -24    2    3    3    0    0 -0.99064305317E+02  0.13307861616E+02 -0.23495371631E+03  0.26780309608E+03  0.80773842883E+02 0.  0.
          6    2    1    2  501    0  0.68870627124E+02  0.36494010225E+02 -0.72445464131E+03  0.74797755782E+03  0.16899977403E+03 0.  0.
         24    2    5    5    0    0  0.94277263884E+02  0.61901328083E+02 -0.46145782164E+03  0.48249602146E+03  0.84493269950E+02 0.  0.
          5    1    5    5  501    0 -0.25406636760E+02 -0.25407317858E+02 -0.26299681967E+03  0.26548153636E+03  0.47000000000E+01 0. -1.
        -13    1    6    6    0    0  0.50110601995E+02 -0.13723235173E+02 -0.14028680524E+03  0.14959875448E+03  0.00000000000E+00 0.  1.
         14    1    6    6    0    0  0.44166661889E+02  0.75624563256E+02 -0.32117101640E+03  0.33289726698E+03  0.00000000000E+00 0. -1.
         -5    1    3    3    0  503  0.30193678193E+02 -0.49801871841E+02 -0.15863713335E+03  0.16905535992E+03  0.47000000000E+01 0.  1.
         13    1    4    4    0    0 -0.17789108189E+02 -0.29253104261E+02 -0.89584279215E+02  0.95903803686E+02  0.00000000000E+00 0. -1.
        -14    1    4    4    0    0 -0.81275197128E+02  0.42560965876E+02 -0.14536943710E+03  0.17189929240E+03  0.00000000000E+00 0.  1.
</event>
<event>
12    1  0.8135779E-002  0.1811905E+03  0.7818608E-02  0.1166681E+00
         21   -1    0    0  501  502  0.00000000000E+00  0.00000000000E+00  0.18035088567E+03  0.18035088567E+03  0.00000000000E+00 0. -1.
         21   -1    0    0  502  503 -0.00000000000E+00 -0.00000000000E+00 -0.25411707194E+03  0.25411707194E+03  0.00000000000E+00 0.  1.
         -6    2    1    2    0  503  0.46456803668E+02  0.29504578763E+02 -0.15267327544E+03  0.23693695838E+03  0.17263035202E+03 0.  0.
        -24    2    3    3    0    0 -0.36751335004E+02 -0.16817058070E+01 -0.45614518249E+02  0.97725442415E+02  0.78205428591E+02 0.  0.
          6    2    1    2  501    0 -0.46456803668E+02 -0.29504578763E+02  0.78907089163E+02  0.19753099924E+03  0.17252075865E+03 0.  0.
         24    2    5    5    0    0 -0.45792741163E+02  0.34255756731E+02  0.21175483304E+01  0.97608304403E+02  0.79072530408E+02 0.  0.
          5    1    5    5  501    0 -0.66406250493E+00 -0.63760335494E+02  0.76789540832E+02  0.99922694833E+02  0.47000000000E+01 0. -1.
        -13    1    6    6    0    0 -0.43954064801E+02  0.58482551218E+02 -0.59458355930E+00  0.73160933149E+02  0.00000000000E+00 0.  1.
         14    1    6    6    0    0 -0.18386763619E+01 -0.24226794487E+02  0.27121318897E+01  0.24447371255E+02  0.00000000000E+00 0. -1.
         -5    1    3    3    0  503  0.83208138672E+02  0.31186284570E+02 -0.10705875719E+03  0.13921151596E+03  0.47000000000E+01 0.  1.
         11    1    4    4    0    0 -0.31686786320E+02 -0.30559126643E+02 -0.62499467432E+00  0.44026165707E+02  0.00000000000E+00 0. -1.
        -12    1    4    4    0    0 -0.50645486840E+01  0.28877420836E+02 -0.44989523574E+02  0.53699276708E+02  0.00000000000E+00 0.  1.
</event>
<event>
12    1  0.8135779E-002  0.1892983E+03  0.7818608E-02  0.1159367E+00
         21   -1    0    0  501  502  0.00000000000E+00  0.00000000000E+00  0.41993735878E+03  0.41993735878E+03  0.00000000000E+00 0. -1.
         21   -1    0    0  502  503 -0.00000000000E+00 -0.00000000000E+00 -0.96490821756E+02  0.96490821756E+02  0.00000000000E+00 0. -1.
         -6    2    1    2    0  503 -0.75032486194E+02 -0.16405874352E+02  0.72271064662E+02  0.20262516194E+03  0.17301682799E+03 0.  0.
        -24    2    3    3    0    0 -0.79835038861E+02 -0.65535577146E+02  0.79147641052E+02  0.15256350484E+03  0.79641249513E+02 0.  0.
          6    2    1    2  501    0  0.75032486194E+02  0.16405874352E+02  0.25117547236E+03  0.31380301859E+03  0.17170960912E+03 0.  0.
         24    2    5    5    0    0  0.95859849992E+01  0.37606218874E+01  0.34403872589E+02  0.86965712585E+02  0.79204642105E+02 0.  0.
          5    1    5    5  501    0  0.65446501194E+02  0.12645252464E+02  0.21677159977E+03  0.22683730600E+03  0.47000000000E+01 0. -1.
        -11    1    6    6    0    0 -0.26752162995E+02 -0.20719165808E+02  0.50134982062E+01  0.34206683864E+02  0.00000000000E+00 0.  1.
         12    1    6    6    0    0  0.36338147994E+02  0.24479787695E+02  0.29390374382E+02  0.52759028721E+02  0.00000000000E+00 0. -1.
         -5    1    3    3    0  503  0.48025526669E+01  0.49129702794E+02 -0.68765763903E+01  0.50061657100E+02  0.47000000000E+01 0.  1.
         13    1    4    4    0    0 -0.28348956133E+02  0.16961470165E+02  0.23261524656E+02  0.40403629952E+02  0.00000000000E+00 0. -1.
        -14    1    4    4    0    0 -0.51486082727E+02 -0.82497047310E+02  0.55886116396E+02  0.11215987489E+03  0.00000000000E+00 0.  1.
</event>
<event>
12    1  0.8135779E-002  0.2104232E+03  0.7818608E-02  0.1141977E+00
         21   -1    0    0  501  502  0.00000000000E+00  0.00000000000E+00  0.30914247285E+03  0.30914247285E+03  0.00000000000E+00 0.  1.
         21   -1    0    0  502  503 -0.00000000000E+00 -0.00000000000E+00 -0.16119878300E+03  0.16119878300E+03  0.00000000000E+00 0. -1.
         -6    2    1    2    0  503 -0.22580441968E+01  0.12265308608E+03 -0.93203088392E+01  0.21062955547E+03  0.17096509349E+03 0.  0.
        -24    2    3    3    0    0 -0.12219877550E+02  0.13534546845E+03 -0.50413582569E+02  0.16623268802E+03  0.81388303956E+02 0.  0.
          6    2    1    2  501    0  0.22580441968E+01 -0.12265308608E+03  0.15726399869E+03  0.25971170038E+03  0.16634098636E+03 0.  0.
         24    2    5    5    0    0  0.22386713740E+02 -0.20733991810E+02  0.22947626248E+02  0.89842212188E+02  0.81326294469E+02 0.  0.
          5    1    5    5  501    0 -0.20128669543E+02 -0.10191909427E+03  0.13431637244E+03  0.16986948819E+03  0.47000000000E+01 0. -1.
        -13    1    6    6    0    0  0.84583044070E+01  0.21456433390E+02 -0.18127207630E+02  0.29334571818E+02  0.00000000000E+00 0.  1.
         14    1    6    6    0    0  0.13928409333E+02 -0.42190425200E+02  0.41074833878E+02  0.60507640371E+02  0.00000000000E+00 0. -1.
         -5    1    3    3    0  503  0.99618333532E+01 -0.12692382369E+02  0.41093273730E+02  0.44396867454E+02  0.47000000000E+01 0.  1.
         13    1    4    4    0    0 -0.38869711367E+02  0.10960841892E+03 -0.19372594653E+02  0.11789892868E+03  0.00000000000E+00 0. -1.
        -14    1    4    4    0    0  0.26649833817E+02  0.25737049527E+02 -0.31040987916E+02  0.48333759337E+02  0.00000000000E+00 0.  1.
</event>
<event>
12    1  0.8135779E-002  0.2921855E+03  0.7818608E-02  0.1089386E+00
         21   -1    0    0  501  502  0.00000000000E+00  0.00000000000E+00  0.13813912234E+04  0.13813912234E+04  0.00000000000E+00 0.  1.
         21   -1    0    0  502  503 -0.00000000000E+00 -0.00000000000E+00 -0.62803553030E+02  0.62803553030E+02  0.00000000000E+00 0. -1.
         -6    2    1    2    0  503 -0.13965419262E+03 -0.18930389645E+03  0.76100868643E+03  0.81469762073E+03  0.17105184500E+03 0.  0.
        -24    2    3    3    0    0 -0.38095359860E+02 -0.80464833443E+02  0.18559382207E+03  0.22032022019E+03  0.78549899874E+02 0.  0.
          6    2    1    2  501    0  0.13965419262E+03  0.18930389645E+03  0.55757898393E+03  0.62949715569E+03  0.17330056830E+03 0.  0.
         24    2    5    5    0    0  0.16774134573E+02  0.26281758788E+02  0.20831682976E+03  0.22492099677E+03  0.78876173772E+02 0.  0.
          5    1    5    5  501    0  0.12288005805E+03  0.16302213766E+03  0.34926215416E+03  0.40457615892E+03  0.47000000000E+01 0. -1.
        -11    1    6    6    0    0 -0.13535672580E+01  0.27304902908E+02  0.20456140868E+03  0.20638013419E+03  0.00000000000E+00 0.  1.
         12    1    6    6    0    0  0.18127701831E+02 -0.10231441201E+01  0.37554210810E+01  0.18540862576E+02  0.00000000000E+00 0. -1.
         -5    1    3    3    0  503 -0.10155883276E+03 -0.10883906300E+03  0.57541486436E+03  0.59437740054E+03  0.47000000000E+01 0.  1.
         13    1    4    4    0    0 -0.54778302459E+02 -0.57487627173E+02  0.87320588068E+02  0.11802700877E+03  0.00000000000E+00 0. -1.
        -14    1    4    4    0    0  0.16682942600E+02 -0.22977206271E+02  0.98273234003E+02  0.10229321142E+03  0.00000000000E+00 0.  1.
</event>
<event>
12    1  0.8135779E-002  0.2387174E+03  0.7818608E-02  0.1120904E+00
         21   -1    0    0  503  502  0.00000000000E+00  0.00000000000E+00  0.30966301895E+03  0.30966301895E+03  0.00000000000E+00 0.  1.
         21   -1    0    0  501  503 -0.00000000000E+00 -0.00000000000E+00 -0.18410183137E+03  0.18410183137E+03  0.00000000000E+00 0.  1.
          6    2    1    2  501    0 -0.84241008541E+01  0.16384444952E+03  0.83199826458E+02  0.25280075044E+03  0.17340714860E+03 0.  0.
         24    2    3    3    0    0 -0.29928140749E+02  0.94411213716E+02 -0.16886697671E+02  0.12901545132E+03  0.80936118244E+02 0.  0.
         -6    2    1    2    0  502  0.84241008541E+01 -0.16384444952E+03  0.42361361127E+02  0.24096409988E+03  0.17132788274E+03 0.  0.
        -24    2    5    5    0    0  0.56210231242E+02 -0.46112560397E+02  0.86989347241E+01  0.10943630463E+03  0.81330652171E+02 0.  0.
          5    1    3    3  501    0  0.21504039895E+02  0.69433235800E+02  0.10008652413E+03  0.12378529912E+03  0.47000000000E+01 0. -1.
        -11    1    4    4    0    0 -0.89969771362E+00  0.50429374563E+02  0.29824388137E+02  0.58595438411E+02  0.00000000000E+00 0.  1.
         12    1    4    4    0    0 -0.29028443036E+02  0.43981839153E+02 -0.46711085809E+02  0.70420012907E+02  0.00000000000E+00 0. -1.
         -5    1    5    5    0  502 -0.47786130388E+02 -0.11773188912E+03  0.33662426403E+02  0.13152779525E+03  0.47000000000E+01 0.  1.
         13    1    6    6    0    0 -0.42557118956E+01  0.17052044253E+02 -0.97094831888E+01  0.20078778866E+02  0.00000000000E+00 0. -1.
        -14    1    6    6    0    0  0.60465943138E+02 -0.63164604650E+02  0.18408417913E+02  0.89357525761E+02  0.00000000000E+00 0.  1.
</event>
<event>
12    1  0.8135779E-002  0.2375430E+03  0.7818608E-02  0.1123060E+00
         21   -1    0    0  503  502  0.00000000000E+00  0.00000000000E+00  0.28908804201E+03  0.28908804201E+03  0.00000000000E+00 0.  1.
         21   -1    0    0  501  503 -0.00000000000E+00 -0.00000000000E+00 -0.22114375720E+03  0.22114375720E+03  0.00000000000E+00 0. -1.
          6    2    1    2  501    0 -0.17813675117E+02 -0.15379864801E+03 -0.66029387687E+02  0.23751288507E+03  0.16757428020E+03 0.  0.
         24    2    3    3    0    0  0.16378661007E+02 -0.15905270076E+03 -0.83851938383E+02  0.19831525461E+03  0.82047367331E+02 0.  0.
         -6    2    1    2    0  502  0.17813675117E+02  0.15379864801E+03  0.13397367250E+03  0.27271891414E+03  0.18015357353E+03 0.  0.
        -24    2    5    5    0    0  0.44644504130E+02  0.13385857600E+03  0.31680214849E+02  0.16499917901E+03  0.79434519862E+02 0.  0.
          5    1    3    3  501    0 -0.34192336124E+02  0.52540527506E+01  0.17822550695E+02  0.39197630454E+02  0.47000000000E+01 0. -1.
        -13    1    4    4    0    0  0.19453215444E+02 -0.17944719674E+02  0.10574150739E+02  0.28500056476E+02  0.00000000000E+00 0.  1.
         14    1    4    4    0    0 -0.30745544365E+01 -0.14110798109E+03 -0.94426089122E+02  0.16981519814E+03  0.00000000000E+00 0. -1.
         -5    1    5    5    0  502 -0.26830829013E+02  0.19940072016E+02  0.10229345765E+03  0.10771973513E+03  0.47000000000E+01 0.  1.
         13    1    6    6    0    0  0.63273267743E+02  0.12532910593E+03  0.33783323886E+02  0.14440292302E+03  0.00000000000E+00 0. -1.
        -14    1    6    6    0    0 -0.18628763613E+02  0.85294700681E+01 -0.21031090365E+01  0.20596255995E+02  0.00000000000E+00 0.  1.
</event>
<event>
12    1  0.8135779E-002  0.2066813E+03  0.7818608E-02  0.1145463E+00
         21   -1    0    0  503  502  0.00000000000E+00  0.00000000000E+00  0.73741905451E+03  0.73741905451E+03  0.00000000000E+00 0.  1.
         21   -1    0    0  501  503 -0.00000000000E+00 -0.00000000000E+00 -0.56310385399E+02  0.56310385399E+02  0.00000000000E+00 0.  1.
          6    2    1    2  501    0 -0.88743747199E+02 -0.70928709316E+02  0.33220522165E+03  0.39125114541E+03  0.17265808705E+03 0.  0.
         24    2    3    3    0    0 -0.12519509128E+03 -0.23750341618E+02  0.23531787340E+03  0.27739269331E+03  0.73036396084E+02 0.  0.
         -6    2    1    2    0  502  0.88743747199E+02  0.70928709316E+02  0.34890344746E+03  0.40247829449E+03  0.16537480890E+03 0.  0.
        -24    2    5    5    0    0  0.10914804885E+03  0.59389082626E+02  0.18576923341E+03  0.23760149108E+03  0.80646765457E+02 0.  0.
          5    1    3    3  501    0  0.36451344083E+02 -0.47178367698E+02  0.96887348252E+02  0.11385845210E+03  0.47000000000E+01 0. -1.
        -13    1    4    4    0    0 -0.32389534886E+02  0.96557891053E+01  0.17011585439E+02  0.37837947520E+02  0.00000000000E+00 0.  1.
         14    1    4    4    0    0 -0.92805556396E+02 -0.33406130723E+02  0.21830628796E+03  0.23955474579E+03  0.00000000000E+00 0. -1.
         -5    1    5    5    0  502 -0.20404301653E+02  0.11539626690E+02  0.16313421405E+03  0.16487680341E+03  0.47000000000E+01 0.  1.
         11    1    6    6    0    0  0.59930572069E+02  0.30890910878E+02  0.33968929360E+02  0.75497086071E+02  0.00000000000E+00 0. -1.
        -12    1    6    6    0    0  0.49217476783E+02  0.28498171747E+02  0.15180030405E+03  0.16210440501E+03  0.00000000000E+00 0.  1.
</event>
<event>
12    1  0.8135779E-002  0.3347488E+03  0.7818608E-02  0.1069061E+00
         21   -1    0    0  503  502  0.00000000000E+00  0.00000000000E+00  0.12809637909E+03  0.12809637909E+03  0.00000000000E+00 0. -1.
         21   -1    0    0  501  503 -0.00000000000E+00 -0.00000000000E+00 -0.10513880460E+04  0.10513880460E+04  0.00000000000E+00 0.  1.
          6    2    1    2  501    0  0.27216918656E+03 -0.90450400894E+02 -0.70341899694E+03  0.77898379153E+03  0.17251122013E+03 0.  0.
         24    2    3    3    0    0  0.27600264572E+03 -0.11102768638E+03 -0.61130700970E+03  0.68440668922E+03  0.78814012473E+02 0.  0.
         -6    2    1    2    0  502 -0.27216918656E+03  0.90450400894E+02 -0.21987266993E+03  0.40050063352E+03  0.17262510052E+03 0.  0.
        -24    2    5    5    0    0 -0.14306062035E+03  0.48833358063E+02 -0.41184962238E+02  0.17610725794E+03  0.80414720230E+02 0.  0.
          5    1    3    3  501    0 -0.38334591526E+01  0.20577285483E+02 -0.92111987238E+02  0.94577102302E+02  0.47000000000E+01 0. -1.
        -13    1    4    4    0    0  0.25497731877E+03 -0.91148031904E+02 -0.49148831631E+03  0.56114361965E+03  0.00000000000E+00 0.  1.
         14    1    4    4    0    0  0.21025326952E+02 -0.19879654473E+02 -0.11981869338E+03  0.12326306957E+03  0.00000000000E+00 0. -1.
         -5    1    5    5    0  502 -0.12910856621E+03  0.41617042831E+02 -0.17868770769E+03  0.22439337557E+03  0.47000000000E+01 0.  1.
         13    1    6    6    0    0 -0.10179859198E+03  0.68982613123E+02 -0.16790474140E+02  0.12411073388E+03  0.00000000000E+00 0. -1.
        -14    1    6    6    0    0 -0.41262028372E+02 -0.20149255060E+02 -0.24394488098E+02  0.51996524061E+02  0.00000000000E+00 0.  1.
</event>
<event>
12    1  0.8135779E-002  0.1927981E+03  0.7818608E-02  0.1158230E+00
         21   -1    0    0  503  502  0.00000000000E+00  0.00000000000E+00  0.70381840409E+03  0.70381840409E+03  0.00000000000E+00 0.  1.
         21   -1    0    0  501  503 -0.00000000000E+00 -0.00000000000E+00 -0.85761057489E+02  0.85761057489E+02  0.00000000000E+00 0. -1.
          6    2    1    2  501    0  0.47393281479E+02  0.69745350634E+02  0.59363584765E+02  0.20173035905E+03  0.17337983015E+03 0.  0.
         24    2    3    3    0    0  0.58943386560E+01  0.66851464139E+01  0.83871502649E+02  0.12222262578E+03  0.88456242764E+02 0.  0.
         -6    2    1    2    0  502 -0.47393281479E+02 -0.69745350634E+02  0.55869376183E+03  0.58784910252E+03  0.16222610999E+03 0.  0.
        -24    2    5    5    0    0  0.27935160873E+02 -0.13597875427E+02  0.27702738649E+03  0.29088959317E+03  0.83110210669E+02 0.  0.
          5    1    3    3  501    0  0.41498942823E+02  0.63060204220E+02 -0.24507917884E+02  0.79507733276E+02  0.47000000000E+01 0. -1.
        -13    1    4    4    0    0  0.46134046251E+02  0.19725180528E+01  0.31016454706E+02  0.55626086627E+02  0.00000000000E+00 0.  1.
         14    1    4    4    0    0 -0.40239707595E+02  0.47126283610E+01  0.52855047943E+02  0.66596539148E+02  0.00000000000E+00 0. -1.
         -5    1    5    5    0  502 -0.75328442352E+02 -0.56147475207E+02  0.28166637534E+03  0.29695950936E+03  0.47000000000E+01 0.  1.
         11    1    6    6    0    0  0.23086152555E+02 -0.48121054802E+02  0.15227281399E+03  0.16135555843E+03  0.00000000000E+00 0. -1.
        -12    1    6    6    0    0  0.48490083177E+01  0.34523179375E+02  0.12475457250E+03  0.12953403474E+03  0.00000000000E+00 0.  1.
</event>
<event>
12    1  0.8135779E-002  0.2089700E+03  0.7818608E-02  0.1142568E+00
         21   -1    0    0  503  502  0.00000000000E+00  0.00000000000E+00  0.33971054304E+03  0.33971054304E+03  0.00000000000E+00 0. -1.
         21   -1    0    0  501  503 -0.00000000000E+00 -0.00000000000E+00 -0.14267757255E+03  0.14267757255E+03  0.00000000000E+00 0. -1.
          6    2    1    2  501    0  0.10256489900E+03  0.59237728773E+02  0.21301020250E+02  0.21005281285E+03  0.17216208556E+03 0.  0.
         24    2    3    3    0    0  0.42569860947E+02 -0.26671380740E+02 -0.13452281199E+02  0.99555475096E+02  0.84892715473E+02 0.  0.
         -6    2    1    2    0  502 -0.10256489900E+03 -0.59237728773E+02  0.17573195024E+03  0.27233530274E+03  0.17104423921E+03 0.  0.
        -24    2    5    5    0    0 -0.27451080034E+01  0.98514474721E+00  0.11597021918E+03  0.14124625030E+03  0.80578566378E+02 0.  0.
          5    1    3    3  501    0  0.59995038056E+02  0.85909109513E+02  0.34753301449E+02  0.11049733775E+03  0.47000000000E+01 0. -1.
        -13    1    4    4    0    0  0.32241943998E+02 -0.47645449117E+02 -0.35350517149E+02  0.67522520962E+02  0.00000000000E+00 0.  1.
         14    1    4    4    0    0  0.10327916949E+02  0.20974068378E+02  0.21898235950E+02  0.32032954133E+02  0.00000000000E+00 0. -1.
         -5    1    5    5    0  502 -0.99819790999E+02 -0.60222873520E+02  0.59761731067E+02  0.13108905244E+03  0.47000000000E+01 0.  1.
         13    1    6    6    0    0  0.27425810351E+02 -0.27543781981E+02  0.61508108905E+02  0.72760445712E+02  0.00000000000E+00 0. -1.
        -14    1    6    6    0    0 -0.30170918354E+02  0.28528926729E+02  0.54462110271E+02  0.68485804586E+02  0.00000000000E+00 0.  1.
</event>
<event>
12    1  0.8135779E-002  0.2416087E+03  0.7818608E-02  0.1118801E+00
         21   -1    0    0  501  502  0.00000000000E+00  0.00000000000E+00  0.17167472204E+04  0.17167472204E+04  0.00000000000E+00 0. -1.
         21   -1    0    0  502  503 -0.00000000000E+00 -0.00000000000E+00 -0.79493622042E+02  0.79493622042E+02  0.00000000000E+00 0.  1.
         -6    2    1    2    0  503 -0.91851244624E+02 -0.14221401411E+03  0.13841429069E+03  0.27805310096E+03  0.17173681648E+03 0.  0.
        -24    2    3    3    0    0 -0.44548157545E+02 -0.21270851251E+02  0.11279262173E+03  0.14560163584E+03  0.77721769093E+02 0.  0.
          6    2    1    2  501    0  0.91851244624E+02  0.14221401411E+03  0.14988393077E+04  0.15181877415E+04  0.17237537889E+03 0.  0.
         24    2    5    5    0    0  0.10015867265E+03  0.37893996786E+02  0.95275819988E+03  0.96214966216E+03  0.80722179516E+02 0.  0.
          5    1    5    5  501    0 -0.83074280250E+01  0.10432001733E+03  0.54608110783E+03  0.55603807937E+03  0.47000000000E+01 0. -1.
        -11    1    6    6    0    0  0.90299383479E+02  0.12754451877E+02  0.47784884933E+03  0.48647320327E+03  0.00000000000E+00 0.  1.
         12    1    6    6    0    0  0.98592891695E+01  0.25139544909E+02  0.47490935055E+03  0.47567645889E+03  0.00000000000E+00 0. -1.
         -5    1    3    3    0  503 -0.47303087079E+02 -0.12094316286E+03  0.25621668966E+02  0.13245146511E+03  0.47000000000E+01 0.  1.
         13    1    4    4    0    0  0.62911839447E+01 -0.38010246505E+02  0.48803949336E+02  0.62178640268E+02  0.00000000000E+00 0. -1.
        -14    1    4    4    0    0 -0.50839341489E+02  0.16739395254E+02  0.63988672390E+02  0.83422995576E+02  0.00000000000E+00 0.  1.
</event>
<event>
12    1  0.8135779E-002  0.1846676E+03  0.7818608E-02  0.1167566E+00
         21   -1    0    0  503  502  0.00000000000E+00  0.00000000000E+00  0.45970091061E+03  0.45970091061E+03  0.00000000000E+00 0.  1.
         21   -1    0    0  501  503 -0.00000000000E+00 -0.00000000000E+00 -0.10665261112E+03  0.10665261112E+03  0.00000000000E+00 0.  1.
          6    2    1    2  501    0  0.23262357499E+01 -0.64795362143E+02 -0.36454513298E+00  0.16760202895E+03  0.15455244057E+03 0.  0.
         24    2    3    3    0    0 -0.49840755118E+02 -0.22285699063E+02  0.11790487866E+02  0.99057873701E+02  0.81808883898E+02 0.  0.
         -6    2    1    2    0  502 -0.23262357499E+01  0.64795362143E+02  0.35341284462E+03  0.39875149278E+03  0.17291114459E+03 0.  0.
        -24    2    5    5    0    0  0.57125671705E+01  0.10226131054E+03  0.19083362049E+03  0.23165148153E+03  0.82188375866E+02 0.  0.
          5    1    3    3  501    0  0.52166990868E+02 -0.42509663080E+02 -0.12155032999E+02  0.68544155248E+02  0.47000000000E+01 0. -1.
        -11    1    4    4    0    0 -0.20293638513E+02 -0.22350122351E+02 -0.33427740581E+02  0.45041909080E+02  0.00000000000E+00 0.  1.
         12    1    4    4    0    0 -0.29547116605E+02  0.64423288781E-01  0.45218228447E+02  0.54015964621E+02  0.00000000000E+00 0. -1.
         -5    1    5    5    0  502 -0.80388029204E+01 -0.37465948399E+02  0.16257922412E+03  0.16710001125E+03  0.47000000000E+01 0.  1.
         13    1    6    6    0    0  0.40505138646E+02  0.74366766554E+02  0.10470832416E+03  0.13466593991E+03  0.00000000000E+00 0. -1.
        -14    1    6    6    0    0 -0.34792571476E+02  0.27894543988E+02  0.86125296338E+02  0.96985541621E+02  0.00000000000E+00 0.  1.
</event>
<event>
12    1  0.8135779E-002  0.1798258E+03  0.7818608E-02  0.1168164E+00
         21   -1    0    0  503  502  0.00000000000E+00  0.00000000000E+00  0.68504084583E+03  0.68504084583E+03  0.00000000000E+00 0. -1.
         21   -1    0    0  501  503 -0.00000000000E+00 -0.00000000000E+00 -0.87400484595E+02  0.87400484595E+02  0.00000000000E+00 0.  1.
          6    2    1    2  501    0  0.51137861928E+02  0.63510104445E+01  0.36581021888E+02  0.18350882835E+03  0.17228436570E+03 0.  0.
         24    2    3    3    0    0 -0.25239153582E+02  0.32991635812E+02 -0.10652933474E+02  0.89720193871E+02  0.78808408749E+02 0.  0.
         -6    2    1    2    0  502 -0.51137861928E+02 -0.63510104445E+01  0.56105933935E+03  0.58893250208E+03  0.17145988883E+03 0.  0.
        -24    2    5    5    0    0 -0.91866652688E+02 -0.86616776746E+01  0.28523888100E+03  0.31007198349E+03  0.79176443329E+02 0.  0.
          5    1    3    3  501    0  0.76377015510E+02 -0.26640625367E+02  0.47233955362E+02  0.93788634479E+02  0.47000000000E+01 0. -1.
        -13    1    4    4    0    0  0.57605917033E+00  0.48478886804E+02  0.14377436111E+02  0.50569209792E+02  0.00000000000E+00 0.  1.
         14    1    4    4    0    0 -0.25815212752E+02 -0.15487250992E+02 -0.25030369585E+02  0.39150984078E+02  0.00000000000E+00 0. -1.
         -5    1    5    5    0  502  0.40728790760E+02  0.23106672300E+01  0.27582045835E+03  0.27886051858E+03  0.47000000000E+01 0.  1.
         13    1    6    6    0    0  0.28377558459E+01  0.13041539353E+02  0.10011460042E+03  0.10100033576E+03  0.00000000000E+00 0. -1.
        -14    1    6    6    0    0 -0.94704408534E+02 -0.21703217028E+02  0.18512428058E+03  0.20907164773E+03  0.00000000000E+00 0.  1.
</event>
<event>
12    1  0.8135779E-002  0.1751388E+03  0.7818608E-02  0.1172809E+00
         21   -1    0    0  503  502  0.00000000000E+00  0.00000000000E+00  0.33539272718E+03  0.33539272718E+03  0.00000000000E+00 0.  1.
         21   -1    0    0  501  503 -0.00000000000E+00 -0.00000000000E+00 -0.20354864778E+03  0.20354864778E+03  0.00000000000E+00 0.  1.
          6    2    1    2  501    0 -0.30764321818E+02  0.10671214316E+01  0.26636541932E+03  0.31878539820E+03  0.17241232917E+03 0.  0.
         24    2    3    3    0    0 -0.65315131068E+02  0.21941194274E+02  0.93070028202E+02  0.14078857823E+03  0.80074410756E+02 0.  0.
         -6    2    1    2    0  502  0.30764321818E+02 -0.10671214316E+01 -0.13452133991E+03  0.22015597676E+03  0.17153740398E+03 0.  0.
        -24    2    5    5    0    0  0.47555667090E+02  0.51866253566E+02 -0.44587794416E+02  0.11435416170E+03  0.78339984398E+02 0.  0.
          5    1    3    3  501    0  0.34550809251E+02 -0.20874072843E+02  0.17329539112E+03  0.17799681997E+03  0.47000000000E+01 0. -1.
        -11    1    4    4    0    0 -0.34215696538E+02  0.32628897107E+02  0.96764140427E+02  0.10769706444E+03  0.00000000000E+00 0.  1.
         12    1    4    4    0    0 -0.31099434530E+02 -0.10687702833E+02 -0.36941122245E+01  0.33091513793E+02  0.00000000000E+00 0. -1.
         -5    1    5    5    0  502 -0.16791345272E+02 -0.52933374997E+02 -0.89933545496E+02  0.10580181506E+03  0.47000000000E+01 0.  1.
         13    1    6    6    0    0 -0.96182008232E+01 -0.10304265096E+02  0.66280175823E+01  0.15576208888E+02  0.00000000000E+00 0. -1.
        -14    1    6    6    0    0  0.57173867913E+02  0.62170518661E+02 -0.51215811999E+02  0.98777952810E+02  0.00000000000E+00 0.  1.
</event>
<event>
12    1  0.8135779E-002  0.2627474E+03  0.7818608E-02  0.1106441E+00
         21   -1    0    0  501  502  0.00000000000E+00  0.00000000000E+00  0.18733417787E+03  0.18733417787E+03  0.00000000000E+00 0. -1.
         21   -1    0    0  502  503 -0.00000000000E+00 -0.00000000000E+00 -0.35981612152E+03  0.35981612152E+03  0.00000000000E+00 0. -1.
         -6    2    1    2    0  503 -0.17887567200E+03  0.90627534370E+02 -0.84913997560E+02  0.27019482209E+03  0.15995311463E+03 0.  0.
        -24    2    3    3    0    0 -0.13674860461E+03  0.10790368277E+03 -0.10671846581E+03  0.21949294889E+03  0.80280371494E+02 0.  0.
          6    2    1    2  501    0  0.17887567200E+03 -0.90627534370E+02 -0.87567946086E+02  0.27695547731E+03  0.16978320061E+03 0.  0.
         24    2    5    5    0    0  0.59462520933E+02  0.16202700611E+01  0.21186414646E+01  0.10135669583E+03  0.82038250083E+02 0.  0.
          5    1    5    5  501    0  0.11941315107E+03 -0.92247804431E+02 -0.89686587550E+02  0.17559878148E+03  0.47000000000E+01 0. -1.
        -13    1    6    6    0    0  0.21848732103E+02  0.32617146353E+02 -0.24046151283E+02  0.46037622900E+02  0.00000000000E+00 0.  1.
         14    1    6    6    0    0  0.37613788830E+02 -0.30996876292E+02  0.26164792748E+02  0.55319072927E+02  0.00000000000E+00 0. -1.
         -5    1    3    3    0  503 -0.42127067389E+02 -0.17276148399E+02  0.21804468249E+02  0.50701873200E+02  0.47000000000E+01 0.  1.
         13    1    4    4    0    0 -0.60601295984E+02  0.92134246852E+02 -0.83543375256E+02  0.13835003458E+03  0.00000000000E+00 0. -1.
        -14    1    4    4    0    0 -0.76147308630E+02  0.15769435917E+02 -0.23175090554E+02  0.81142914311E+02  0.00000000000E+00 0.  1.
</event>
<event>
12    1  0.8135779E-002  0.1848170E+03  0.7818608E-02  0.1163437E+00
         21   -1    0    0  501  502  0.00000000000E+00  0.00000000000E+00  0.55751443670E+02  0.55751443670E+02  0.00000000000E+00 0. -1.
         21   -1    0    0  502  503 -0.00000000000E+00 -0.00000000000E+00 -0.62483850330E+03  0.62483850330E+03  0.00000000000E+00 0. -1.
         -6    2    1    2    0  503  0.65416184373E+02 -0.12346776172E+02 -0.33696531386E+03  0.38387825872E+03  0.17142104512E+03 0.  0.
        -24    2    3    3    0    0  0.71088083544E+02 -0.45222135680E+02 -0.12919237329E+03  0.17339157377E+03  0.79217494045E+02 0.  0.
          6    2    1    2  501    0 -0.65416184373E+02  0.12346776172E+02 -0.23212174576E+03  0.29671168825E+03  0.17241113951E+03 0.  0.
         24    2    5    5    0    0 -0.90710959316E+02  0.13402241728E+02 -0.85875659476E+02  0.14821607417E+03  0.78646535386E+02 0.  0.
          5    1    5    5  501    0  0.25294774943E+02 -0.10554655556E+01 -0.14624608629E+03  0.14849561408E+03  0.47000000000E+01 0. -1.
        -13    1    6    6    0    0  0.88281266622E+00  0.26380447803E+02 -0.88532445000E+01  0.27840390131E+02  0.00000000000E+00 0.  1.
         14    1    6    6    0    0 -0.91593771982E+02 -0.12978206075E+02 -0.77022414976E+02  0.12037568404E+03  0.00000000000E+00 0. -1.
         -5    1    3    3    0  503 -0.56718991707E+01  0.32875359507E+02 -0.20777294058E+03  0.21048668494E+03  0.47000000000E+01 0.  1.
         13    1    4    4    0    0  0.26779610941E+02 -0.36201372293E+02 -0.11872614700E+03  0.12697867891E+03  0.00000000000E+00 0. -1.
        -14    1    4    4    0    0  0.44308472602E+02 -0.90207633863E+01 -0.10466226290E+02  0.46412894859E+02  0.00000000000E+00 0.  1.
</event>
<event>
12    1  0.8135779E-002  0.1985757E+03  0.7818608E-02  0.1151243E+00
         21   -1    0    0  503  502  0.00000000000E+00  0.00000000000E+00  0.13283531249E+03  0.13283531249E+03  0.00000000000E+00 0.  1.
         21   -1    0    0  501  503 -0.00000000000E+00 -0.00000000000E+00 -0.30245780974E+03  0.30245780974E+03  0.00000000000E+00 0. -1.
          6    2    1    2  501    0 -0.88075084250E+02 -0.40634906133E+02 -0.11920207164E+03  0.23041630855E+03  0.17168029969E+03 0.  0.
         24    2    3    3    0    0 -0.78802472453E+02  0.34202547363E+02 -0.87964923888E+02  0.14865766879E+03  0.83556153249E+02 0.  0.
         -6    2    1    2    0  502  0.88075084250E+02  0.40634906133E+02 -0.50420425607E+02  0.20487681368E+03  0.17327398363E+03 0.  0.
        -24    2    5    5    0    0  0.54918910457E+02  0.66019704958E+02  0.24370005839E+02  0.11908976041E+03  0.78827569302E+02 0.  0.
          5    1    3    3  501    0 -0.92726117973E+01 -0.74837453496E+02 -0.31237147750E+02  0.81758639757E+02  0.47000000000E+01 0. -1.
        -11    1    4    4    0    0 -0.11377304518E+02  0.48944524600E+02 -0.44285442138E+02  0.66979175359E+02  0.00000000000E+00 0.  1.
         12    1    4    4    0    0 -0.67425167935E+02 -0.14741977237E+02 -0.43679481750E+02  0.81678493435E+02  0.00000000000E+00 0. -1.
         -5    1    5    5    0  502  0.33156173793E+02 -0.25384798825E+02 -0.74790431446E+02  0.85787053265E+02  0.47000000000E+01 0.  1.
         13    1    6    6    0    0  0.76905259871E+01  0.21409630338E+02  0.45420047908E+02  0.50798594598E+02  0.00000000000E+00 0. -1.
        -14    1    6    6    0    0  0.47228384469E+02  0.44610074619E+02 -0.21050042069E+02  0.68291165814E+02  0.00000000000E+00 0.  1.
</event>
<event>
12    1  0.8135779E-002  0.1752979E+03  0.7818608E-02  0.1172506E+00
         21   -1    0    0  501  502  0.00000000000E+00  0.00000000000E+00  0.92173634608E+02  0.92173634608E+02  0.00000000000E+00 0. -1.
         21   -1    0    0  502  503 -0.00000000000E+00 -0.00000000000E+00 -0.64746603255E+03  0.64746603255E+03  0.00000000000E+00 0. -1.
         -6    2    1    2    0  503  0.35380800839E+02 -0.12036400921E+02 -0.53532799431E+03  0.56320857665E+03  0.17097123531E+03 0.  0.
        -24    2    3    3    0    0  0.23205677983E+02  0.58622384779E+02 -0.26320334314E+03  0.28175731375E+03  0.78333240220E+02 0.  0.
          6    2    1    2  501    0 -0.35380800839E+02  0.12036400921E+02 -0.19964403632E+02  0.17643109051E+03  0.17126784950E+03 0.  0.
         24    2    5    5    0    0  0.85823852607E+01 -0.51570515820E+01  0.46070559870E+02  0.95122524258E+02  0.82616860366E+02 0.  0.
          5    1    5    5  501    0 -0.43963186100E+02  0.17193452503E+02 -0.66034963503E+02  0.81308566251E+02  0.47000000000E+01 0. -1.
        -13    1    6    6    0    0  0.39533405507E+02 -0.13432689328E+02  0.35792126048E+01  0.41906300916E+02  0.00000000000E+00 0.  1.
         14    1    6    6    0    0 -0.30951020246E+02  0.82756377463E+01  0.42491347266E+02  0.53216223342E+02  0.00000000000E+00 0. -1.
         -5    1    3    3    0  503  0.12175122856E+02 -0.70658785700E+02 -0.27212465117E+03  0.28145126290E+03  0.47000000000E+01 0.  1.
         11    1    4    4    0    0  0.40030299575E+01  0.65858760324E+02 -0.24685436143E+03  0.25552001158E+03  0.00000000000E+00 0. -1.
        -12    1    4    4    0    0  0.19202648026E+02 -0.72363755454E+01 -0.16348981711E+02  0.26237302171E+02  0.00000000000E+00 0.  1.
</event>
<event>
12    1  0.8135779E-002  0.2375900E+03  0.7818608E-02  0.1121675E+00
         21   -1    0    0  503  502  0.00000000000E+00  0.00000000000E+00  0.17777334513E+03  0.17777334513E+03  0.00000000000E+00 0.  1.
         21   -1    0    0  501  503 -0.00000000000E+00 -0.00000000000E+00 -0.45034844002E+03  0.45034844002E+03  0.00000000000E+00 0. -1.
          6    2    1    2  501    0 -0.39818347409E+02 -0.15736897786E+03 -0.30849939251E+03  0.38938527084E+03  0.17348924458E+03 0.  0.
         24    2    3    3    0    0 -0.89895948589E+02 -0.93261332286E+02 -0.16620610186E+03  0.22541263006E+03  0.80046410420E+02 0.  0.
         -6    2    1    2    0  502  0.39818347409E+02  0.15736897786E+03  0.35924297626E+02  0.23873651431E+03  0.17133030124E+03 0.  0.
        -24    2    5    5    0    0 -0.40090286352E+02  0.11298321619E+03  0.26859029444E+02  0.14675958962E+03  0.80277839297E+02 0.  0.
          5    1    3    3  501    0  0.50077601180E+02 -0.64107645576E+02 -0.14229329065E+03  0.16397264079E+03  0.47000000000E+01 0. -1.
        -11    1    4    4    0    0 -0.48972927753E+02 -0.77821802353E+01 -0.93970983571E+02  0.10625185050E+03  0.00000000000E+00 0.  1.
         12    1    4    4    0    0 -0.40923020835E+02 -0.85479152051E+02 -0.72235118288E+02  0.11916077955E+03  0.00000000000E+00 0. -1.
         -5    1    5    5    0  502  0.79908633761E+02  0.44385761672E+02  0.90652681824E+01  0.91976924693E+02  0.47000000000E+01 0.  1.
         11    1    6    6    0    0 -0.54582430616E+02  0.37408315534E+02  0.31823654446E+01  0.66247650923E+02  0.00000000000E+00 0. -1.
        -12    1    6    6    0    0  0.14492144263E+02  0.75574900656E+02  0.23676663999E+02  0.80511938697E+02  0.00000000000E+00 0.  1.
</event>
<event>
12    1  0.8135779E-002  0.1752200E+03  0.7818608E-02  0.1172551E+00
         21   -1    0    0  501  502  0.00000000000E+00  0.00000000000E+00  0.29834455611E+03  0.29834455611E+03  0.00000000000E+00 0. -1.
         21   -1    0    0  502  503 -0.00000000000E+00 -0.00000000000E+00 -0.16684875471E+03  0.16684875471E+03  0.00000000000E+00 0. -1.
         -6    2    1    2    0  503  0.19184906333E+02  0.18768194637E+02 -0.78364306776E+02  0.19180108910E+03  0.17299244909E+03 0.  0.
        -24    2    3    3    0    0 -0.15227146453E+02  0.75060216346E+02 -0.57824638559E+02  0.12254107859E+03  0.76201870385E+02 0.  0.
          6    2    1    2  501    0 -0.19184906333E+02 -0.18768194637E+02  0.20986010817E+03  0.27339222172E+03  0.17315234949E+03 0.  0.
         24    2    5    5    0    0  0.25094777550E+02  0.44859309103E+02  0.13658051587E+03  0.16661610883E+03  0.80402642563E+02 0.  0.
          5    1    5    5  501    0 -0.44279683884E+02 -0.63627503740E+02  0.73279592301E+02  0.10677611289E+03  0.47000000000E+01 0. -1.
        -11    1    6    6    0    0 -0.18403183065E+01  0.57824653882E+02  0.11799877851E+03  0.13141837428E+03  0.00000000000E+00 0.  1.
         12    1    6    6    0    0  0.26935095857E+02 -0.12965344778E+02  0.18581737364E+02  0.35197734551E+02  0.00000000000E+00 0. -1.
         -5    1    3    3    0  503  0.34412052787E+02 -0.56292021709E+02 -0.20539668218E+02  0.69260010508E+02  0.47000000000E+01 0.  1.
         11    1    4    4    0    0  0.20254906932E+02  0.22117460619E+02  0.78753375559E+01  0.31007487171E+02  0.00000000000E+00 0. -1.
        -12    1    4    4    0    0 -0.35482053385E+02  0.52942755727E+02 -0.65699976114E+02  0.91533591418E+02  0.00000000000E+00 0.  1.
</event>
<event>
12    1  0.8135779E-002  0.2141453E+03  0.7818608E-02  0.1138458E+00
         21   -1    0    0  501  502  0.00000000000E+00  0.00000000000E+00  0.12741048604E+04  0.12741048604E+04  0.00000000000E+00 0.  1.
         21   -1    0    0  502  503 -0.00000000000E+00 -0.00000000000E+00 -0.54403156003E+02  0.54403156003E+02  0.00000000000E+00 0. -1.
         -6    2    1    2    0  503  0.10307531284E+03  0.73519092298E+02  0.22157532723E+03  0.30766793501E+03  0.17185562413E+03 0.  0.
        -24    2    3    3    0    0  0.94072329190E+02  0.11357595794E+03  0.20019810249E+03  0.26114179250E+03  0.79791316616E+02 0.  0.
          6    2    1    2  501    0 -0.10307531284E+03 -0.73519092298E+02  0.99812637713E+03  0.10208400814E+04  0.17270966948E+03 0.  0.
         24    2    5    5    0    0  0.31677858048E+01  0.39284627946E+01  0.45201108949E+03  0.45910195982E+03  0.80219179725E+02 0.  0.
          5    1    5    5  501    0 -0.10624309865E+03 -0.77447555093E+02  0.54611528764E+03  0.56173812154E+03  0.47000000000E+01 0. -1.
        -13    1    6    6    0    0 -0.85617361606E+01 -0.31403555947E+02  0.32832950045E+03  0.32993900575E+03  0.00000000000E+00 0.  1.
         14    1    6    6    0    0  0.11729521965E+02  0.35332018742E+02  0.12368158904E+03  0.12916295406E+03  0.00000000000E+00 0. -1.
         -5    1    3    3    0  503  0.90029836540E+01 -0.40056865639E+02  0.21377224738E+02  0.46526142512E+02  0.47000000000E+01 0.  1.
         11    1    4    4    0    0  0.80525434232E+02  0.68616239559E+02  0.18252651858E+03  0.21097029145E+03  0.00000000000E+00 0. -1.
        -12    1    4    4    0    0  0.13546894958E+02  0.44959718378E+02  0.17671583915E+02  0.50171501051E+02  0.00000000000E+00 0.  1.
</event>
<event>
12    1  0.8135779E-002  0.1819358E+03  0.7818608E-02  0.1167198E+00
         21   -1    0    0  501  502  0.00000000000E+00  0.00000000000E+00  0.46750050198E+03  0.46750050198E+03  0.00000000000E+00 0. -1.
         21   -1    0    0  502  503 -0.00000000000E+00 -0.00000000000E+00 -0.75030561232E+02  0.75030561232E+02  0.00000000000E+00 0. -1.
         -6    2    1    2    0  503  0.75411537229E+01 -0.44722170569E+02  0.27178901685E+03  0.32420897431E+03  0.17083690409E+03 0.  0.
        -24    2    3    3    0    0 -0.46477163047E+02  0.11174848338E+02  0.19037397408E+03  0.21154596148E+03  0.78895119572E+02 0.  0.
          6    2    1    2  501    0 -0.75411537229E+01  0.44722170569E+02  0.12068092390E+03  0.21832208891E+03  0.17619224606E+03 0.  0.
         24    2    5    5    0    0  0.49918260528E+02  0.72156401768E+02  0.77464562386E+02  0.14122497333E+03  0.79027562390E+02 0.  0.
          5    1    5    5  501    0 -0.57459414251E+02 -0.27434231198E+02  0.43216361511E+02  0.77097115574E+02  0.47000000000E+01 0. -1.
        -11    1    6    6    0    0  0.29128981740E+02  0.23275377895E+02 -0.10260022492E+02  0.38671809563E+02  0.00000000000E+00 0.  1.
         12    1    6    6    0    0  0.20789278788E+02  0.48881023873E+02  0.87724584878E+02  0.10255316377E+03  0.00000000000E+00 0. -1.
         -5    1    3    3    0  503  0.54018316769E+02 -0.55897018907E+02  0.81415042776E+02  0.11266301283E+03  0.47000000000E+01 0.  1.
         11    1    4    4    0    0  0.19273561491E+01  0.22199176742E+02  0.13641953710E+03  0.13822737881E+03  0.00000000000E+00 0. -1.
        -12    1    4    4    0    0 -0.48404519196E+02 -0.11024328404E+02  0.53954436976E+02  0.73318582670E+02  0.00000000000E+00 0.  1.
</event>
<event>
12    1  0.8135779E-002  0.2117871E+03  0.7818608E-02  0.1141013E+00
         21   -1    0    0  503  502  0.00000000000E+00  0.00000000000E+00  0.56983278180E+03  0.56983278180E+03  0.00000000000E+00 0.  1.
         21   -1    0    0  501  503 -0.00000000000E+00 -0.00000000000E+00 -0.91244077143E+02  0.91244077143E+02  0.00000000000E+00 0.  1.
          6    2    1    2  501    0  0.64193117521E+02 -0.97253767854E+02  0.11132759964E+03  0.23926473203E+03  0.17684661674E+03 0.  0.
         24    2    3    3    0    0  0.90255639028E+02 -0.88208623194E+02  0.30047743681E+02  0.15330209680E+03  0.81681236537E+02 0.  0.
         -6    2    1    2    0  502 -0.64193117521E+02  0.97253767854E+02  0.36726110502E+03  0.42181212692E+03  0.17165575860E+03 0.  0.
        -24    2    5    5    0    0  0.23750520412E+02  0.84642137585E+02  0.21581342070E+03  0.24616581254E+03  0.79333448389E+02 0.  0.
          5    1    3    3  501    0 -0.26062521507E+02 -0.90451446598E+01  0.81279855961E+02  0.85962635222E+02  0.47000000000E+01 0. -1.
        -13    1    4    4    0    0  0.54652879774E+02 -0.84598037289E+01 -0.11659124784E+02  0.56519383732E+02  0.00000000000E+00 0.  1.
         14    1    4    4    0    0  0.35602759254E+02 -0.79748819465E+02  0.41706868465E+02  0.96782713073E+02  0.00000000000E+00 0. -1.
         -5    1    5    5    0  502 -0.87943637933E+02  0.12611630269E+02  0.15144768432E+03  0.17564631439E+03  0.47000000000E+01 0.  1.
         13    1    6    6    0    0  0.32886907113E+02  0.93008812220E+02  0.15232699854E+03  0.18148196135E+03  0.00000000000E+00 0. -1.
        -14    1    6    6    0    0 -0.91363867002E+01 -0.83666746346E+01  0.63486422154E+02  0.64683851186E+02  0.00000000000E+00 0.  1.
</event>
<event>
12    1  0.8135779E-002  0.1753641E+03  0.7818608E-02  0.1174899E+00
         21   -1    0    0  501  502  0.00000000000E+00  0.00000000000E+00  0.24240238954E+03  0.24240238954E+03  0.00000000000E+00 0.  1.
         21   -1    0    0  502  503 -0.00000000000E+00 -0.00000000000E+00 -0.17072446263E+03  0.17072446263E+03  0.00000000000E+00 0.  1.
         -6    2    1    2    0  503  0.91623717503E+01 -0.36302799150E+02 -0.76143392282E+02  0.19118150656E+03  0.17132048908E+03 0.  0.
        -24    2    3    3    0    0 -0.10988810927E+02  0.44274874934E+02 -0.42704476225E+02  0.10152057398E+03  0.80010850112E+02 0.  0.
          6    2    1    2  501    0 -0.91623717503E+01  0.36302799150E+02  0.14782131919E+03  0.22194534562E+03  0.16126608990E+03 0.  0.
         24    2    5    5    0    0 -0.90083212033E+01  0.48348986541E+02  0.17143392575E+03  0.19502361553E+03  0.78904026289E+02 0.  0.
          5    1    5    5  501    0 -0.15405054698E+00 -0.12046187391E+02 -0.23612606563E+02  0.26921730088E+02  0.47000000000E+01 0. -1.
        -11    1    6    6    0    0  0.26125225086E+02 -0.70565411606E+01  0.43070768538E+02  0.50866622273E+02  0.00000000000E+00 0.  1.
         12    1    6    6    0    0 -0.35133546289E+02  0.55405527702E+02  0.12836315721E+03  0.14415699326E+03  0.00000000000E+00 0. -1.
         -5    1    3    3    0  503  0.20151182677E+02 -0.80577674084E+02 -0.33438916057E+02  0.89660932580E+02  0.47000000000E+01 0.  1.
         11    1    4    4    0    0 -0.39072188765E+02  0.10094697395E+01 -0.96547568840E+01  0.40260021045E+02  0.00000000000E+00 0. -1.
        -12    1    4    4    0    0  0.28083377838E+02  0.43265405194E+02 -0.33049719341E+02  0.61260552935E+02  0.00000000000E+00 0.  1.
</event>
<event>
12    1  0.8135779E-002  0.1981614E+03  0.7818608E-02  0.1151745E+00
         21   -1    0    0  501  502  0.00000000000E+00  0.00000000000E+00  0.11531811485E+03  0.11531811485E+03  0.00000000000E+00 0.  1.
         21   -1    0    0  502  503 -0.00000000000E+00 -0.00000000000E+00 -0.39685626849E+03  0.39685626849E+03  0.00000000000E+00 0.  1.
         -6    2    1    2    0  503 -0.97857221786E+02 -0.78182549512E+01 -0.24088450327E+03  0.31191869247E+03  0.17213589349E+03 0.  0.
        -24    2    3    3    0    0 -0.11221364530E+03  0.39766763151E+02 -0.19914236187E+03  0.24684229726E+03  0.84262339065E+02 0.  0.
          6    2    1    2  501    0  0.97857221786E+02  0.78182549512E+01 -0.40653650363E+02  0.20025569087E+03  0.16974233848E+03 0.  0.
         24    2    5    5    0    0  0.12511941933E+03 -0.30191748473E+02 -0.44183386782E+01  0.14090018912E+03  0.57157071367E+02 0.  0.
          5    1    5    5  501    0 -0.27262197544E+02  0.38010003424E+02 -0.36235311685E+02  0.59355501751E+02  0.47000000000E+01 0. -1.
        -13    1    6    6    0    0  0.11489340729E+03 -0.10768892955E+02  0.80116112632E+01  0.11567475960E+03  0.00000000000E+00 0.  1.
         14    1    6    6    0    0  0.10226012042E+02 -0.19422855518E+02 -0.12429949941E+02  0.25225429517E+02  0.00000000000E+00 0. -1.
         -5    1    3    3    0  503  0.14356423513E+02 -0.47585018102E+02 -0.41742141402E+02  0.65076395204E+02  0.47000000000E+01 0.  1.
         13    1    4    4    0    0  0.44266971422E+01  0.15760303947E+02 -0.19560134688E+01  0.16486625391E+02  0.00000000000E+00 0. -1.
        -14    1    4    4    0    0 -0.11664034244E+03  0.24006459204E+02 -0.19718634840E+03  0.23035567187E+03  0.00000000000E+00 0.  1.
</event>
<event>
12    1  0.8135779E-002  0.2134096E+03  0.7818608E-02  0.1141557E+00
         21   -1    0    0  501  502  0.00000000000E+00  0.00000000000E+00  0.59492420881E+03  0.59492420881E+03  0.00000000000E+00 0.  1.
         21   -1    0    0  502  503 -0.00000000000E+00 -0.00000000000E+00 -0.16342513382E+03  0.16342513382E+03  0.00000000000E+00 0.  1.
         -6    2    1    2    0  503 -0.10086072005E+03  0.82828438587E+01 -0.64952619304E+02  0.22307507897E+03  0.18788868447E+03 0.  0.
        -24    2    3    3    0    0 -0.44209920635E+02 -0.30312356520E+02  0.34848564695E+02  0.10190879285E+03  0.79357567740E+02 0.  0.
          6    2    1    2  501    0  0.10086072005E+03 -0.82828438587E+01  0.49645169430E+03  0.53527426365E+03  0.17266372580E+03 0.  0.
         24    2    5    5    0    0  0.34911034092E+02  0.47301709236E+02  0.36199852843E+03  0.37546579256E+03  0.80469837834E+02 0.  0.
          5    1    5    5  501    0  0.65949685953E+02 -0.55584553094E+02  0.13445316587E+03  0.15980847109E+03  0.47000000000E+01 0. -1.
        -11    1    6    6    0    0  0.46972641833E+02  0.30918174280E+01  0.25106020985E+03  0.25543534874E+03  0.00000000000E+00 0.  1.
         12    1    6    6    0    0 -0.12061607741E+02  0.44209891808E+02  0.11093831858E+03  0.12003044382E+03  0.00000000000E+00 0. -1.
         -5    1    3    3    0  503 -0.56650799410E+02  0.38595200379E+02 -0.99801183999E+02  0.12116628613E+03  0.47000000000E+01 0.  1.
         11    1    4    4    0    0 -0.62960734624E+02 -0.98585329862E+01  0.37651694364E+02  0.74019557317E+02  0.00000000000E+00 0. -1.
        -12    1    4    4    0    0  0.18750813989E+02 -0.20453823534E+02 -0.28031296694E+01  0.27889235528E+02  0.00000000000E+00 0.  1.
</event>
<event>
12    1  0.8135779E-002  0.2439495E+03  0.7818608E-02  0.1117195E+00
         21   -1    0    0  501  502  0.00000000000E+00  0.00000000000E+00  0.44552917420E+02  0.44552917420E+02  0.00000000000E+00 0.  1.
         21   -1    0    0  502  503 -0.00000000000E+00 -0.00000000000E+00 -0.28502326853E+04  0.28502326853E+04  0.00000000000E+00 0.  1.
         -6    2    1    2    0  503  0.15040058362E+03 -0.85748976767E+02 -0.24580132126E+04  0.24700891301E+04  0.17186662043E+03 0.  0.
        -24    2    3    3    0    0  0.44965411050E+02  0.19288956712E+02 -0.79032469283E+03  0.79576639187E+03  0.78975175197E+02 0.  0.
          6    2    1    2  501    0 -0.15040058362E+03  0.85748976767E+02 -0.34766655538E+03  0.42469647262E+03  0.17181920021E+03 0.  0.
         24    2    5    5    0    0 -0.51451040062E+01  0.33198790222E+02 -0.93010307565E+02  0.12681634403E+03  0.79390402641E+02 0.  0.
          5    1    5    5  501    0 -0.14525547961E+03  0.52550186545E+02 -0.25465624781E+03  0.29788012860E+03  0.47000000000E+01 0. -1.
        -13    1    6    6    0    0 -0.68455534678E+01  0.59428600777E+02 -0.67382160246E+02  0.90105358952E+02  0.00000000000E+00 0.  1.
         14    1    6    6    0    0  0.17004494616E+01 -0.26229810555E+02 -0.25628147320E+02  0.36710985075E+02  0.00000000000E+00 0. -1.
         -5    1    3    3    0  503  0.10543517257E+03 -0.10503793348E+03 -0.16676885197E+04  0.16743227383E+04  0.47000000000E+01 0.  1.
         11    1    4    4    0    0  0.62532160429E+02  0.31824874068E+02 -0.65260734423E+03  0.65636837175E+03  0.00000000000E+00 0. -1.
        -12    1    4    4    0    0 -0.17566749379E+02 -0.12535917356E+02 -0.13771734860E+03  0.13939802012E+03  0.00000000000E+00 0.  1.
</event>
<event>
12    1  0.8135779E-002  0.2145457E+03  0.7818608E-02  0.1138075E+00
         21   -1    0    0  501  502  0.00000000000E+00  0.00000000000E+00  0.43786798135E+03  0.43786798135E+03  0.00000000000E+00 0. -1.
         21   -1    0    0  502  503 -0.00000000000E+00 -0.00000000000E+00 -0.11230998905E+03  0.11230998905E+03  0.00000000000E+00 0. -1.
         -6    2    1    2    0  503  0.38943120333E+01 -0.12717021572E+03  0.92363159641E+02  0.23330306662E+03  0.17237151215E+03 0.  0.
        -24    2    3    3    0    0  0.28222035925E+02 -0.14912892030E+03  0.49233647570E+02  0.17893149622E+03  0.80972897337E+02 0.  0.
          6    2    1    2  501    0 -0.38943120333E+01  0.12717021572E+03  0.23319483267E+03  0.31687490378E+03  0.17274966058E+03 0.  0.
         24    2    5    5    0    0 -0.11747429040E+02  0.62468676903E+01  0.14552946867E+03  0.16723722941E+03  0.81316906019E+02 0.  0.
          5    1    5    5  501    0  0.78531170063E+01  0.12092334803E+03  0.87665363993E+02  0.14963767437E+03  0.47000000000E+01 0. -1.
        -13    1    6    6    0    0 -0.24463706602E+02  0.39434795571E+02  0.73648651874E+02  0.87049985441E+02  0.00000000000E+00 0.  1.
         14    1    6    6    0    0  0.12716277562E+02 -0.33187927881E+02  0.71880816799E+02  0.80187243972E+02  0.00000000000E+00 0. -1.
         -5    1    3    3    0  503 -0.24327723892E+02  0.21958704578E+02  0.43129512071E+02  0.54371570402E+02  0.47000000000E+01 0.  1.
         11    1    4    4    0    0 -0.91357314698E+01 -0.11630909381E+03  0.54795772306E+02  0.12889469948E+03  0.00000000000E+00 0. -1.
        -12    1    4    4    0    0  0.37357767395E+02 -0.32819826491E+02 -0.55621247359E+01  0.50036796733E+02  0.00000000000E+00 0.  1.
</event>
<event>
12    1  0.8135779E-002  0.2517224E+03  0.7818608E-02  0.1112373E+00
         21   -1    0    0  503  502  0.00000000000E+00  0.00000000000E+00  0.38338197081E+03  0.38338197081E+03  0.00000000000E+00 0. -1.
         21   -1    0    0  501  503 -0.00000000000E+00 -0.00000000000E+00 -0.38927389385E+03  0.38927389385E+03  0.00000000000E+00 0. -1.
          6    2    1    2  501    0 -0.13256134481E+03  0.12495772850E+03 -0.29641437740E+03  0.38825055781E+03  0.17230806267E+03 0.  0.
         24    2    3    3    0    0 -0.12402123059E+03  0.14445001843E+03 -0.19296379900E+03  0.28252924922E+03  0.79628358524E+02 0.  0.
         -6    2    1    2    0  502  0.13256134481E+03 -0.12495772850E+03  0.29052245436E+03  0.38440530685E+03  0.17371585821E+03 0.  0.
        -24    2    5    5    0    0  0.12104303936E+02 -0.99583319624E+02  0.13238555473E+03  0.18394800879E+03  0.79041654296E+02 0.  0.
          5    1    3    3  501    0 -0.85401142140E+01 -0.19492289928E+02 -0.10345057840E+03  0.10572130859E+03  0.47000000000E+01 0. -1.
        -11    1    4    4    0    0 -0.15062273922E+02  0.74863068135E+02 -0.83226512468E+02  0.11295133219E+03  0.00000000000E+00 0.  1.
         12    1    4    4    0    0 -0.10895895667E+03  0.69586950294E+02 -0.10973728653E+03  0.16957791703E+03  0.00000000000E+00 0. -1.
         -5    1    5    5    0  502  0.12045704087E+03 -0.25374408877E+02  0.15813689963E+03  0.20045729806E+03  0.47000000000E+01 0.  1.
         13    1    6    6    0    0  0.27487132710E+02 -0.51111535150E+02  0.11735306129E+03  0.13091857196E+03  0.00000000000E+00 0. -1.
        -14    1    6    6    0    0 -0.15382828774E+02 -0.48471784474E+02  0.15032493444E+02  0.53029436829E+02  0.00000000000E+00 0.  1.
</event>
<event>
12    1  0.8135779E-002  0.1868695E+03  0.7818608E-02  0.1162382E+00
         21   -1    0    0  503  502  0.00000000000E+00  0.00000000000E+00  0.21347780434E+03  0.21347780434E+03  0.00000000000E+00 0. -1.
         21   -1    0    0  501  503 -0.00000000000E+00 -0.00000000000E+00 -0.16421004331E+03  0.16421004331E+03  0.00000000000E+00 0.  1.
          6    2    1    2  501    0  0.27031917699E+02  0.63064230727E+02  0.55959155928E+02  0.19069860185E+03  0.16889851345E+03 0.  0.
         24    2    3    3    0    0  0.56414284986E+02 -0.13498550269E+01  0.66300274976E+02  0.11899416200E+03  0.81114058400E+02 0.  0.
         -6    2    1    2    0  502 -0.27031917699E+02 -0.63064230727E+02 -0.66913948990E+01  0.18698924580E+03  0.17381709210E+03 0.  0.
        -24    2    5    5    0    0 -0.42650730998E+02 -0.21421803550E+02  0.56440182872E+02  0.10962177730E+03  0.80953451398E+02 0.  0.
          5    1    3    3  501    0 -0.29382367288E+02  0.64414085754E+02 -0.10341119048E+02  0.71704439850E+02  0.47000000000E+01 0. -1.
        -11    1    4    4    0    0  0.59943236633E+02 -0.11746314618E+02  0.10321856475E+02  0.61949239271E+02  0.00000000000E+00 0.  1.
         12    1    4    4    0    0 -0.35289516465E+01  0.10396459591E+02  0.55978418501E+02  0.57044922733E+02  0.00000000000E+00 0. -1.
         -5    1    5    5    0  502  0.15618813299E+02 -0.41642427177E+02 -0.63131577771E+02  0.77367468499E+02  0.47000000000E+01 0.  1.
         13    1    6    6    0    0 -0.58429664436E+01 -0.25157714057E+02  0.66451649469E+02  0.71294267306E+02  0.00000000000E+00 0. -1.
        -14    1    6    6    0    0 -0.36807764554E+02  0.37359105071E+01 -0.10011466597E+02  0.38327509992E+02  0.00000000000E+00 0.  1.
</event>
<event>
12    1  0.8135779E-002  0.1950024E+03  0.7818608E-02  0.1154421E+00
         21   -1    0    0  503  502  0.00000000000E+00  0.00000000000E+00  0.74839394098E+02  0.74839394098E+02  0.00000000000E+00 0. -1.
         21   -1    0    0  501  503 -0.00000000000E+00 -0.00000000000E+00 -0.56916582747E+03  0.56916582747E+03  0.00000000000E+00 0. -1.
          6    2    1    2  501    0 -0.85740369859E+02  0.14204752789E+01 -0.35559726187E+03  0.40469010212E+03  0.17312203017E+03 0.  0.
         24    2    3    3    0    0 -0.50497048558E+02  0.29777194268E+02 -0.85058215948E+02  0.13035515980E+03  0.79504304127E+02 0.  0.
         -6    2    1    2    0  502  0.85740369859E+02 -0.14204752789E+01 -0.13872917150E+03  0.23931511945E+03  0.17513570338E+03 0.  0.
        -24    2    5    5    0    0  0.11553495136E+03  0.36928420742E+02 -0.11343225824E+03  0.18435714702E+03  0.80054026777E+02 0.  0.
          5    1    3    3  501    0 -0.35243321300E+02 -0.28356718989E+02 -0.27053904592E+03  0.27433494232E+03  0.47000000000E+01 0. -1.
        -13    1    4    4    0    0  0.11880713301E+02 -0.98932410903E+01  0.26105331001E+01  0.15679363855E+02  0.00000000000E+00 0.  1.
         14    1    4    4    0    0 -0.62377761860E+02  0.39670435358E+02 -0.87668749048E+02  0.11467579595E+03  0.00000000000E+00 0. -1.
         -5    1    5    5    0  502 -0.29794581504E+02 -0.38348896021E+02 -0.25296913263E+02  0.54957972431E+02  0.47000000000E+01 0.  1.
         13    1    6    6    0    0  0.14244598791E+02  0.29911568174E+02 -0.13978824262E+01  0.33159683060E+02  0.00000000000E+00 0. -1.
        -14    1    6    6    0    0  0.10129035257E+03  0.70168525684E+01 -0.11203437582E+03  0.15119746396E+03  0.00000000000E+00 0.  1.
</event>
<event>
12    1  0.8135779E-002  0.1731513E+03  0.7818608E-02  0.1174836E+00
         21   -1    0    0  501  502  0.00000000000E+00  0.00000000000E+00  0.39136355228E+02  0.39136355228E+02  0.00000000000E+00 0.  1.
         21   -1    0    0  502  503 -0.00000000000E+00 -0.00000000000E+00 -0.80590459745E+03  0.80590459745E+03  0.00000000000E+00 0.  1.
         -6    2    1    2    0  503 -0.99294045165E+01 -0.84748433674E+01 -0.28573380584E+03  0.33410356256E+03  0.17265852621E+03 0.  0.
        -24    2    3    3    0    0 -0.55949666328E+02  0.49334025549E+02 -0.19617511905E+03  0.21790296789E+03  0.58590228216E+02 0.  0.
          6    2    1    2  501    0  0.99294045165E+01  0.84748433674E+01 -0.48103443638E+03  0.51093739011E+03  0.17173372292E+03 0.  0.
         24    2    5    5    0    0 -0.51202689036E+02 -0.26737591043E+02 -0.32850726656E+03  0.34281934845E+03  0.79192596557E+02 0.  0.
          5    1    5    5  501    0  0.61132093553E+02  0.35212434410E+02 -0.15252716982E+03  0.16811804166E+03  0.47000000000E+01 0. -1.
        -11    1    6    6    0    0 -0.31997536573E+02  0.17359611253E+02 -0.23360719212E+03  0.23642656082E+03  0.00000000000E+00 0.  1.
         12    1    6    6    0    0 -0.19205152463E+02 -0.44097202296E+02 -0.94900074438E+02  0.10639278763E+03  0.00000000000E+00 0. -1.
         -5    1    3    3    0  503  0.46020261811E+02 -0.57808868916E+02 -0.89558686788E+02  0.11620059467E+03  0.47000000000E+01 0.  1.
         13    1    4    4    0    0 -0.65054685827E+02  0.30567503826E+02 -0.13037926948E+03  0.14887994610E+03  0.00000000000E+00 0. -1.
        -14    1    4    4    0    0  0.91050194992E+01  0.18766521723E+02 -0.65795849570E+02  0.69023021799E+02  0.00000000000E+00 0.  1.
</event>
<event>
12    1  0.8135779E-002  0.2989173E+03  0.7818608E-02  0.1085816E+00
         21   -1    0    0  501  502  0.00000000000E+00  0.00000000000E+00  0.91485471651E+03  0.91485471651E+03  0.00000000000E+00 0.  1.
         21   -1    0    0  502  503 -0.00000000000E+00 -0.00000000000E+00 -0.15824427149E+03  0.15824427149E+03  0.00000000000E+00 0.  1.
         -6    2    1    2    0  503 -0.16536379804E+03  0.18025026192E+03  0.45996196594E+02  0.30217474894E+03  0.17134347427E+03 0.  0.
        -24    2    3    3    0    0 -0.11527837697E+03  0.35271701096E+02  0.11604241327E+02  0.14490991152E+03  0.79567750663E+02 0.  0.
          6    2    1    2  501    0  0.16536379804E+03 -0.18025026192E+03  0.71061424843E+03  0.77092423905E+03  0.17180288025E+03 0.  0.
         24    2    5    5    0    0  0.10816116692E+03 -0.46283713543E+02  0.46104915435E+03  0.48191904312E+03  0.76410871148E+02 0.  0.
          5    1    5    5  501    0  0.57202631117E+02 -0.13396654837E+03  0.24956509408E+03  0.28900519593E+03  0.47000000000E+01 0. -1.
        -11    1    6    6    0    0  0.42689483710E+02 -0.42907814835E+02  0.11752635586E+03  0.13219650871E+03  0.00000000000E+00 0.  1.
         12    1    6    6    0    0  0.65471683214E+02 -0.33758987077E+01  0.34352279849E+03  0.34972253441E+03  0.00000000000E+00 0. -1.
         -5    1    3    3    0  503 -0.50085421069E+02  0.14497856082E+03  0.34391955267E+02  0.15726483742E+03  0.47000000000E+01 0.  1.
         11    1    4    4    0    0 -0.11688687430E+03  0.19213410860E+02  0.28194754832E+02  0.12176469415E+03  0.00000000000E+00 0. -1.
        -12    1    4    4    0    0  0.16084973309E+01  0.16058290236E+02 -0.16590513505E+02  0.23145217375E+02  0.00000000000E+00 0.  1.
</event>
<event>
12    1  0.8135779E-002  0.2150895E+03  0.7818608E-02  0.1137906E+00
         21   -1    0    0  501  502  0.00000000000E+00  0.00000000000E+00  0.76612075935E+03  0.76612075935E+03  0.00000000000E+00 0.  1.
         21   -1    0    0  502  503 -0.00000000000E+00 -0.00000000000E+00 -0.97939856876E+02  0.97939856876E+02  0.00000000000E+00 0. -1.
         -6    2    1    2    0  503  0.96725084676E+02  0.83863050521E+02  0.65742210668E+02  0.22491231197E+03  0.17284315596E+03 0.  0.
        -24    2    3    3    0    0  0.46290333659E+02  0.16464870908E+02 -0.27121514304E+02  0.99485280826E+02  0.82145344351E+02 0.  0.
          6    2    1    2  501    0 -0.96725084676E+02 -0.83863050521E+02  0.60243869181E+03  0.63914830426E+03  0.17084912702E+03 0.  0.
         24    2    5    5    0    0 -0.16823992734E+02 -0.10207387509E+03  0.40200214093E+03  0.42255486125E+03  0.79023836594E+02 0.  0.
          5    1    5    5  501    0 -0.79901091942E+02  0.18210824569E+02  0.20043655088E+03  0.21659344301E+03  0.47000000000E+01 0. -1.
        -11    1    6    6    0    0 -0.22451138606E+02  0.35911097193E+01  0.99983501708E+02  0.10253609271E+03  0.00000000000E+00 0.  1.
         12    1    6    6    0    0  0.56271458723E+01 -0.10566498481E+03  0.30201863922E+03  0.32001876855E+03  0.00000000000E+00 0. -1.
         -5    1    3    3    0  503  0.50434751017E+02  0.67398179613E+02  0.92863724972E+02  0.12542703114E+03  0.47000000000E+01 0.  1.
         11    1    4    4    0    0  0.51746689945E+02  0.41492374002E+02 -0.65842869762E+01  0.66653505952E+02  0.00000000000E+00 0. -1.
        -12    1    4    4    0    0 -0.54563562864E+01 -0.25027503094E+02 -0.20537227328E+02  0.32831774874E+02  0.00000000000E+00 0.  1.
</event>
<event>
12    1  0.8135779E-002  0.2284334E+03  0.7818608E-02  0.1127869E+00
         21   -1    0    0  503  502  0.00000000000E+00  0.00000000000E+00  0.45964107599E+02  0.45964107599E+02  0.00000000000E+00 0. -1.
         21   -1    0    0  501  503 -0.00000000000E+00 -0.00000000000E+00 -0.14384080495E+04  0.14384080495E+04  0.00000000000E+00 0.  1.
          6    2    1    2  501    0  0.14961303863E+03  0.32868901748E+01 -0.10396677279E+04  0.10644673791E+04  0.17258896764E+03 0.  0.
         24    2    3    3    0    0  0.48126384121E+02 -0.71391035205E+02 -0.40062732065E+03  0.41310644561E+03  0.52362740502E+02 0.  0.
         -6    2    1    2    0  502 -0.14961303863E+03 -0.32868901748E+01 -0.35277621394E+03  0.41990477794E+03  0.17168022729E+03 0.  0.
        -24    2    5    5    0    0 -0.15261424494E+02 -0.32864208226E+02 -0.10512420959E+03  0.13656967736E+03  0.79291929425E+02 0.  0.
          5    1    3    3  501    0  0.10148665451E+03  0.74677925380E+02 -0.63904040726E+03  0.65136093351E+03  0.47000000000E+01 0. -1.
        -13    1    4    4    0    0  0.34398629618E+02 -0.24908917583E+02 -0.27839460284E+03  0.28161547327E+03  0.00000000000E+00 0.  1.
         14    1    4    4    0    0  0.13727754503E+02 -0.46482117623E+02 -0.12223271781E+03  0.13149097234E+03  0.00000000000E+00 0. -1.
         -5    1    5    5    0  502 -0.13435161413E+03  0.29577318051E+02 -0.24765200435E+03  0.28333510058E+03  0.47000000000E+01 0.  1.
         13    1    6    6    0    0  0.19322686869E+01 -0.16760299534E+02  0.96273988268E+01  0.19424935288E+02  0.00000000000E+00 0. -1.
        -14    1    6    6    0    0 -0.17193693181E+02 -0.16103908692E+02 -0.11475160842E+03  0.11714474207E+03  0.00000000000E+00 0.  1.
</event>
<event>
12    1  0.8135779E-002  0.2060478E+03  0.7818608E-02  0.1145460E+00
         21   -1    0    0  503  502  0.00000000000E+00  0.00000000000E+00  0.96243760688E+02  0.96243760688E+02  0.00000000000E+00 0.  1.
         21   -1    0    0  501  503 -0.00000000000E+00 -0.00000000000E+00 -0.61124191138E+03  0.61124191138E+03  0.00000000000E+00 0.  1.
          6    2    1    2  501    0 -0.97603382379E+02 -0.45759775081E+02 -0.44662445246E+03  0.49038972817E+03  0.17143018022E+03 0.  0.
         24    2    3    3    0    0 -0.95373094088E+02 -0.93071475468E+02 -0.34788758908E+03  0.38077937569E+03  0.78796140106E+02 0.  0.
         -6    2    1    2    0  502  0.97603382379E+02  0.45759775081E+02 -0.68373698229E+02  0.21709594390E+03  0.17559985473E+03 0.  0.
        -24    2    5    5    0    0  0.58121468524E+02 -0.39670801525E+02 -0.11393946999E+02  0.10697788457E+03  0.79765707927E+02 0.  0.
          5    1    3    3  501    0 -0.22302882909E+01  0.47311700388E+02 -0.98736863388E+02  0.10961035248E+03  0.47000000000E+01 0. -1.
        -13    1    4    4    0    0 -0.59063623755E+02 -0.16074521226E+02 -0.20991724867E+03  0.21865990299E+03  0.00000000000E+00 0.  1.
         14    1    4    4    0    0 -0.36309470333E+02 -0.76996954243E+02 -0.13797034040E+03  0.16211947270E+03  0.00000000000E+00 0. -1.
         -5    1    5    5    0  502  0.39481913855E+02  0.85430576606E+02 -0.56979751231E+02  0.11011805933E+03  0.47000000000E+01 0.  1.
         11    1    6    6    0    0 -0.73527140454E+00  0.10863023824E+02 -0.25866892548E+02  0.28064961085E+02  0.00000000000E+00 0. -1.
        -12    1    6    6    0    0  0.58856739929E+02 -0.50533825349E+02  0.14472945549E+02  0.78912923481E+02  0.00000000000E+00 0.  1.
</event>
<event>
12    1  0.8135779E-002  0.1838916E+03  0.7818608E-02  0.1167794E+00
         21   -1    0    0  501  502  0.00000000000E+00  0.00000000000E+00  0.28189314793E+04  0.28189314793E+04  0.00000000000E+00 0. -1.
         21   -1    0    0  502  503 -0.00000000000E+00 -0.00000000000E+00 -0.29759451205E+02  0.29759451205E+02  0.00000000000E+00 0. -1.
         -6    2    1    2    0  503  0.11223172895E+02  0.62828184238E+01  0.28719883611E+03  0.34102683049E+03  0.18344125553E+03 0.  0.
        -24    2    3    3    0    0  0.30683594973E+02  0.66730552001E+02  0.12132112205E+03  0.16334694265E+03  0.81049117482E+02 0.  0.
          6    2    1    2  501    0 -0.11223172895E+02 -0.62828184238E+01  0.25019731920E+04  0.25076641000E+04  0.16835662058E+03 0.  0.
         24    2    5    5    0    0  0.38669198966E+01  0.60973323971E+02  0.15287560357E+04  0.15319977519E+04  0.78672713121E+02 0.  0.
          5    1    5    5  501    0 -0.15090092791E+02 -0.67256142394E+02  0.97321715624E+03  0.97566634809E+03  0.47000000000E+01 0. -1.
        -11    1    6    6    0    0 -0.22117343451E+02  0.39838487881E+02  0.37537717298E+03  0.37813265396E+03  0.00000000000E+00 0.  1.
         12    1    6    6    0    0  0.25984263347E+02  0.21134836090E+02  0.11533788627E+04  0.11538650979E+04  0.00000000000E+00 0. -1.
         -5    1    3    3    0  503 -0.19460422079E+02 -0.60447733577E+02  0.16587771406E+03  0.17767988784E+03  0.47000000000E+01 0.  1.
         11    1    4    4    0    0  0.44265714765E+02  0.34936162734E+02  0.26283574723E+02  0.62215876354E+02  0.00000000000E+00 0. -1.
        -12    1    4    4    0    0 -0.13582119791E+02  0.31794389267E+02  0.95037547330E+02  0.10113106629E+03  0.00000000000E+00 0.  1.
</event>
<event>
12    1  0.8135779E-002  0.5399941E+03  0.7818608E-02  0.1003853E+00
         21   -1    0    0  501  502  0.00000000000E+00  0.00000000000E+00  0.55711048449E+03  0.55711048449E+03  0.00000000000E+00 0. -1.
         21   -1    0    0  502  503 -0.00000000000E+00 -0.00000000000E+00 -0.52676912978E+03  0.52676912978E+03  0.00000000000E+00 0.  1.
         -6    2    1    2    0  503  0.59230619620E+02  0.50797699653E+03 -0.29781312133E+02  0.54081470886E+03  0.17333414973E+03 0.  0.
        -24    2    3    3    0    0  0.22227666250E+02  0.11318394874E+03 -0.36164182154E+02  0.14421213679E+03  0.78642335467E+02 0.  0.
          6    2    1    2  501    0 -0.59230619620E+02 -0.50797699653E+03  0.60122666840E+02  0.54306490540E+03  0.17249887276E+03 0.  0.
         24    2    5    5    0    0  0.36638468097E+00 -0.27644354470E+03 -0.25195088170E+02  0.28917368547E+03  0.81027527761E+02 0.  0.
          5    1    5    5  501    0 -0.59597004301E+02 -0.23153345183E+03  0.85317755010E+02  0.25389121993E+03  0.47000000000E+01 0. -1.
        -13    1    6    6    0    0 -0.29216559867E+02 -0.42989780026E+02 -0.12777485360E+02  0.53525626473E+02  0.00000000000E+00 0.  1.
         14    1    6    6    0    0  0.29582944548E+02 -0.23345376467E+03 -0.12417602810E+02  0.23564805900E+03  0.00000000000E+00 0. -1.
         -5    1    3    3    0  503  0.37002953371E+02  0.39479304779E+03  0.63828700206E+01  0.39660257207E+03  0.47000000000E+01 0.  1.
         11    1    4    4    0    0 -0.48769802305E+01  0.15278054969E+02  0.21943261554E+02  0.27179231546E+02  0.00000000000E+00 0. -1.
        -12    1    4    4    0    0  0.27104646480E+02  0.97905893775E+02 -0.58107443708E+02  0.11703290525E+03  0.00000000000E+00 0.  1.
</event>
<event>
12    1  0.8135779E-002  0.2086661E+03  0.7818608E-02  0.1142905E+00
         21   -1    0    0  503  502  0.00000000000E+00  0.00000000000E+00  0.93575960118E+02  0.93575960118E+02  0.00000000000E+00 0. -1.
         21   -1    0    0  501  503 -0.00000000000E+00 -0.00000000000E+00 -0.80195541817E+03  0.80195541817E+03  0.00000000000E+00 0.  1.
          6    2    1    2  501    0  0.94893935746E+02  0.63443000908E+02 -0.63431329438E+02  0.21809422807E+03  0.17467594384E+03 0.  0.
         24    2    3    3    0    0  0.54651061442E+02 -0.25892784107E+02 -0.63794961540E+02  0.11999940840E+03  0.81687735394E+02 0.  0.
         -6    2    1    2    0  502 -0.94893935746E+02 -0.63443000908E+02 -0.64494812861E+03  0.67743715022E+03  0.17301193743E+03 0.  0.
        -24    2    5    5    0    0 -0.70493844959E+02 -0.10945269346E+03 -0.43747419949E+03  0.46347505660E+03  0.80474707782E+02 0.  0.
          5    1    3    3  501    0  0.40242874304E+02  0.89335785015E+02  0.36363210161E+00  0.98094819663E+02  0.47000000000E+01 0. -1.
        -13    1    4    4    0    0  0.56791907540E+02  0.12368226246E+02 -0.56365107657E+02  0.80964925392E+02  0.00000000000E+00 0.  1.
         14    1    4    4    0    0 -0.21408460979E+01 -0.38261010353E+02 -0.74298538826E+01  0.39034483011E+02  0.00000000000E+00 0. -1.
         -5    1    5    5    0  502 -0.24400090787E+02  0.46009692550E+02 -0.20747392912E+03  0.21396209361E+03  0.47000000000E+01 0.  1.
         11    1    6    6    0    0  0.74878958690E+01 -0.90004160222E+01 -0.50696991819E+01  0.12758445160E+02  0.00000000000E+00 0. -1.
        -12    1    6    6    0    0 -0.77981740828E+02 -0.10045227744E+03 -0.43240450031E+03  0.45071661144E+03  0.00000000000E+00 0.  1.
</event>
<event>
12    1  0.8135779E-002  0.2764185E+03  0.7818608E-02  0.1097938E+00
         21   -1    0    0  503  502  0.00000000000E+00  0.00000000000E+00  0.15764795642E+03  0.15764795642E+03  0.00000000000E+00 0.  1.
         21   -1    0    0  501  503 -0.00000000000E+00 -0.00000000000E+00 -0.78903513706E+03  0.78903513706E+03  0.00000000000E+00 0. -1.
          6    2    1    2  501    0  0.32753754297E+02  0.21210564428E+03 -0.61065526727E+03  0.66948826545E+03  0.17103528691E+03 0.  0.
         24    2    3    3    0    0  0.86426542738E+02  0.15236693860E+03 -0.39909175331E+03  0.44314628610E+03  0.80119735747E+02 0.  0.
         -6    2    1    2    0  502 -0.32753754297E+02 -0.21210564428E+03 -0.20731913373E+02  0.27719482804E+03  0.17419973508E+03 0.  0.
        -24    2    5    5    0    0 -0.84268819277E+02 -0.17013773241E+03  0.68764287746E+01  0.20508783737E+03  0.77237645445E+02 0.  0.
          5    1    3    3  501    0 -0.53672788441E+02  0.59738705679E+02 -0.21156351396E+03  0.22634197934E+03  0.47000000000E+01 0. -1.
        -11    1    4    4    0    0  0.55650100429E+02  0.13042530277E+03 -0.23258270213E+03  0.27240118688E+03  0.00000000000E+00 0.  1.
         12    1    4    4    0    0  0.30776442309E+02  0.21941635826E+02 -0.16650905118E+03  0.17074509923E+03  0.00000000000E+00 0. -1.
         -5    1    5    5    0  502  0.51515064980E+02 -0.41967911875E+02 -0.27608342148E+02  0.72106990668E+02  0.47000000000E+01 0.  1.
         11    1    6    6    0    0 -0.48750519407E+01  0.12265423798E+01 -0.14189832610E+02  0.15053965828E+02  0.00000000000E+00 0. -1.
        -12    1    6    6    0    0 -0.79393767337E+02 -0.17136427478E+03  0.21066261385E+02  0.19003387154E+03  0.00000000000E+00 0.  1.
</event>
<event>
12    1  0.8135779E-002  0.1762790E+03  0.7818608E-02  0.1172305E+00
         21   -1    0    0  501  502  0.00000000000E+00  0.00000000000E+00  0.18690504598E+03  0.18690504598E+03  0.00000000000E+00 0. -1.
         21   -1    0    0  502  503 -0.00000000000E+00 -0.00000000000E+00 -0.20946257368E+03  0.20946257368E+03  0.00000000000E+00 0. -1.
         -6    2    1    2    0  503 -0.18662962430E+02 -0.24035899225E+02 -0.10462446064E+03  0.20498920053E+03  0.17363255442E+03 0.  0.
        -24    2    3    3    0    0 -0.12215683295E+01  0.16452566003E+02  0.91258696522E+01  0.82904206834E+02  0.80731944462E+02 0.  0.
          6    2    1    2  501    0  0.18662962430E+02  0.24035899225E+02  0.82066932937E+02  0.19137841912E+03  0.17019015014E+03 0.  0.
         24    2    5    5    0    0  0.37253219950E+02  0.42848916238E+02  0.11376812054E+03  0.14982625216E+03  0.79252057172E+02 0.  0.
          5    1    5    5  501    0 -0.18590257520E+02 -0.18813017013E+02 -0.31701187604E+02  0.41552166962E+02  0.47000000000E+01 0. -1.
        -11    1    6    6    0    0  0.59461558749E+02  0.35273683410E+02  0.61496918658E+02  0.92529890925E+02  0.00000000000E+00 0.  1.
         12    1    6    6    0    0 -0.22208338800E+02  0.75752328270E+01  0.52271201882E+02  0.57296361236E+02  0.00000000000E+00 0. -1.
         -5    1    3    3    0  503 -0.17441394101E+02 -0.40488465228E+02 -0.11375033029E+03  0.12208499370E+03  0.47000000000E+01 0.  1.
         13    1    4    4    0    0  0.25061904076E+02 -0.11527172376E+02  0.28704569935E+02  0.39811142587E+02  0.00000000000E+00 0. -1.
        -14    1    4    4    0    0 -0.26283472405E+02  0.27979738379E+02 -0.19578700283E+02  0.43093064247E+02  0.00000000000E+00 0.  1.
</event>
<event>
12    1  0.8135779E-002  0.1839422E+03  0.7818608E-02  0.1164494E+00
         21   -1    0    0  501  502  0.00000000000E+00  0.00000000000E+00  0.51296698416E+03  0.51296698416E+03  0.00000000000E+00 0. -1.
         21   -1    0    0  502  503 -0.00000000000E+00 -0.00000000000E+00 -0.71299314849E+02  0.71299314849E+02  0.00000000000E+00 0. -1.
         -6    2    1    2    0  503  0.50689530071E+02 -0.29640676827E+02  0.13485625643E+03  0.22654017212E+03  0.17229695732E+03 0.  0.
        -24    2    3    3    0    0  0.44024616028E+02  0.45382050577E+02  0.51670842679E+02  0.11422484027E+03  0.79873279769E+02 0.  0.
          6    2    1    2  501    0 -0.50689530071E+02  0.29640676827E+02  0.30681141289E+03  0.35772612690E+03  0.17431792967E+03 0.  0.
         24    2    5    5    0    0 -0.17669546819E+02  0.63707352508E+02  0.95667654040E+02  0.14126681297E+03  0.80207061838E+02 0.  0.
          5    1    5    5  501    0 -0.33019983251E+02 -0.34066675681E+02  0.21114375885E+03  0.21645931393E+03  0.47000000000E+01 0. -1.
        -13    1    6    6    0    0 -0.45455202661E+02  0.57729350257E+02  0.80721606193E+02  0.10915507792E+03  0.00000000000E+00 0.  1.
         14    1    6    6    0    0  0.27785655841E+02  0.59780022511E+01  0.14946047846E+02  0.32111735046E+02  0.00000000000E+00 0. -1.
         -5    1    3    3    0  503  0.66649140426E+01 -0.75022727405E+02  0.83185413750E+02  0.11231533184E+03  0.47000000000E+01 0.  1.
         11    1    4    4    0    0  0.15606869839E+02  0.42032989260E+02 -0.10266398111E+02  0.45997233639E+02  0.00000000000E+00 0. -1.
        -12    1    4    4    0    0  0.28417746189E+02  0.33490613173E+01  0.61937240790E+02  0.68227606633E+02  0.00000000000E+00 0.  1.
</event>
<event>
12    1  0.8135779E-002  0.2000972E+03  0.7818608E-02  0.1149699E+00
         21   -1    0    0  503  502  0.00000000000E+00  0.00000000000E+00  0.31545138719E+03  0.31545138719E+03  0.00000000000E+00 0.  1.
         21   -1    0    0  501  503 -0.00000000000E+00 -0.00000000000E+00 -0.22227038630E+03  0.22227038630E+03  0.00000000000E+00 0.  1.
          6    2    1    2  501    0  0.83648641321E+02 -0.59272861603E+02 -0.12962953857E+03  0.23824988971E+03  0.17160660057E+03 0.  0.
         24    2    3    3    0    0  0.11330411851E+02 -0.77106894581E+02 -0.10229276902E+03  0.15876801747E+03  0.93110801478E+02 0.  0.
         -6    2    1    2    0  502 -0.83648641321E+02  0.59272861603E+02  0.22281053947E+03  0.29947188378E+03  0.17183860264E+03 0.  0.
        -24    2    5    5    0    0 -0.35757483260E+02  0.69588062278E+02  0.22407160161E+03  0.25024133774E+03  0.79319281673E+02 0.  0.
          5    1    3    3  501    0  0.72318229470E+02  0.17834032978E+02 -0.27336769556E+02  0.79481872246E+02  0.47000000000E+01 0. -1.
        -11    1    4    4    0    0  0.50974038901E+02 -0.28060834821E+02 -0.53301517764E+02  0.78910169742E+02  0.00000000000E+00 0.  1.
         12    1    4    4    0    0 -0.39643627050E+02 -0.49046059760E+02 -0.48991251255E+02  0.79857847724E+02  0.00000000000E+00 0. -1.
         -5    1    5    5    0  502 -0.47891158062E+02 -0.10315200675E+02 -0.12610621441E+01  0.49230546038E+02  0.47000000000E+01 0.  1.
         13    1    6    6    0    0  0.24666048695E+02  0.18123464256E+02  0.45642832257E+02  0.54955819085E+02  0.00000000000E+00 0. -1.
        -14    1    6    6    0    0 -0.60423531955E+02  0.51464598021E+02  0.17842876935E+03  0.19528551866E+03  0.00000000000E+00 0.  1.
</event>
<event>
12    1  0.8135779E-002  0.1778501E+03  0.7818608E-02  0.1169942E+00
         21   -1    0    0  503  502  0.00000000000E+00  0.00000000000E+00  0.44533672520E+02  0.44533672520E+02  0.00000000000E+00 0. -1.
         21   -1    0    0  501  503 -0.00000000000E+00 -0.00000000000E+00 -0.74615435411E+03  0.74615435411E+03  0.00000000000E+00 0. -1.
          6    2    1    2  501    0 -0.38381574564E+02  0.26001178879E+02 -0.43816839488E+03  0.47282364098E+03  0.17152681022E+03 0.  0.
         24    2    3    3    0    0 -0.72865603345E+02 -0.27901872313E+02 -0.31024310955E+03  0.32970950542E+03  0.79810151692E+02 0.  0.
         -6    2    1    2    0  502  0.38381574564E+02 -0.26001178879E+02 -0.26345228671E+03  0.31786438565E+03  0.17170164159E+03 0.  0.
        -24    2    5    5    0    0  0.32639744223E+02 -0.58023730275E+02 -0.78170747152E+02  0.12968959639E+03  0.79225119272E+02 0.  0.
          5    1    3    3  501    0  0.34484028781E+02  0.53903051191E+02 -0.12792528533E+03  0.14311413556E+03  0.47000000000E+01 0. -1.
        -13    1    4    4    0    0 -0.19907709025E+01 -0.58153640166E+01  0.36557694677E+01  0.71516625922E+01  0.00000000000E+00 0.  1.
         14    1    4    4    0    0 -0.70874832443E+02 -0.22086508296E+02 -0.31389887902E+03  0.32255784283E+03  0.00000000000E+00 0. -1.
         -5    1    5    5    0  502  0.57418303413E+01  0.32022551396E+02 -0.18528153955E+03  0.18817478926E+03  0.47000000000E+01 0.  1.
         11    1    6    6    0    0  0.22344789543E+02  0.16598975241E+02 -0.16689287712E+02  0.32455321954E+02  0.00000000000E+00 0. -1.
        -12    1    6    6    0    0  0.10294954680E+02 -0.74622705516E+02 -0.61481459439E+02  0.97234274436E+02  0.00000000000E+00 0.  1.
</event>
<event>
12    1  0.8135779E-002  0.1889140E+03  0.7818608E-02  0.1160134E+00
         21   -1    0    0  503  502  0.00000000000E+00  0.00000000000E+00  0.21296302137E+03  0.21296302137E+03  0.00000000000E+00 0. -1.
         21   -1    0    0  501  503 -0.00000000000E+00 -0.00000000000E+00 -0.17253560535E+03  0.17253560535E+03  0.00000000000E+00 0. -1.
          6    2    1    2  501    0  0.17363797418E+02  0.71217377103E+02 -0.20429221357E+02  0.18702437904E+03  0.17084305373E+03 0.  0.
         24    2    3    3    0    0 -0.26809825920E+02  0.10046172710E+03 -0.25956005356E+02  0.13355311249E+03  0.79695635158E+02 0.  0.
         -6    2    1    2    0  502 -0.17363797418E+02 -0.71217377103E+02  0.60856637379E+02  0.19847424768E+03  0.17411226383E+03 0.  0.
        -24    2    5    5    0    0  0.49259264133E+02 -0.77233188651E+02  0.45762438461E+02  0.12973745142E+03  0.79662820658E+02 0.  0.
          5    1    3    3  501    0  0.44173623338E+02 -0.29244349997E+02  0.55267839991E+01  0.53471266554E+02  0.47000000000E+01 0. -1.
        -11    1    4    4    0    0  0.18461624430E+02  0.80229795848E+01  0.12476803022E+02  0.23682702373E+02  0.00000000000E+00 0.  1.
         12    1    4    4    0    0 -0.45271450350E+02  0.92438747514E+02 -0.38432808378E+02  0.10987041011E+03  0.00000000000E+00 0. -1.
         -5    1    5    5    0  502 -0.66623061552E+02  0.60158115487E+01  0.15094198918E+02  0.68736796260E+02  0.47000000000E+01 0.  1.
         11    1    6    6    0    0 -0.16627851962E+02 -0.37136081587E+02  0.12978825489E+01  0.40709440129E+02  0.00000000000E+00 0. -1.
        -12    1    6    6    0    0  0.65887116095E+02 -0.40097107064E+02  0.44464555912E+02  0.89028011293E+02  0.00000000000E+00 0.  1.
</event>
<event>
12    1  0.8135779E-002  0.2249830E+03  0.7818608E-02  0.1130472E+00
         21   -1    0    0  501  502  0.00000000000E+00  0.00000000000E+00  0.72644237597E+02  0.72644237597E+02  0.00000000000E+00 0. -1.
         21   -1    0    0  502  503 -0.00000000000E+00 -0.00000000000E+00 -0.77238796937E+03  0.77238796937E+03  0.00000000000E+00 0.  1.
         -6    2    1    2    0  503  0.61951614014E+02  0.13030348314E+03 -0.48477620433E+03  0.53385960244E+03  0.17082478343E+03 0.  0.
        -24    2    3    3    0    0 -0.12299150299E+02  0.85991451855E+02 -0.38024721432E+03  0.39812039709E+03  0.79787891854E+02 0.  0.
          6    2    1    2  501    0 -0.61951614014E+02 -0.13030348314E+03 -0.21496752744E+03  0.31117260452E+03  0.17262778385E+03 0.  0.
         24    2    5    5    0    0 -0.96571778549E+02 -0.13342592449E+03 -0.14771096601E+03  0.23531853088E+03  0.80172911631E+02 0.  0.
          5    1    5    5  501    0  0.34620164536E+02  0.31224413508E+01 -0.67256561428E+02  0.75854073639E+02  0.47000000000E+01 0. -1.
        -13    1    6    6    0    0 -0.15586476339E+02 -0.53901368812E+02 -0.10223554753E+02  0.57033471543E+02  0.00000000000E+00 0.  1.
         14    1    6    6    0    0 -0.80985302211E+02 -0.79524555679E+02 -0.13748741126E+03  0.17828505934E+03  0.00000000000E+00 0. -1.
         -5    1    3    3    0  503  0.74250764312E+02  0.44312031285E+02 -0.10452899001E+03  0.13573920535E+03  0.47000000000E+01 0.  1.
         13    1    4    4    0    0  0.36818758083E+00  0.71728124268E+02 -0.36914354963E+03  0.37604789536E+03  0.00000000000E+00 0. -1.
        -14    1    4    4    0    0 -0.12667337879E+02  0.14263327587E+02 -0.11103664693E+02  0.22072501726E+02  0.00000000000E+00 0.  1.
</event>
<event>
12    1  0.8135779E-002  0.2555169E+03  0.7818608E-02  0.1110741E+00
         21   -1    0    0  501  502  0.00000000000E+00  0.00000000000E+00  0.52962353725E+03  0.52962353725E+03  0.00000000000E+00 0. -1.
         21   -1    0    0  502  503 -0.00000000000E+00 -0.00000000000E+00 -0.12742561612E+03  0.12742561612E+03  0.00000000000E+00 0. -1.
         -6    2    1    2    0  503  0.27063562522E+02  0.17988646279E+03  0.12706331243E+03  0.28536641262E+03  0.17943613955E+03 0.  0.
        -24    2    3    3    0    0 -0.13419886551E+02  0.17417406767E+03  0.50566054960E+02  0.19850179666E+03  0.79557137689E+02 0.  0.
          6    2    1    2  501    0 -0.27063562522E+02 -0.17988646279E+03  0.27513460870E+03  0.37168274074E+03  0.17134010316E+03 0.  0.
         24    2    5    5    0    0  0.28779784067E+02 -0.82471026870E+02  0.71772439068E+02  0.13933277076E+03  0.81440725405E+02 0.  0.
          5    1    5    5  501    0 -0.55843346589E+02 -0.97415435920E+02  0.20336216963E+03  0.23234996998E+03  0.47000000000E+01 0. -1.
        -11    1    6    6    0    0 -0.23867723842E+02 -0.60318408021E+01  0.26135801786E+02  0.35904477157E+02  0.00000000000E+00 0.  1.
         12    1    6    6    0    0  0.52647507909E+02 -0.76439186067E+02  0.45636637282E+02  0.10342829361E+03  0.00000000000E+00 0. -1.
         -5    1    3    3    0  503  0.40483449073E+02  0.57123951180E+01  0.76497257469E+02  0.86864615967E+02  0.47000000000E+01 0.  1.
         11    1    4    4    0    0 -0.44662481348E+02  0.10404561350E+03  0.16168024803E+02  0.11437496210E+03  0.00000000000E+00 0. -1.
        -12    1    4    4    0    0  0.31242594797E+02  0.70128454170E+02  0.34398030157E+02  0.84126834557E+02  0.00000000000E+00 0.  1.
</event>
<event>
12    1  0.8135779E-002  0.2208977E+03  0.7818608E-02  0.1133299E+00
         21   -1    0    0  501  502  0.00000000000E+00  0.00000000000E+00  0.54987898382E+03  0.54987898382E+03  0.00000000000E+00 0.  1.
         21   -1    0    0  502  503 -0.00000000000E+00 -0.00000000000E+00 -0.12954180823E+03  0.12954180823E+03  0.00000000000E+00 0. -1.
         -6    2    1    2    0  503  0.13263731251E+03 -0.38334558981E+02  0.19239597464E+02  0.22173401782E+03  0.17243438598E+03 0.  0.
        -24    2    3    3    0    0  0.45321928402E+02  0.41251715299E+02 -0.95011399095E+01  0.10005381672E+03  0.78515688697E+02 0.  0.
          6    2    1    2  501    0 -0.13263731251E+03  0.38334558981E+02  0.40109757813E+03  0.45768677423E+03  0.17185959688E+03 0.  0.
         24    2    5    5    0    0 -0.14212054497E+02  0.15407233164E+02  0.27303283986E+03  0.28169566311E+03  0.66076846517E+02 0.  0.
          5    1    5    5  501    0 -0.11842525801E+03  0.22927325817E+02  0.12806473826E+03  0.17599111111E+03  0.47000000000E+01 0. -1.
        -13    1    6    6    0    0  0.14487145174E+02 -0.19249473401E+02  0.84487020065E+02  0.87854858494E+02  0.00000000000E+00 0.  1.
         14    1    6    6    0    0 -0.28699199671E+02  0.34656706565E+02  0.18854581980E+03  0.19384080462E+03  0.00000000000E+00 0. -1.
         -5    1    3    3    0  503  0.87315384106E+02 -0.79586274280E+02  0.28740737374E+02  0.12168020110E+03  0.47000000000E+01 0.  1.
         11    1    4    4    0    0 -0.16511374433E+02  0.12791369037E+02 -0.22559669003E+02  0.30743833089E+02  0.00000000000E+00 0. -1.
        -12    1    4    4    0    0  0.61833302835E+02  0.28460346263E+02  0.13058529093E+02  0.69309983631E+02  0.00000000000E+00 0.  1.
</event>
<event>
12    1  0.8135779E-002  0.2127171E+03  0.7818608E-02  0.1139520E+00
         21   -1    0    0  503  502  0.00000000000E+00  0.00000000000E+00  0.43949899668E+03  0.43949899668E+03  0.00000000000E+00 0. -1.
         21   -1    0    0  501  503 -0.00000000000E+00 -0.00000000000E+00 -0.10307072061E+03  0.10307072061E+03  0.00000000000E+00 0. -1.
          6    2    1    2  501    0 -0.41099695721E+02 -0.12173468050E+03  0.18384059404E+03  0.28115111149E+03  0.16952895343E+03 0.  0.
         24    2    3    3    0    0 -0.17962167541E+02 -0.31142197964E+02  0.15159377172E+02  0.88231993656E+02  0.79136603614E+02 0.  0.
         -6    2    1    2    0  502  0.41099695721E+02  0.12173468050E+03  0.15258768202E+03  0.26141860580E+03  0.16896203517E+03 0.  0.
        -24    2    5    5    0    0 -0.72720962919E+01  0.52247793662E+01  0.43549441230E+02  0.94607888877E+02  0.83509982053E+02 0.  0.
          5    1    3    3  501    0 -0.23137528180E+02 -0.90592482537E+02  0.16868121687E+03  0.19291911784E+03  0.47000000000E+01 0. -1.
        -11    1    4    4    0    0  0.21661717141E+02 -0.51882585632E+01 -0.19447480111E+02  0.29569452127E+02  0.00000000000E+00 0.  1.
         12    1    4    4    0    0 -0.39623884681E+02 -0.25953939401E+02  0.34606857283E+02  0.58662541529E+02  0.00000000000E+00 0. -1.
         -5    1    5    5    0  502  0.48371792013E+02  0.11650990113E+03  0.10903824079E+03  0.16681071692E+03  0.47000000000E+01 0.  1.
         11    1    6    6    0    0  0.24117097334E+02  0.29921628393E+02  0.38416323414E+02  0.54339231998E+02  0.00000000000E+00 0. -1.
        -12    1    6    6    0    0 -0.31389193626E+02 -0.24696849027E+02  0.51331178162E+01  0.40268656879E+02  0.00000000000E+00 0.  1.
</event>
<event>
12    1  0.8135779E-002  0.1881879E+03  0.7818608E-02  0.1160378E+00
         21   -1    0    0  503  502  0.00000000000E+00  0.00000000000E+00  0.68457387823E+02  0.68457387823E+02  0.00000000000E+00 0. -1.
         21   -1    0    0  501  503 -0.00000000000E+00 -0.00000000000E+00 -0.61993397565E+03  0.61993397565E+03  0.00000000000E+00 0. -1.
          6    2    1    2  501    0 -0.41478241956E+02  0.61537346133E+02 -0.41725286663E+03  0.45724055815E+03  0.17164406131E+03 0.  0.
         24    2    3    3    0    0  0.45011422162E+02  0.33765184900E+02 -0.21812340695E+03  0.23831959833E+03  0.77796493813E+02 0.  0.
         -6    2    1    2    0  502  0.41478241956E+02 -0.61537346133E+02 -0.13422372119E+03  0.23115080532E+03  0.17293755504E+03 0.  0.
        -24    2    5    5    0    0 -0.39654517266E+02 -0.54710622493E+02 -0.60458956775E+02  0.12118508682E+03  0.80404022668E+02 0.  0.
          5    1    3    3  501    0 -0.86489664118E+02  0.27772161234E+02 -0.19912945967E+03  0.21892095982E+03  0.47000000000E+01 0. -1.
        -11    1    4    4    0    0 -0.50394343393E+01 -0.17695010633E+02 -0.86079273562E+02  0.88023580004E+02  0.00000000000E+00 0.  1.
         12    1    4    4    0    0  0.50050856501E+02  0.51460195532E+02 -0.13204413339E+03  0.15029601832E+03  0.00000000000E+00 0. -1.
         -5    1    5    5    0  502  0.81132759221E+02 -0.68267236398E+01 -0.73764764420E+02  0.10996571850E+03  0.47000000000E+01 0.  1.
         13    1    6    6    0    0 -0.11830338345E+02 -0.37853670327E+02  0.12268146212E+02  0.41513427636E+02  0.00000000000E+00 0. -1.
        -14    1    6    6    0    0 -0.27824178920E+02 -0.16856952166E+02 -0.72727102987E+02  0.79671659189E+02  0.00000000000E+00 0.  1.
</event>
<event>
12    1  0.8135779E-002  0.1802128E+03  0.7818608E-02  0.1167964E+00
         21   -1    0    0  503  502  0.00000000000E+00  0.00000000000E+00  0.33521743709E+03  0.33521743709E+03  0.00000000000E+00 0.  1.
         21   -1    0    0  501  503 -0.00000000000E+00 -0.00000000000E+00 -0.75655400828E+03  0.75655400828E+03  0.00000000000E+00 0.  1.
          6    2    1    2  501    0  0.53272092920E+02 -0.32551555956E+01 -0.72060464768E+03  0.74243201932E+03  0.17054539903E+03 0.  0.
         24    2    3    3    0    0  0.47548501379E+02  0.33546334596E+02 -0.68118157805E+03  0.68799510538E+03  0.77088949926E+02 0.  0.
         -6    2    1    2    0  502 -0.53272092920E+02  0.32551555956E+01  0.29926807650E+03  0.34933942605E+03  0.17212826920E+03 0.  0.
        -24    2    5    5    0    0  0.83128950529E+01  0.56266584543E+02  0.15403347248E+03  0.18285188133E+03  0.80457859159E+02 0.  0.
          5    1    3    3  501    0  0.57235915410E+01 -0.36801490192E+02 -0.39423069630E+02  0.54436913942E+02  0.47000000000E+01 0. -1.
        -11    1    4    4    0    0 -0.10083238116E+02  0.37021613189E+02 -0.30618673962E+03  0.30858157925E+03  0.00000000000E+00 0.  1.
         12    1    4    4    0    0  0.57631739495E+02 -0.34752785934E+01 -0.37499483843E+03  0.37941352613E+03  0.00000000000E+00 0. -1.
         -5    1    5    5    0  502 -0.61584987972E+02 -0.53011428947E+02  0.14523460401E+03  0.16648754472E+03  0.47000000000E+01 0.  1.
         11    1    6    6    0    0 -0.13729030549E+02  0.70633801628E+02  0.11853869917E+03  0.13866882640E+03  0.00000000000E+00 0. -1.
        -12    1    6    6    0    0  0.22041925602E+02 -0.14367217085E+02  0.35494773311E+02  0.44183054935E+02  0.00000000000E+00 0.  1.
</event>
<event>
12    1  0.8135779E-002  0.4189594E+03  0.7818608E-02  0.1037580E+00
         21   -1    0    0  503  502  0.00000000000E+00  0.00000000000E+00  0.12681298836E+03  0.12681298836E+03  0.00000000000E+00 0.  1.
         21   -1    0    0  501  503 -0.00000000000E+00 -0.00000000000E+00 -0.19434858371E+04  0.19434858371E+04  0.00000000000E+00 0. -1.
          6    2    1    2  501    0 -0.36918993715E+03  0.90033292512E+02 -0.14687811038E+04  0.15273653499E+04  0.17640798679E+03 0.  0.
         24    2    3    3    0    0 -0.81566753123E+02 -0.43322817289E+01 -0.34960418919E+03  0.36796420546E+03  0.80639094223E+02 0.  0.
         -6    2    1    2    0  502  0.36918993715E+03 -0.90033292512E+02 -0.34789174500E+03  0.54293347560E+03  0.17129182478E+03 0.  0.
        -24    2    5    5    0    0  0.17700506004E+03 -0.93292685465E+02 -0.12951487274E+03  0.25197609218E+03  0.81752873503E+02 0.  0.
          5    1    3    3  501    0 -0.28762318402E+03  0.94365574241E+02 -0.11191769146E+04  0.11594011444E+04  0.47000000000E+01 0. -1.
        -11    1    4    4    0    0 -0.50718582265E+02 -0.17852190609E+02 -0.80781631907E+02  0.97039926577E+02  0.00000000000E+00 0.  1.
         12    1    4    4    0    0 -0.30848170858E+02  0.13519908881E+02 -0.26882255728E+03  0.27092427888E+03  0.00000000000E+00 0. -1.
         -5    1    5    5    0  502  0.19218487710E+03  0.32593929525E+01 -0.21837687226E+03  0.29095738342E+03  0.47000000000E+01 0.  1.
         11    1    6    6    0    0  0.74598118530E+02 -0.40166172818E+02 -0.10342206184E+03  0.13369488996E+03  0.00000000000E+00 0. -1.
        -12    1    6    6    0    0  0.10240694151E+03 -0.53126512646E+02 -0.26092810895E+02  0.11828120221E+03  0.00000000000E+00 0.  1.
</event>
<event>
12    1  0.8135779E-002  0.1891476E+03  0.7818608E-02  0.1160912E+00
         21   -1    0    0  501  502  0.00000000000E+00  0.00000000000E+00  0.85030988661E+03  0.85030988661E+03  0.00000000000E+00 0. -1.
         21   -1    0    0  502  503 -0.00000000000E+00 -0.00000000000E+00 -0.40479394900E+02  0.40479394900E+02  0.00000000000E+00 0. -1.
         -6    2    1    2    0  503 -0.25456795816E+02  0.57040040181E+02  0.41587034077E+03  0.45686426426E+03  0.17853627361E+03 0.  0.
        -24    2    3    3    0    0 -0.50312047286E+02  0.97326536179E+02  0.34841598242E+03  0.37432357281E+03  0.81979775609E+02 0.  0.
          6    2    1    2  501    0  0.25456795816E+02 -0.57040040181E+02  0.39396015094E+03  0.43392501725E+03  0.17083531668E+03 0.  0.
         24    2    5    5    0    0  0.17824998752E+02 -0.26635344658E+02  0.78398593231E+02  0.11677540501E+03  0.80392683929E+02 0.  0.
          5    1    5    5  501    0  0.76317970640E+01 -0.30404695523E+02  0.31556155771E+03  0.31714961224E+03  0.47000000000E+01 0. -1.
        -13    1    6    6    0    0 -0.29575820733E+01  0.24363190833E+02  0.50534278872E+01  0.25056925045E+02  0.00000000000E+00 0.  1.
         14    1    6    6    0    0  0.20782580825E+02 -0.50998535491E+02  0.73345165344E+02  0.91718479967E+02  0.00000000000E+00 0. -1.
         -5    1    3    3    0  503  0.24855251469E+02 -0.40286495997E+02  0.67454358345E+02  0.82540691450E+02  0.47000000000E+01 0.  1.
         13    1    4    4    0    0  0.16726282742E+02  0.52475164754E+02  0.11861002509E+03  0.13077365753E+03  0.00000000000E+00 0. -1.
        -14    1    4    4    0    0 -0.67038330028E+02  0.44851371425E+02  0.22980595733E+03  0.24354991529E+03  0.00000000000E+00 0.  1.
</event>
<event>
12    1  0.8135779E-002  0.1764292E+03  0.7818608E-02  0.1172612E+00
         21   -1    0    0  503  502  0.00000000000E+00  0.00000000000E+00  0.44724055279E+03  0.44724055279E+03  0.00000000000E+00 0.  1.
         21   -1    0    0  501  503 -0.00000000000E+00 -0.00000000000E+00 -0.28440885120E+03  0.28440885120E+03  0.00000000000E+00 0.  1.
          6    2    1    2  501    0  0.25624093622E+01 -0.21100542580E+02 -0.23771332368E+03  0.29603189934E+03  0.17514411876E+03 0.  0.
         24    2    3    3    0    0  0.25880714017E+02 -0.54978108020E+02 -0.64882675501E+02  0.11831314479E+03  0.78075828074E+02 0.  0.
         -6    2    1    2    0  502 -0.25624093622E+01  0.21100542580E+02  0.40054502527E+03  0.43561750465E+03  0.16992496652E+03 0.  0.
        -24    2    5    5    0    0  0.40047329174E+02  0.26613620451E+02  0.11205042664E+03  0.14390324842E+03  0.76424952918E+02 0.  0.
          5    1    3    3  501    0 -0.23318304655E+02  0.33877565440E+02 -0.17283064818E+03  0.17771875456E+03  0.47000000000E+01 0. -1.
        -11    1    4    4    0    0 -0.26193323423E+02 -0.27593297606E+02 -0.37489952417E+02  0.53413264242E+02  0.00000000000E+00 0.  1.
         12    1    4    4    0    0  0.52074037440E+02 -0.27384810414E+02 -0.27392723084E+02  0.64899880544E+02  0.00000000000E+00 0. -1.
         -5    1    5    5    0  502 -0.42609738536E+02 -0.55130778712E+01  0.28849459863E+03  0.29171425623E+03  0.47000000000E+01 0.  1.
         11    1    6    6    0    0 -0.11101560952E+00 -0.75252445623E+01 -0.90850145957E+01  0.11797420074E+02  0.00000000000E+00 0. -1.
        -12    1    6    6    0    0  0.40158344783E+02  0.34138865013E+02  0.12113544123E+03  0.13210582835E+03  0.00000000000E+00 0.  1.
</event>
<event>
12    1  0.8135779E-002  0.3659500E+03  0.7818608E-02  0.1056278E+00
         21   -1    0    0  503  502  0.00000000000E+00  0.00000000000E+00  0.29713411195E+03  0.29713411195E+03  0.00000000000E+00 0. -1.
         21   -1    0    0  501  503 -0.00000000000E+00 -0.00000000000E+00 -0.74992884972E+03  0.74992884972E+03  0.00000000000E+00 0.  1.
          6    2    1    2  501    0  0.10012728132E+03  0.30702761043E+03 -0.55732348416E+03  0.66673000071E+03  0.17212786475E+03 0.  0.
         24    2    3    3    0    0  0.11550956876E+03  0.26996880417E+03 -0.54611549410E+03  0.62480531909E+03  0.76902133650E+02 0.  0.
         -6    2    1    2    0  502 -0.10012728132E+03 -0.30702761043E+03  0.10452874639E+03  0.38033296096E+03  0.17156770191E+03 0.  0.
        -24    2    5    5    0    0 -0.70277263339E+02 -0.31496144100E+03  0.83522196314E+02  0.34268545922E+03  0.79484360870E+02 0.  0.
          5    1    3    3  501    0 -0.15382287442E+02  0.37058806261E+02 -0.11207990061E+02  0.41924681628E+02  0.47000000000E+01 0. -1.
        -11    1    4    4    0    0  0.52956993615E+02  0.11495729141E+03 -0.15961756470E+03  0.20370907928E+03  0.00000000000E+00 0.  1.
         12    1    4    4    0    0  0.62552575146E+02  0.15501151276E+03 -0.38649792940E+03  0.42109623981E+03  0.00000000000E+00 0. -1.
         -5    1    5    5    0  502 -0.29850017980E+02  0.79338305723E+01  0.21006550074E+02  0.37647501736E+02  0.47000000000E+01 0.  1.
         13    1    6    6    0    0 -0.60490272965E+02 -0.15536694408E+03  0.10932650137E+02  0.16708525750E+03  0.00000000000E+00 0. -1.
        -14    1    6    6    0    0 -0.97869903741E+01 -0.15959449693E+03  0.72589546178E+02  0.17560020172E+03  0.00000000000E+00 0.  1.
</event>
<event>
12    1  0.8135779E-002  0.2055711E+03  0.7818608E-02  0.1145743E+00
         21   -1    0    0  501  502  0.00000000000E+00  0.00000000000E+00  0.70174040905E+03  0.70174040905E+03  0.00000000000E+00 0.  1.
         21   -1    0    0  502  503 -0.00000000000E+00 -0.00000000000E+00 -0.18326036093E+03  0.18326036093E+03  0.00000000000E+00 0.  1.
         -6    2    1    2    0  503  0.10668361279E+01  0.10462996436E+03 -0.10401147211E+03  0.23038630507E+03  0.17694885038E+03 0.  0.
        -24    2    3    3    0    0  0.25414397267E+02  0.43535287841E+02 -0.12683453520E+03  0.16061277541E+03  0.84665526813E+02 0.  0.
          6    2    1    2  501    0 -0.10668361279E+01 -0.10462996436E+03  0.62249152023E+03  0.65461446491E+03  0.17342386609E+03 0.  0.
         24    2    5    5    0    0  0.17154084691E+02 -0.18156804234E+02  0.12724127859E+03  0.15151954223E+03  0.78383011808E+02 0.  0.
          5    1    5    5  501    0 -0.18220920819E+02 -0.86473160123E+02  0.49525024164E+03  0.50309492267E+03  0.47000000000E+01 0. -1.
        -11    1    6    6    0    0  0.91636713298E+01 -0.40661584784E+02  0.11926942731E+03  0.12634292081E+03  0.00000000000E+00 0.  1.
         12    1    6    6    0    0  0.79904133608E+01  0.22504780549E+02  0.79718512802E+01  0.25176621419E+02  0.00000000000E+00 0. -1.
         -5    1    3    3    0  503 -0.24347561139E+02  0.61094676517E+02  0.22823063089E+02  0.69773529657E+02  0.47000000000E+01 0.  1.
         13    1    4    4    0    0 -0.13924186277E+02 -0.19009895402E+02 -0.21169134344E+02  0.31676352939E+02  0.00000000000E+00 0. -1.
        -14    1    4    4    0    0  0.39338583544E+02  0.62545183243E+02 -0.10566540086E+03  0.12893642247E+03  0.00000000000E+00 0.  1.
</event>
<event>
12    1  0.8135779E-002  0.1743364E+03  0.7818608E-02  0.1174133E+00
         21   -1    0    0  503  502  0.00000000000E+00  0.00000000000E+00  0.23409638832E+03  0.23409638832E+03  0.00000000000E+00 0.  1.
         21   -1    0    0  501  503 -0.00000000000E+00 -0.00000000000E+00 -0.18476620277E+03  0.18476620277E+03  0.00000000000E+00 0.  1.
          6    2    1    2  501    0 -0.11989195850E+02  0.10504854539E+02 -0.91869632070E+02  0.19451779810E+03  0.17071336120E+03 0.  0.
         24    2    3    3    0    0 -0.36383132876E+02  0.65782716015E+02 -0.68233358383E+02  0.12946805123E+03  0.80343556118E+02 0.  0.
         -6    2    1    2    0  502  0.11989195850E+02 -0.10504854539E+02  0.14119981762E+03  0.22434479300E+03  0.17360617749E+03 0.  0.
        -24    2    5    5    0    0 -0.57440331453E+02 -0.75754784691E+00  0.54925793812E+02  0.11307590052E+03  0.80432275214E+02 0.  0.
          5    1    3    3  501    0  0.24393937026E+02 -0.55277861477E+02 -0.23636273687E+02  0.65049746863E+02  0.47000000000E+01 0. -1.
        -11    1    4    4    0    0 -0.18850041461E+02 -0.16926710751E+02 -0.12968881847E+02  0.28461017134E+02  0.00000000000E+00 0.  1.
         12    1    4    4    0    0 -0.17533091415E+02  0.82709426767E+02 -0.55264476536E+02  0.10100703410E+03  0.00000000000E+00 0. -1.
         -5    1    5    5    0  502  0.69429527303E+02 -0.97473066917E+01  0.86274023808E+02  0.11126889248E+03  0.47000000000E+01 0.  1.
         11    1    6    6    0    0 -0.11422391495E+02 -0.82769397052E+01 -0.20210936538E+02  0.24646718121E+02  0.00000000000E+00 0. -1.
        -12    1    6    6    0    0 -0.46017939958E+02  0.75193918583E+01  0.75136730351E+02  0.88429182399E+02  0.00000000000E+00 0.  1.
</event>
<event>
12    1  0.8135779E-002  0.1706954E+03  0.7818608E-02  0.1179531E+00
         21   -1    0    0  501  502  0.00000000000E+00  0.00000000000E+00  0.41686789013E+03  0.41686789013E+03  0.00000000000E+00 0. -1.
         21   -1    0    0  502  503 -0.00000000000E+00 -0.00000000000E+00 -0.67779249575E+02  0.67779249575E+02  0.00000000000E+00 0. -1.
         -6    2    1    2    0  503  0.19621322813E+02  0.29928906634E+01  0.21551546196E+03  0.27492515839E+03  0.16953753173E+03 0.  0.
        -24    2    3    3    0    0 -0.37218105542E+01  0.22130946393E+02  0.31464162527E+02  0.88355766804E+02  0.79455127851E+02 0.  0.
          6    2    1    2  501    0 -0.19621322813E+02 -0.29928906634E+01  0.13357317859E+03  0.20972198132E+03  0.16046046773E+03 0.  0.
         24    2    5    5    0    0 -0.66389706498E+02  0.86572567027E+01  0.12124537808E+03  0.15975126678E+03  0.79608318080E+02 0.  0.
          5    1    5    5  501    0  0.46768383686E+02 -0.11650147366E+02  0.12327800509E+02  0.49970714540E+02  0.47000000000E+01 0. -1.
        -11    1    6    6    0    0 -0.68157742847E+02 -0.22067518440E+02  0.96916368332E+02  0.12052068590E+03  0.00000000000E+00 0.  1.
         12    1    6    6    0    0  0.17680363487E+01  0.30724775143E+02  0.24329009751E+02  0.39230580872E+02  0.00000000000E+00 0. -1.
         -5    1    3    3    0  503  0.23343133367E+02 -0.19138055729E+02  0.18405129943E+03  0.18656939158E+03  0.47000000000E+01 0.  1.
         13    1    4    4    0    0 -0.26951101799E+02 -0.19603794312E+02  0.48505444266E+01  0.33677862474E+02  0.00000000000E+00 0. -1.
        -14    1    4    4    0    0  0.23229291245E+02  0.41734740705E+02  0.26613618101E+02  0.54677904329E+02  0.00000000000E+00 0.  1.
</event>
<event>
12    1  0.8135779E-002  0.1831437E+03  0.7818608E-02  0.1164835E+00
         21   -1    0    0  503  502  0.00000000000E+00  0.00000000000E+00  0.31966638044E+03  0.31966638044E+03  0.00000000000E+00 0. -1.
         21   -1    0    0  501  503 -0.00000000000E+00 -0.00000000000E+00 -0.21754855307E+03  0.21754855307E+03  0.00000000000E+00 0. -1.
          6    2    1    2  501    0  0.27945458003E+02  0.56429823639E+02 -0.14227646566E+03  0.23191418636E+03  0.17197768325E+03 0.  0.
         24    2    3    3    0    0 -0.37967531131E+02 -0.94242995896E+00 -0.35907581898E+02  0.94173389743E+02  0.78338057824E+02 0.  0.
         -6    2    1    2    0  502 -0.27945458003E+02 -0.56429823639E+02  0.24439429303E+03  0.30530074715E+03  0.17179843458E+03 0.  0.
        -24    2    5    5    0    0 -0.47829904025E+02 -0.73620758272E+02  0.90490234255E+02  0.14909745418E+03  0.79585504833E+02 0.  0.
          5    1    3    3  501    0  0.65912989134E+02  0.57372253598E+02 -0.10636888376E+03  0.13774079662E+03  0.47000000000E+01 0. -1.
        -11    1    4    4    0    0  0.12253780666E+02 -0.20051505353E+02  0.79558899708E+01  0.24809558496E+02  0.00000000000E+00 0.  1.
         12    1    4    4    0    0 -0.50221311797E+02  0.19109075394E+02 -0.43863471869E+02  0.69363831248E+02  0.00000000000E+00 0. -1.
         -5    1    5    5    0  502  0.19884446022E+02  0.17190934633E+02  0.15390405877E+03  0.15620329297E+03  0.47000000000E+01 0.  1.
         11    1    6    6    0    0 -0.47523936689E+02 -0.54889365524E+02  0.10340122425E+03  0.12634547947E+03  0.00000000000E+00 0. -1.
        -12    1    6    6    0    0 -0.30596733655E+00 -0.18731392748E+02 -0.12910989998E+02  0.22751974706E+02  0.00000000000E+00 0.  1.
</event>
<event>
12    1  0.8135779E-002  0.2675396E+03  0.7818608E-02  0.1103041E+00
         21   -1    0    0  503  502  0.00000000000E+00  0.00000000000E+00  0.43536188055E+03  0.43536188055E+03  0.00000000000E+00 0.  1.
         21   -1    0    0  501  503 -0.00000000000E+00 -0.00000000000E+00 -0.20813268378E+03  0.20813268378E+03  0.00000000000E+00 0. -1.
          6    2    1    2  501    0 -0.19115859999E+03 -0.71491429551E+02 -0.35890315556E+02  0.26993619418E+03  0.17298785890E+03 0.  0.
         24    2    3    3    0    0 -0.11785039482E+03 -0.22014132403E+02  0.40720117665E+02  0.15283220468E+03  0.85593324621E+02 0.  0.
         -6    2    1    2    0  502  0.19115859999E+03  0.71491429551E+02  0.26311951233E+03  0.37355837015E+03  0.16929661336E+03 0.  0.
        -24    2    5    5    0    0  0.12390442400E+03  0.25232956161E+02  0.24956555219E+03  0.29068032491E+03  0.78886488618E+02 0.  0.
          5    1    3    3  501    0 -0.73308205172E+02 -0.49477297148E+02 -0.76610433221E+02  0.11710398950E+03  0.47000000000E+01 0. -1.
        -13    1    4    4    0    0 -0.11788934533E+03 -0.42788299039E+02  0.41330516701E+02  0.13204903592E+03  0.00000000000E+00 0.  1.
         14    1    4    4    0    0  0.38950511539E-01  0.20774166636E+02 -0.61039903545E+00  0.20783168756E+02  0.00000000000E+00 0. -1.
         -5    1    5    5    0  502  0.67254175984E+02  0.46258473390E+02  0.13553960141E+02  0.82878045242E+02  0.47000000000E+01 0.  1.
         13    1    6    6    0    0 -0.67509986893E+01 -0.87696746597E+01  0.70615870761E+01  0.13128183003E+02  0.00000000000E+00 0. -1.
        -14    1    6    6    0    0  0.13065542269E+03  0.34002630820E+02  0.24250396511E+03  0.27755214190E+03  0.00000000000E+00 0.  1.
</event>
<event>
12    1  0.8135779E-002  0.2741179E+03  0.7818608E-02  0.1099082E+00
         21   -1    0    0  503  502  0.00000000000E+00  0.00000000000E+00  0.11188420329E+04  0.11188420329E+04  0.00000000000E+00 0.  1.
         21   -1    0    0  501  503 -0.00000000000E+00 -0.00000000000E+00 -0.72114971709E+02  0.72114971709E+02  0.00000000000E+00 0. -1.
          6    2    1    2  501    0  0.60455634662E+02  0.20522315426E+03  0.36442935416E+03  0.45601463896E+03  0.17137435622E+03 0.  0.
         24    2    3    3    0    0  0.76360819502E+02  0.87139192873E+02  0.12540677986E+03  0.18889916231E+03  0.80819672100E+02 0.  0.
         -6    2    1    2    0  502 -0.60455634662E+02 -0.20522315426E+03  0.68229770707E+03  0.73494236569E+03  0.16981958957E+03 0.  0.
        -24    2    5    5    0    0  0.17683963373E+02 -0.13974389591E+03  0.49556792324E+03  0.52214332381E+03  0.84882301154E+02 0.  0.
          5    1    3    3  501    0 -0.15905184840E+02  0.11808396138E+03  0.23902257429E+03  0.26711547664E+03  0.47000000000E+01 0. -1.
        -11    1    4    4    0    0  0.23924528538E+02 -0.16119526067E+01  0.65317917211E+02  0.69580254137E+02  0.00000000000E+00 0.  1.
         12    1    4    4    0    0  0.52436290964E+02  0.88751145480E+02  0.60088862650E+02  0.11931890818E+03  0.00000000000E+00 0. -1.
         -5    1    5    5    0  502 -0.78139598035E+02 -0.65479258349E+02  0.18672978383E+03  0.21279904188E+03  0.47000000000E+01 0.  1.
         13    1    6    6    0    0 -0.29568800885E+02 -0.20139047849E+02  0.10124845475E+03  0.10738316825E+03  0.00000000000E+00 0. -1.
        -14    1    6    6    0    0  0.47252764258E+02 -0.11960484806E+03  0.39431946849E+03  0.41476015556E+03  0.00000000000E+00 0.  1.
</event>
<event>
12    1  0.8135779E-002  0.1767842E+03  0.7818608E-02  0.1171645E+00
         21   -1    0    0  501  502  0.00000000000E+00  0.00000000000E+00  0.11719560912E+03  0.11719560912E+03  0.00000000000E+00 0. -1.
         21   -1    0    0  502  503 -0.00000000000E+00 -0.00000000000E+00 -0.43926965374E+03  0.43926965374E+03  0.00000000000E+00 0. -1.
         -6    2    1    2    0  503 -0.24269372178E+02  0.15300117468E+01 -0.33829155803E+03  0.38169859277E+03  0.17510366680E+03 0.  0.
        -24    2    3    3    0    0 -0.69924104932E+02 -0.34585083203E+02 -0.26930442189E+03  0.29131070830E+03  0.79066735683E+02 0.  0.
          6    2    1    2  501    0  0.24269372178E+02 -0.15300117468E+01  0.16217513406E+02  0.17476667009E+03  0.17230507210E+03 0.  0.
         24    2    5    5    0    0  0.53901522264E+02 -0.44287261739E+02 -0.23002619189E+02  0.10944779421E+03  0.81135463969E+02 0.  0.
          5    1    5    5  501    0 -0.29632150086E+02  0.42757249993E+02  0.39220132595E+02  0.65318875882E+02  0.47000000000E+01 0. -1.
        -11    1    6    6    0    0 -0.14028181850E+02 -0.27418091737E+02 -0.24630265470E+02  0.39435917862E+02  0.00000000000E+00 0.  1.
         12    1    6    6    0    0  0.67929704114E+02 -0.16869170002E+02  0.16276462808E+01  0.70011876350E+02  0.00000000000E+00 0. -1.
         -5    1    3    3    0  503  0.45654732754E+02  0.36115094950E+02 -0.68987136139E+02  0.90387884469E+02  0.47000000000E+01 0.  1.
         13    1    4    4    0    0 -0.67943282534E+02  0.87134807070E+00 -0.12059897561E+03  0.13842384840E+03  0.00000000000E+00 0. -1.
        -14    1    4    4    0    0 -0.19808223975E+01 -0.35456431273E+02 -0.14870544628E+03  0.15288685990E+03  0.00000000000E+00 0.  1.
</event>
<event>
12    1  0.8135779E-002  0.1740316E+03  0.7818608E-02  0.1173773E+00
         21   -1    0    0  503  502  0.00000000000E+00  0.00000000000E+00  0.30322063902E+03  0.30322063902E+03  0.00000000000E+00 0. -1.
         21   -1    0    0  501  503 -0.00000000000E+00 -0.00000000000E+00 -0.17108017183E+03  0.17108017183E+03  0.00000000000E+00 0. -1.
          6    2    1    2  501    0  0.30926790204E+01  0.25050722770E+02 -0.87102817001E+02  0.19438188222E+03  0.17193112584E+03 0.  0.
         24    2    3    3    0    0 -0.35544471544E+02  0.48435344271E+02 -0.10555968898E+03  0.14536743487E+03  0.79871466440E+02 0.  0.
         -6    2    1    2    0  502 -0.30926790204E+01 -0.25050722770E+02  0.21924328419E+03  0.27991892863E+03  0.17219142130E+03 0.  0.
        -24    2    5    5    0    0 -0.20612882759E+02 -0.80377129974E+02  0.14009674977E+03  0.18166297317E+03  0.80554097134E+02 0.  0.
          5    1    3    3  501    0  0.38637150565E+02 -0.23384621501E+02  0.18456871976E+02  0.49014447356E+02  0.47000000000E+01 0. -1.
        -13    1    4    4    0    0  0.95810915726E+01  0.44104133537E+02 -0.21788934416E+02  0.50117158476E+02  0.00000000000E+00 0.  1.
         14    1    4    4    0    0 -0.45125563117E+02  0.43312107346E+01 -0.83770754561E+02  0.95250276392E+02  0.00000000000E+00 0. -1.
         -5    1    5    5    0  502  0.17520203739E+02  0.55326407204E+02  0.79146534417E+02  0.98255955461E+02  0.47000000000E+01 0.  1.
         13    1    6    6    0    0 -0.50757095048E+02 -0.62464823527E+02  0.10094132568E+03  0.12910185167E+03  0.00000000000E+00 0. -1.
        -14    1    6    6    0    0  0.30144212289E+02 -0.17912306447E+02  0.39155424097E+02  0.52561121497E+02  0.00000000000E+00 0.  1.
</event>
<event>
12    1  0.8135779E-002  0.1896062E+03  0.7818608E-02  0.1159830E+00
         21   -1    0    0  503  502  0.00000000000E+00  0.00000000000E+00  0.21745830063E+03  0.21745830063E+03  0.00000000000E+00 0.  1.
         21   -1    0    0  501  503 -0.00000000000E+00 -0.00000000000E+00 -0.16222215694E+03  0.16222215694E+03  0.00000000000E+00 0.  1.
          6    2    1    2  501    0  0.77335233679E+02 -0.54085392471E+01  0.40711236935E+02  0.19392763614E+03  0.17303332795E+03 0.  0.
         24    2    3    3    0    0  0.26451289002E+02  0.37362586794E+02 -0.33617801103E+02  0.94100580968E+02  0.75027522988E+02 0.  0.
         -6    2    1    2    0  502 -0.77335233679E+02  0.54085392471E+01  0.14524906753E+02  0.18575282143E+03  0.16817594087E+03 0.  0.
        -24    2    5    5    0    0 -0.48638393945E+02  0.61601835897E+02  0.38611374503E+02  0.11805169051E+03  0.79277259284E+02 0.  0.
          5    1    3    3  501    0  0.50883944677E+02 -0.42771126041E+02  0.74329038038E+02  0.99827055173E+02  0.47000000000E+01 0. -1.
        -11    1    4    4    0    0 -0.24830326733E+02  0.72492665950E+01 -0.20974342926E+02  0.33301952690E+02  0.00000000000E+00 0.  1.
         12    1    4    4    0    0  0.51281615735E+02  0.30113320199E+02 -0.12643458177E+02  0.60798628278E+02  0.00000000000E+00 0. -1.
         -5    1    5    5    0  502 -0.28696839734E+02 -0.56193296649E+02 -0.24086467750E+02  0.67701130919E+02  0.47000000000E+01 0.  1.
         11    1    6    6    0    0 -0.36393028920E+02  0.15727336389E+02 -0.18526151059E+02  0.43760940768E+02  0.00000000000E+00 0. -1.
        -12    1    6    6    0    0 -0.12245365025E+02  0.45874499508E+02  0.57137525562E+02  0.74290749740E+02  0.00000000000E+00 0.  1.
</event>
<event>
12    1  0.8135779E-002  0.2130270E+03  0.7818608E-02  0.1139699E+00
         21   -1    0    0  503  502  0.00000000000E+00  0.00000000000E+00  0.10443308093E+04  0.10443308093E+04  0.00000000000E+00 0. -1.
         21   -1    0    0  501  503 -0.00000000000E+00 -0.00000000000E+00 -0.11525988671E+03  0.11525988671E+03  0.00000000000E+00 0. -1.
          6    2    1    2  501    0  0.11314134875E+03  0.54020386569E+02  0.41652967914E+01  0.21046957344E+03  0.16899977717E+03 0.  0.
         24    2    3    3    0    0  0.14247142477E+02  0.19059761032E+02 -0.44433413725E+02  0.94770679598E+02  0.80255204796E+02 0.  0.
         -6    2    1    2    0  502 -0.11314134875E+03 -0.54020386569E+02  0.92490562584E+03  0.94912112260E+03  0.17222462572E+03 0.  0.
        -24    2    5    5    0    0 -0.57212405762E+02 -0.91445620587E+02  0.74553392868E+03  0.75748346830E+03  0.79528642895E+02 0.  0.
          5    1    3    3  501    0  0.98894206274E+02  0.34960625537E+02  0.48598710517E+02  0.11569889384E+03  0.47000000000E+01 0. -1.
        -13    1    4    4    0    0  0.37579070677E+02 -0.15585500872E+02 -0.13753681238E+02  0.42944826673E+02  0.00000000000E+00 0.  1.
         14    1    4    4    0    0 -0.23331928200E+02  0.34645261904E+02 -0.30679732488E+02  0.51825852925E+02  0.00000000000E+00 0. -1.
         -5    1    5    5    0  502 -0.55928942988E+02  0.37425234018E+02  0.17937169716E+03  0.19163765431E+03  0.47000000000E+01 0.  1.
         13    1    6    6    0    0  0.28488557664E+01 -0.51591282222E+02  0.46401677318E+03  0.46688472044E+03  0.00000000000E+00 0. -1.
        -14    1    6    6    0    0 -0.60061261529E+02 -0.39854338365E+02  0.28151715549E+03  0.29059874786E+03  0.00000000000E+00 0.  1.
</event>
<event>
12    1  0.8135779E-002  0.2257959E+03  0.7818608E-02  0.1130114E+00
         21   -1    0    0  501  502  0.00000000000E+00  0.00000000000E+00  0.13941718232E+03  0.13941718232E+03  0.00000000000E+00 0. -1.
         21   -1    0    0  502  503 -0.00000000000E+00 -0.00000000000E+00 -0.38748829821E+03  0.38748829821E+03  0.00000000000E+00 0. -1.
         -6    2    1    2    0  503  0.41540285199E+02 -0.13611089871E+03 -0.19305101183E+03  0.29707322973E+03  0.17530555785E+03 0.  0.
        -24    2    3    3    0    0  0.95033743837E+01 -0.83742208756E+02 -0.20647578869E+03  0.23405610526E+03  0.71041800690E+02 0.  0.
          6    2    1    2  501    0 -0.41540285199E+02  0.13611089871E+03 -0.55020104059E+02  0.22983225080E+03  0.17188333140E+03 0.  0.
         24    2    5    5    0    0 -0.49584026886E+02  0.39546775763E+02 -0.81989417776E+02  0.12914081371E+03  0.77023126025E+02 0.  0.
          5    1    5    5  501    0  0.80437416877E+01  0.96564122947E+02  0.26969313717E+02  0.10069143709E+03  0.47000000000E+01 0. -1.
        -11    1    6    6    0    0 -0.25493476555E+02 -0.81191435393E+00  0.87377734516E+01  0.26961551081E+02  0.00000000000E+00 0.  1.
         12    1    6    6    0    0 -0.24090550331E+02  0.40358690117E+02 -0.90727191228E+02  0.10217926263E+03  0.00000000000E+00 0. -1.
         -5    1    3    3    0  503  0.32036910815E+02 -0.52368689953E+02  0.13424776859E+02  0.63017124464E+02  0.47000000000E+01 0.  1.
         11    1    4    4    0    0  0.22494692169E+02 -0.63658500208E+02 -0.77080593883E+02  0.10246869658E+03  0.00000000000E+00 0. -1.
        -12    1    4    4    0    0 -0.12991317785E+02 -0.20083708548E+02 -0.12939519481E+03  0.13158740869E+03  0.00000000000E+00 0.  1.
</event>
<event>
12    1  0.8135779E-002  0.1835361E+03  0.7818608E-02  0.1164768E+00
         21   -1    0    0  503  502  0.00000000000E+00  0.00000000000E+00  0.69220634462E+03  0.69220634462E+03  0.00000000000E+00 0. -1.
         21   -1    0    0  501  503 -0.00000000000E+00 -0.00000000000E+00 -0.74214755908E+02  0.74214755908E+02  0.00000000000E+00 0. -1.
          6    2    1    2  501    0 -0.38515907042E+02 -0.47055363819E+02  0.83259432949E+02  0.20153819575E+03  0.17316994200E+03 0.  0.
         24    2    3    3    0    0 -0.92935490931E+01  0.29129172428E+02  0.85614227776E+02  0.11977228093E+03  0.77979000640E+02 0.  0.
         -6    2    1    2    0  502  0.38515907042E+02  0.47055363819E+02  0.53473215576E+03  0.56488290478E+03  0.17162906323E+03 0.  0.
        -24    2    5    5    0    0  0.57472063124E+02 -0.14336161997E+02  0.19386820329E+03  0.21798439024E+03  0.80148303538E+02 0.  0.
          5    1    3    3  501    0 -0.29222357948E+02 -0.76184536247E+02 -0.23547948264E+01  0.81765914818E+02  0.47000000000E+01 0. -1.
        -11    1    4    4    0    0  0.28165093554E+02  0.28427660795E+02  0.21279181778E+02  0.45323371127E+02  0.00000000000E+00 0.  1.
         12    1    4    4    0    0 -0.37458642647E+02  0.70151163357E+00  0.64335045998E+02  0.74448909805E+02  0.00000000000E+00 0. -1.
         -5    1    5    5    0  502 -0.18956156082E+02  0.61391525816E+02  0.34086395247E+03  0.34689851454E+03  0.47000000000E+01 0.  1.
         13    1    6    6    0    0  0.75982360383E+02 -0.89353575315E+01  0.12579464467E+03  0.14723264696E+03  0.00000000000E+00 0. -1.
        -14    1    6    6    0    0 -0.18510297259E+02 -0.54008044654E+01  0.68073558620E+02  0.70751743277E+02  0.00000000000E+00 0.  1.
</event>
<event>
12    1  0.8135779E-002  0.1738349E+03  0.7818608E-02  0.1174179E+00
         21   -1    0    0  501  502  0.00000000000E+00  0.00000000000E+00  0.20551237706E+03  0.20551237706E+03  0.00000000000E+00 0.  1.
         21   -1    0    0  502  503 -0.00000000000E+00 -0.00000000000E+00 -0.23888302930E+03  0.23888302930E+03  0.00000000000E+00 0.  1.
         -6    2    1    2    0  503 -0.12810242591E+02  0.15419144702E+02 -0.15516767352E+03  0.23301408562E+03  0.17267514254E+03 0.  0.
        -24    2    3    3    0    0 -0.38452406019E+02 -0.49098431614E+02 -0.10934156936E+03  0.14969445995E+03  0.81016103547E+02 0.  0.
          6    2    1    2  501    0  0.12810242591E+02 -0.15419144702E+02  0.12179702129E+03  0.21138132074E+03  0.17159748257E+03 0.  0.
         24    2    5    5    0    0  0.15989119673E+02  0.59602909299E+02  0.53328787897E+02  0.10965422096E+03  0.73293449981E+02 0.  0.
          5    1    5    5  501    0 -0.31788770824E+01 -0.75022054000E+02  0.68468233393E+02  0.10172709978E+03  0.47000000000E+01 0. -1.
        -13    1    6    6    0    0  0.79475920319E+01  0.10926666052E+02  0.58507314285E+02  0.60047165420E+02  0.00000000000E+00 0.  1.
         14    1    6    6    0    0  0.80415276413E+01  0.48676243247E+02 -0.51785263885E+01  0.49607055536E+02  0.00000000000E+00 0. -1.
         -5    1    3    3    0  503  0.25642163428E+02  0.64517576316E+02 -0.45826104169E+02  0.83319625672E+02  0.47000000000E+01 0.  1.
         13    1    4    4    0    0  0.17652479686E+02 -0.27596322718E+02 -0.71604577989E+02  0.78742508569E+02  0.00000000000E+00 0. -1.
        -14    1    4    4    0    0 -0.56104885705E+02 -0.21502108896E+02 -0.37736991366E+02  0.70951951378E+02  0.00000000000E+00 0.  1.
</event>
<event>
12    1  0.8135779E-002  0.2009924E+03  0.7818608E-02  0.1149142E+00
         21   -1    0    0  501  502  0.00000000000E+00  0.00000000000E+00  0.90422525712E+02  0.90422525712E+02  0.00000000000E+00 0. -1.
         21   -1    0    0  502  503 -0.00000000000E+00 -0.00000000000E+00 -0.45278785606E+03  0.45278785606E+03  0.00000000000E+00 0. -1.
         -6    2    1    2    0  503  0.10323165800E+03  0.56926540501E+01 -0.21895318062E+03  0.29721780959E+03  0.17236226243E+03 0.  0.
        -24    2    3    3    0    0  0.32433642126E+01  0.47135731442E+02 -0.90396377771E+02  0.12909842012E+03  0.79136593135E+02 0.  0.
          6    2    1    2  501    0 -0.10323165800E+03 -0.56926540501E+01 -0.14341214972E+03  0.24599257218E+03  0.17104420293E+03 0.  0.
         24    2    5    5    0    0 -0.10728144920E+03 -0.58329443147E+02 -0.92169931334E+02  0.17227088391E+03  0.79185402198E+02 0.  0.
          5    1    5    5  501    0  0.40497912054E+01  0.52636789097E+02 -0.51242218389E+02  0.73721688266E+02  0.47000000000E+01 0. -1.
        -13    1    6    6    0    0 -0.53225443266E+01 -0.25246583579E+02 -0.51539259045E+02  0.57636921183E+02  0.00000000000E+00 0.  1.
         14    1    6    6    0    0 -0.10195890488E+03 -0.33082859568E+02 -0.40630672289E+02  0.11463396273E+03  0.00000000000E+00 0. -1.
         -5    1    3    3    0  503  0.99988293784E+02 -0.41443077392E+02 -0.12855680285E+03  0.16811938947E+03  0.47000000000E+01 0.  1.
         13    1    4    4    0    0 -0.44769801190E+01 -0.15678991430E+02 -0.53304007116E+02  0.55742185980E+02  0.00000000000E+00 0. -1.
        -14    1    4    4    0    0  0.77203443316E+01  0.62814722872E+02 -0.37092370656E+02  0.73356234138E+02  0.00000000000E+00 0.  1.
</event>
<event>
12    1  0.8135779E-002  0.1767180E+03  0.7818608E-02  0.1172774E+00
         21   -1    0    0  503  502  0.00000000000E+00  0.00000000000E+00  0.10449666039E+03  0.10449666039E+03  0.00000000000E+00 0. -1.
         21   -1    0    0  501  503 -0.00000000000E+00 -0.00000000000E+00 -0.34625176086E+03  0.34625176086E+03  0.00000000000E+00 0. -1.
          6    2    1    2  501    0 -0.26054968361E+02 -0.27999809272E+02 -0.21189831611E+03  0.27152597617E+03  0.16541647037E+03 0.  0.
         24    2    3    3    0    0  0.36067462770E+01  0.30596445085E+02 -0.55237192113E+02  0.10159029389E+03  0.79500247485E+02 0.  0.
         -6    2    1    2    0  502  0.26054968361E+02  0.27999809272E+02 -0.29856784361E+02  0.17922244508E+03  0.17252943677E+03 0.  0.
        -24    2    5    5    0    0 -0.40198649317E+02 -0.14145782770E+02  0.41380723224E+01  0.93528028312E+02  0.83152473567E+02 0.  0.
          5    1    3    3  501    0 -0.29661714638E+02 -0.58596254357E+02 -0.15666112399E+03  0.16993568228E+03  0.47000000000E+01 0. -1.
        -11    1    4    4    0    0 -0.20898441519E+02  0.44325008465E+02 -0.54776555601E+02  0.73497770557E+02  0.00000000000E+00 0.  1.
         12    1    4    4    0    0  0.24505187796E+02 -0.13728563380E+02 -0.46063651207E+00  0.28092523336E+02  0.00000000000E+00 0. -1.
         -5    1    5    5    0  502  0.66253617678E+02  0.42145592042E+02 -0.33994856683E+02  0.85694416766E+02  0.47000000000E+01 0.  1.
         11    1    6    6    0    0 -0.44102126188E+02  0.26577745711E+02  0.91964895965E+01  0.52306304804E+02  0.00000000000E+00 0. -1.
        -12    1    6    6    0    0  0.39034768710E+01 -0.40723528481E+02 -0.50584172741E+01  0.41221723508E+02  0.00000000000E+00 0.  1.
</event>
<event>
12    1  0.8135779E-002  0.2083072E+03  0.7818608E-02  0.1143190E+00
         21   -1    0    0  501  502  0.00000000000E+00  0.00000000000E+00  0.46416165692E+03  0.46416165692E+03  0.00000000000E+00 0.  1.
         21   -1    0    0  502  503 -0.00000000000E+00 -0.00000000000E+00 -0.16280811421E+03  0.16280811421E+03  0.00000000000E+00 0.  1.
         -6    2    1    2    0  503  0.11046361499E+03  0.36970844167E+02 -0.54505481742E+02  0.21532008134E+03  0.17269289602E+03 0.  0.
        -24    2    3    3    0    0  0.13174415830E+03  0.40959112252E+01 -0.39194025233E+01  0.15117443340E+03  0.73925962041E+02 0.  0.
          6    2    1    2  501    0 -0.11046361499E+03 -0.36970844167E+02  0.35585902446E+03  0.41164968979E+03  0.17102855979E+03 0.  0.
         24    2    5    5    0    0 -0.51918356799E+02 -0.87369813281E+02  0.19649421640E+03  0.23448638831E+03  0.77748885387E+02 0.  0.
          5    1    5    5  501    0 -0.58545258187E+02  0.50398969114E+02  0.15936480805E+03  0.17716330148E+03  0.47000000000E+01 0. -1.
        -11    1    6    6    0    0 -0.32885320433E+02 -0.76327704918E+02  0.19553098116E+03  0.21246111981E+03  0.00000000000E+00 0.  1.
         12    1    6    6    0    0 -0.19033036366E+02 -0.11042108363E+02  0.96323524168E+00  0.22025268501E+02  0.00000000000E+00 0. -1.
         -5    1    3    3    0  503 -0.21280543311E+02  0.32874932942E+02 -0.50586079219E+02  0.64145647945E+02  0.47000000000E+01 0.  1.
         11    1    4    4    0    0  0.61231263352E+02 -0.10490501411E+02  0.32903950420E+02  0.70299275848E+02  0.00000000000E+00 0. -1.
        -12    1    4    4    0    0  0.70512894944E+02  0.14586412636E+02 -0.36823352943E+02  0.80875157552E+02  0.00000000000E+00 0.  1.
</event>
<event>
12    1  0.8135779E-002  0.1880753E+03  0.7818608E-02  0.1160323E+00
         21   -1    0    0  503  502  0.00000000000E+00  0.00000000000E+00  0.50739723555E+03  0.50739723555E+03  0.00000000000E+00 0. -1.
         21   -1    0    0  501  503 -0.00000000000E+00 -0.00000000000E+00 -0.81491925456E+02  0.81491925456E+02  0.00000000000E+00 0. -1.
          6    2    1    2  501    0 -0.44948859719E+02 -0.59704415947E+02  0.99893828430E+02  0.21251725016E+03  0.17204588744E+03 0.  0.
         24    2    3    3    0    0 -0.62284398994E+02 -0.10576706131E+02  0.33523732517E+02  0.12801202887E+03  0.10616979713E+03 0.  0.
         -6    2    1    2    0  502  0.44948859719E+02  0.59704415947E+02  0.32601148167E+03  0.37637191085E+03  0.17259001079E+03 0.  0.
        -24    2    5    5    0    0  0.40666030003E+02  0.60541674408E+00  0.29726961334E+03  0.31034752647E+03  0.79323840348E+02 0.  0.
          5    1    3    3  501    0  0.17335539275E+02 -0.49127709815E+02  0.66370095913E+02  0.84505221290E+02  0.47000000000E+01 0. -1.
        -13    1    4    4    0    0  0.16766489463E+02 -0.36629559436E+02  0.12181903664E+02  0.42086085234E+02  0.00000000000E+00 0.  1.
         14    1    4    4    0    0 -0.79050888457E+02  0.26052853305E+02  0.21341828854E+02  0.85925943638E+02  0.00000000000E+00 0. -1.
         -5    1    5    5    0  502  0.42828297154E+01  0.59098999203E+02  0.28741868326E+02  0.66024384375E+02  0.47000000000E+01 0.  1.
         13    1    6    6    0    0  0.33491971353E+02  0.34375287913E+02  0.22745604268E+03  0.23246424223E+03  0.00000000000E+00 0. -1.
        -14    1    6    6    0    0  0.71740586507E+01 -0.33769871169E+02  0.69813570664E+02  0.77883284247E+02  0.00000000000E+00 0.  1.
</event>
<event>
12    1  0.8135779E-002  0.1764489E+03  0.7818608E-02  0.1171360E+00
         21   -1    0    0  501  502  0.00000000000E+00  0.00000000000E+00  0.81346049885E+03  0.81346049885E+03  0.00000000000E+00 0. -1.
         21   -1    0    0  502  503 -0.00000000000E+00 -0.00000000000E+00 -0.74014461943E+02  0.74014461943E+02  0.00000000000E+00 0. -1.
         -6    2    1    2    0  503 -0.29587408450E+02 -0.10428870720E+02  0.61249563185E+02  0.18677723936E+03  0.17363770348E+03 0.  0.
        -24    2    3    3    0    0 -0.71145421407E+02 -0.35176066104E+02  0.97422795369E+01  0.11596352325E+03  0.83985713670E+02 0.  0.
          6    2    1    2  501    0  0.29587408450E+02  0.10428870720E+02  0.67819647372E+03  0.70069772144E+03  0.17332819670E+03 0.  0.
         24    2    5    5    0    0  0.58343934549E+02  0.16368464579E+01  0.22165897443E+03  0.24314683274E+03  0.81123284953E+02 0.  0.
          5    1    5    5  501    0 -0.28756526099E+02  0.87920242622E+01  0.45653749929E+03  0.45755088869E+03  0.47000000000E+01 0. -1.
        -13    1    6    6    0    0 -0.15851755257E+02 -0.99937501123E+01  0.17607167833E+02  0.25713139542E+02  0.00000000000E+00 0.  1.
         14    1    6    6    0    0  0.74195689806E+02  0.11630596570E+02  0.20405180660E+03  0.21743369320E+03  0.00000000000E+00 0. -1.
         -5    1    3    3    0  503  0.41558012957E+02  0.24747195384E+02  0.51507283648E+02  0.70813716109E+02  0.47000000000E+01 0.  1.
         11    1    4    4    0    0 -0.23678039723E+02  0.26575285047E+02  0.13295336275E+02  0.37995543254E+02  0.00000000000E+00 0. -1.
        -12    1    4    4    0    0 -0.47467381683E+02 -0.61751351151E+02 -0.35530567385E+01  0.77967979998E+02  0.00000000000E+00 0.  1.
</event>
<event>
12    1  0.8135779E-002  0.1939043E+03  0.7818608E-02  0.1155073E+00
         21   -1    0    0  501  502  0.00000000000E+00  0.00000000000E+00  0.90005178951E+02  0.90005178951E+02  0.00000000000E+00 0. -1.
         21   -1    0    0  502  503 -0.00000000000E+00 -0.00000000000E+00 -0.51072680389E+03  0.51072680389E+03  0.00000000000E+00 0. -1.
         -6    2    1    2    0  503  0.37288475354E+02  0.79557339530E+02 -0.33928322994E+03  0.39078381492E+03  0.17285566007E+03 0.  0.
        -24    2    3    3    0    0  0.50661629885E+02  0.11824640532E+03 -0.24545640372E+03  0.28830821591E+03  0.79523380971E+02 0.  0.
          6    2    1    2  501    0 -0.37288475354E+02 -0.79557339530E+02 -0.81438395001E+02  0.20994816792E+03  0.17241293561E+03 0.  0.
         24    2    5    5    0    0  0.12196652596E+02 -0.19149865238E+02 -0.99514474007E+02  0.12965697618E+03  0.79952018504E+02 0.  0.
          5    1    5    5  501    0 -0.49485127951E+02 -0.60407474292E+02  0.18076079006E+02  0.80291191739E+02  0.47000000000E+01 0. -1.
        -13    1    6    6    0    0  0.20298042187E+02  0.25071020971E+02 -0.18989155620E+02  0.37432000218E+02  0.00000000000E+00 0.  1.
         14    1    6    6    0    0 -0.81013895911E+01 -0.44220886209E+02 -0.80525318387E+02  0.92224975966E+02  0.00000000000E+00 0. -1.
         -5    1    3    3    0  503 -0.13373154530E+02 -0.38689065789E+02 -0.93826826219E+02  0.10247559901E+03  0.47000000000E+01 0.  1.
         11    1    4    4    0    0 -0.95040651782E+01  0.70689623842E+02 -0.88894964014E+02  0.11397221065E+03  0.00000000000E+00 0. -1.
        -12    1    4    4    0    0  0.60165695063E+02  0.47556781478E+02 -0.15656143970E+03  0.17433600526E+03  0.00000000000E+00 0.  1.
</event>
<event>
12    1  0.8135779E-002  0.2687361E+03  0.7818608E-02  0.1103105E+00
         21   -1    0    0  501  502  0.00000000000E+00  0.00000000000E+00  0.25111922665E+03  0.25111922665E+03  0.00000000000E+00 0.  1.
         21   -1    0    0  502  503 -0.00000000000E+00 -0.00000000000E+00 -0.40673484460E+03  0.40673484460E+03  0.00000000000E+00 0.  1.
         -6    2    1    2    0  503  0.16284458639E+03  0.11014995748E+03 -0.26245559339E+03  0.37563552948E+03  0.18321501046E+03 0.  0.
        -24    2    3    3    0    0  0.83309445520E+01  0.54506734340E+02 -0.14167185631E+03  0.17172026537E+03  0.79853277590E+02 0.  0.
          6    2    1    2  501    0 -0.16284458639E+03 -0.11014995748E+03  0.10683997543E+03  0.28221854177E+03  0.17199172224E+03 0.  0.
         24    2    5    5    0    0 -0.10337481116E+03 -0.25846252180E+02  0.11784730833E+03  0.17835796084E+03  0.81050563119E+02 0.  0.
          5    1    5    5  501    0 -0.59469775235E+02 -0.84303705299E+02 -0.11007332896E+02  0.10386058093E+03  0.47000000000E+01 0. -1.
        -11    1    6    6    0    0 -0.47741544049E+02 -0.53107045910E+02  0.55282406529E+02  0.90309234440E+02  0.00000000000E+00 0.  1.
         12    1    6    6    0    0 -0.55633267106E+02  0.27260793730E+02  0.62564901798E+02  0.88048726400E+02  0.00000000000E+00 0. -1.
         -5    1    3    3    0  503  0.15451364184E+03  0.55643223138E+02 -0.12078373708E+03  0.20391526411E+03  0.47000000000E+01 0.  1.
         13    1    4    4    0    0 -0.15964850798E+02  0.93735967193E+01  0.25246310034E+01  0.18684606984E+02  0.00000000000E+00 0. -1.
        -14    1    4    4    0    0  0.24295795350E+02  0.45133137621E+02 -0.14419648731E+03  0.15303565838E+03  0.00000000000E+00 0.  1.
</event>
<event>
12    1  0.8135779E-002  0.1797240E+03  0.7818608E-02  0.1168091E+00
         21   -1    0    0  503  502  0.00000000000E+00  0.00000000000E+00  0.17175135341E+03  0.17175135341E+03  0.00000000000E+00 0.  1.
         21   -1    0    0  501  503 -0.00000000000E+00 -0.00000000000E+00 -0.21617921529E+03  0.21617921529E+03  0.00000000000E+00 0.  1.
          6    2    1    2  501    0 -0.34583880026E+01 -0.52497371166E+02 -0.92267133683E+02  0.20194856558E+03  0.17176165100E+03 0.  0.
         24    2    3    3    0    0  0.14323570444E+02  0.49941808001E+01  0.12243709802E+02  0.81258536998E+02  0.78885581022E+02 0.  0.
         -6    2    1    2    0  502  0.34583880026E+01  0.52497371166E+02  0.47839271807E+02  0.18598200312E+03  0.17185102598E+03 0.  0.
        -24    2    5    5    0    0  0.13014170009E+02  0.43942305675E+02 -0.36860095597E+02  0.10018820990E+03  0.81109283729E+02 0.  0.
          5    1    3    3  501    0 -0.17781958447E+02 -0.57491551966E+02 -0.10451084348E+03  0.12069002858E+03  0.47000000000E+01 0. -1.
        -13    1    4    4    0    0  0.18146457810E+02  0.20706901730E+01 -0.31950858038E+02  0.36802703952E+02  0.00000000000E+00 0.  1.
         14    1    4    4    0    0 -0.38228873656E+01  0.29234906271E+01  0.44194567840E+02  0.44455833046E+02  0.00000000000E+00 0. -1.
         -5    1    5    5    0  502 -0.95557820067E+01  0.85550654905E+01  0.84699367403E+02  0.85793793213E+02  0.47000000000E+01 0.  1.
         13    1    6    6    0    0  0.35758445999E+02  0.53477646746E+02 -0.12521478843E+02  0.65538634363E+02  0.00000000000E+00 0. -1.
        -14    1    6    6    0    0 -0.22744275990E+02 -0.95353410704E+01 -0.24338616754E+02  0.34649575540E+02  0.00000000000E+00 0.  1.
</event>
<event>
12    1  0.8135779E-002  0.2583335E+03  0.7818608E-02  0.1108585E+00
         21   -1    0    0  503  502  0.00000000000E+00  0.00000000000E+00  0.43724913620E+03  0.43724913620E+03  0.00000000000E+00 0.  1.
         21   -1    0    0  501  503 -0.00000000000E+00 -0.00000000000E+00 -0.16093553041E+03  0.16093553041E+03  0.00000000000E+00 0. -1.
          6    2    1    2  501    0  0.17257381501E+03 -0.83162606707E+02  0.21196794887E+03  0.33195815209E+03  0.16902089400E+03 0.  0.
         24    2    3    3    0    0  0.15396420199E+03 -0.52614453241E+02  0.22959187955E+03  0.29180593784E+03  0.77233529127E+02 0.  0.
         -6    2    1    2    0  502 -0.17257381501E+03  0.83162606707E+02  0.64345656916E+02  0.26622651452E+03  0.17331604855E+03 0.  0.
        -24    2    5    5    0    0 -0.11018111568E+03  0.12017330460E+03  0.42472786614E+02  0.19031108035E+03  0.88503493218E+02 0.  0.
          5    1    3    3  501    0  0.18609613021E+02 -0.30548153466E+02 -0.17623930671E+02  0.40152214251E+02  0.47000000000E+01 0. -1.
        -11    1    4    4    0    0  0.14583149588E+03 -0.30180329218E+02  0.16163271976E+03  0.21977901074E+03  0.00000000000E+00 0.  1.
         12    1    4    4    0    0  0.81327061078E+01 -0.22434124024E+02  0.67959159787E+02  0.72026927106E+02  0.00000000000E+00 0. -1.
         -5    1    5    5    0  502 -0.62392699337E+02 -0.37010697892E+02  0.21872870302E+02  0.75915434164E+02  0.47000000000E+01 0.  1.
         13    1    6    6    0    0 -0.96915381640E+00  0.52867211051E+02  0.31520184914E+02  0.61558129605E+02  0.00000000000E+00 0. -1.
        -14    1    6    6    0    0 -0.10921196186E+03  0.67306093549E+02  0.10952601700E+02  0.12875295075E+03  0.00000000000E+00 0.  1.
</event>
<event>
12    1  0.8135779E-002  0.1850896E+03  0.7818608E-02  0.1163263E+00
         21   -1    0    0  503  502  0.00000000000E+00  0.00000000000E+00  0.17833572374E+03  0.17833572374E+03  0.00000000000E+00 0.  1.
         21   -1    0    0  501  503 -0.00000000000E+00 -0.00000000000E+00 -0.65305139386E+03  0.65305139386E+03  0.00000000000E+00 0.  1.
          6    2    1    2  501    0 -0.26900974259E+02 -0.54410127052E+02 -0.58685911510E+03  0.61497478072E+03  0.17351148548E+03 0.  0.
         24    2    3    3    0    0 -0.21145715189E+02  0.14992611535E+02 -0.47951060676E+03  0.48692926000E+03  0.80608700414E+02 0.  0.
         -6    2    1    2    0  502  0.26900974259E+02  0.54410127052E+02  0.11214344499E+03  0.21641233688E+03  0.17485429065E+03 0.  0.
        -24    2    5    5    0    0  0.58956685390E+02  0.23387360075E+02  0.85259506031E+01  0.10350239122E+03  0.81346135684E+02 0.  0.
          5    1    3    3  501    0 -0.57552590696E+01 -0.69402738587E+02 -0.10734850835E+03  0.12804552071E+03  0.47000000000E+01 0. -1.
        -11    1    4    4    0    0  0.91909903990E+01  0.42607741858E+02 -0.25638972406E+03  0.26006842287E+03  0.00000000000E+00 0.  1.
         12    1    4    4    0    0 -0.30336705588E+02 -0.27615130323E+02 -0.22312088270E+03  0.22686083713E+03  0.00000000000E+00 0. -1.
         -5    1    5    5    0  502 -0.32055711131E+02  0.31022766977E+02  0.10361749439E+03  0.11290994566E+03  0.47000000000E+01 0.  1.
         13    1    6    6    0    0 -0.80405075349E+01  0.18267788119E+02 -0.21996771379E+02  0.29702185026E+02  0.00000000000E+00 0. -1.
        -14    1    6    6    0    0  0.66997192925E+02  0.51195719557E+01  0.30522721982E+02  0.73800206192E+02  0.00000000000E+00 0.  1.
</event>
<event>
12    1  0.8135779E-002  0.3382174E+03  0.7818608E-02  0.1067682E+00
         21   -1    0    0  503  502  0.00000000000E+00  0.00000000000E+00  0.13922683732E+03  0.13922683732E+03  0.00000000000E+00 0.  1.
         21   -1    0    0  501  503 -0.00000000000E+00 -0.00000000000E+00 -0.89100789519E+03  0.89100789519E+03  0.00000000000E+00 0. -1.
          6    2    1    2  501    0  0.27283153394E+03 -0.10181661990E+03 -0.22984030613E+03  0.40892247951E+03  0.17200976113E+03 0.  0.
         24    2    3    3    0    0  0.87106543492E+02 -0.46190356771E+02 -0.15597653554E+03  0.20139898727E+03  0.80695560315E+02 0.  0.
         -6    2    1    2    0  502 -0.27283153394E+03  0.10181661990E+03 -0.52194075173E+03  0.62131225300E+03  0.16971475306E+03 0.  0.
        -24    2    5    5    0    0 -0.11026083663E+03  0.10879470525E+03 -0.30659072597E+03  0.35135735141E+03  0.73894351267E+02 0.  0.
          5    1    3    3  501    0  0.18572499045E+03 -0.55626263127E+02 -0.73863770590E+02  0.20752349224E+03  0.47000000000E+01 0. -1.
        -13    1    4    4    0    0  0.60040950367E+02 -0.67405692964E+02 -0.92753181630E+02  0.12942795628E+03  0.00000000000E+00 0.  1.
         14    1    4    4    0    0  0.27065593125E+02  0.21215336193E+02 -0.63223353915E+02  0.71971030986E+02  0.00000000000E+00 0. -1.
         -5    1    5    5    0  502 -0.16257069731E+03 -0.69780853551E+01 -0.21535002576E+03  0.26995490159E+03  0.47000000000E+01 0.  1.
         13    1    6    6    0    0 -0.70878582758E+02  0.61074687040E+02 -0.25213241311E+03  0.26893241648E+03  0.00000000000E+00 0. -1.
        -14    1    6    6    0    0 -0.39382253873E+02  0.47720018213E+02 -0.54458312860E+02  0.82424934929E+02  0.00000000000E+00 0.  1.
</event>
<event>
12    1  0.8135779E-002  0.2067681E+03  0.7818608E-02  0.1144512E+00
         21   -1    0    0  501  502  0.00000000000E+00  0.00000000000E+00  0.21333332869E+03  0.21333332869E+03  0.00000000000E+00 0. -1.
         21   -1    0    0  502  503 -0.00000000000E+00 -0.00000000000E+00 -0.40200181689E+03  0.40200181689E+03  0.00000000000E+00 0. -1.
         -6    2    1    2    0  503 -0.99613195196E+02  0.50582294814E+02 -0.31293538340E+03  0.37409813272E+03  0.17187059525E+03 0.  0.
        -24    2    3    3    0    0 -0.40790198122E+02  0.34307490653E+00 -0.27013752889E+03  0.28556638388E+03  0.83125911260E+02 0.  0.
          6    2    1    2  501    0  0.99613195196E+02 -0.50582294814E+02  0.12426689519E+03  0.24123701286E+03  0.17398757982E+03 0.  0.
         24    2    5    5    0    0  0.76545339708E+02  0.83128855904E+01  0.11312481188E+02  0.11169336048E+03  0.80119544720E+02 0.  0.
          5    1    5    5  501    0  0.23067855488E+02 -0.58895180404E+02  0.11295441400E+03  0.12954365239E+03  0.47000000000E+01 0. -1.
        -11    1    6    6    0    0  0.10305612943E+02  0.17309801956E+02 -0.27733018291E+02  0.34277619600E+02  0.00000000000E+00 0.  1.
         12    1    6    6    0    0  0.66239726764E+02 -0.89969163653E+01  0.39045499479E+02  0.77415740876E+02  0.00000000000E+00 0. -1.
         -5    1    3    3    0  503 -0.58822997074E+02  0.50239219907E+02 -0.42797854506E+02  0.88531748835E+02  0.47000000000E+01 0.  1.
         13    1    4    4    0    0 -0.46207018720E+02  0.54941143766E+00 -0.27465177636E+03  0.27851209792E+03  0.00000000000E+00 0. -1.
        -14    1    4    4    0    0  0.54168205971E+01 -0.20633653113E+00  0.45142474682E+01  0.70542859560E+01  0.00000000000E+00 0.  1.
</event>
<event>
12    1  0.8135779E-002  0.2053812E+03  0.7818608E-02  0.1145485E+00
         21   -1    0    0  503  502  0.00000000000E+00  0.00000000000E+00  0.21700110884E+02  0.21700110884E+02  0.00000000000E+00 0. -1.
         21   -1    0    0  501  503 -0.00000000000E+00 -0.00000000000E+00 -0.23135318423E+04  0.23135318423E+04  0.00000000000E+00 0. -1.
          6    2    1    2  501    0  0.10710124255E+03  0.32443540955E+02 -0.16163334203E+04  0.16292012173E+04  0.17099596894E+03 0.  0.
         24    2    3    3    0    0  0.13287998036E+03  0.12700563886E+02 -0.10029818339E+04  0.10149727688E+04  0.79867194066E+02 0.  0.
         -6    2    1    2    0  502 -0.10710124255E+03 -0.32443540955E+02 -0.67549831109E+03  0.70603073585E+03  0.17221548181E+03 0.  0.
        -24    2    5    5    0    0 -0.31037092433E+02 -0.60369505778E+02 -0.52168046837E+03  0.53211226880E+03  0.79907303711E+02 0.  0.
          5    1    3    3  501    0 -0.25778737808E+02  0.19742977069E+02 -0.61335158638E+03  0.61422844853E+03  0.47000000000E+01 0. -1.
        -13    1    4    4    0    0  0.44407246165E+01  0.12360332873E+02 -0.22028919669E+02  0.25647049843E+02  0.00000000000E+00 0.  1.
         14    1    4    4    0    0  0.12843925574E+03  0.34023101294E+00 -0.98095291425E+03  0.98932571894E+03  0.00000000000E+00 0. -1.
         -5    1    5    5    0  502 -0.76064150118E+02  0.27925964823E+02 -0.15381784272E+03  0.17391846706E+03  0.47000000000E+01 0.  1.
         13    1    6    6    0    0 -0.23989266079E+02 -0.62772684146E+02 -0.21315790860E+03  0.22349986300E+03  0.00000000000E+00 0. -1.
        -14    1    6    6    0    0 -0.70478263545E+01  0.24031783683E+01 -0.30852255977E+03  0.30861240580E+03  0.00000000000E+00 0.  1.
</event>
<event>
12    1  0.8135779E-002  0.1845761E+03  0.7818608E-02  0.1164710E+00
         21   -1    0    0  503  502  0.00000000000E+00  0.00000000000E+00  0.70360494497E+02  0.70360494497E+02  0.00000000000E+00 0.  1.
         21   -1    0    0  501  503 -0.00000000000E+00 -0.00000000000E+00 -0.50388139119E+03  0.50388139119E+03  0.00000000000E+00 0.  1.
          6    2    1    2  501    0  0.10476419085E+02 -0.66895034028E+02 -0.28785309418E+03  0.33910906768E+03  0.16598450234E+03 0.  0.
         24    2    3    3    0    0  0.63123376715E+02 -0.66600888861E+02 -0.16102623318E+03  0.20170844417E+03  0.79602824019E+02 0.  0.
         -6    2    1    2    0  502 -0.10476419085E+02  0.66895034028E+02 -0.14566780251E+03  0.23513281801E+03  0.17170798607E+03 0.  0.
        -24    2    5    5    0    0  0.74527166320E+01 -0.30246412205E+02 -0.77498266307E+02  0.11501999542E+03  0.79077364837E+02 0.  0.
          5    1    3    3  501    0 -0.52646957630E+02 -0.29414516760E+00 -0.12682686100E+03  0.13740062351E+03  0.47000000000E+01 0. -1.
        -13    1    4    4    0    0  0.53901774301E+02 -0.21569073597E+02 -0.13920291586E+03  0.15082465976E+03  0.00000000000E+00 0.  1.
         14    1    4    4    0    0  0.92216024139E+01 -0.45031815264E+02 -0.21823317330E+02  0.50883784414E+02  0.00000000000E+00 0. -1.
         -5    1    5    5    0  502 -0.17929135717E+02  0.97141446233E+02 -0.68169536199E+02  0.12011282259E+03  0.47000000000E+01 0.  1.
         11    1    6    6    0    0  0.41503776747E+02 -0.34269543458E+01 -0.38388967747E+02  0.56639388636E+02  0.00000000000E+00 0. -1.
        -12    1    6    6    0    0 -0.34051060114E+02 -0.26819457859E+02 -0.39109298560E+02  0.58380606785E+02  0.00000000000E+00 0.  1.
</event>
<event>
12    1  0.8135779E-002  0.1927568E+03  0.7818608E-02  0.1156261E+00
         21   -1    0    0  503  502  0.00000000000E+00  0.00000000000E+00  0.34874791714E+03  0.34874791714E+03  0.00000000000E+00 0. -1.
         21   -1    0    0  501  503 -0.00000000000E+00 -0.00000000000E+00 -0.14075588608E+03  0.14075588608E+03  0.00000000000E+00 0.  1.
          6    2    1    2  501    0  0.80624246452E+02 -0.32143125425E+02 -0.17582378279E+02  0.19355705479E+03  0.17210968539E+03 0.  0.
         24    2    3    3    0    0  0.10826170243E+03 -0.10275346858E+02 -0.51045391238E+02  0.14473193883E+03  0.80718790773E+02 0.  0.
         -6    2    1    2    0  502 -0.80624246452E+02  0.32143125425E+02  0.22557440934E+03  0.29594674843E+03  0.17078411556E+03 0.  0.
        -24    2    5    5    0    0 -0.52695462927E+02  0.68010211015E+02  0.22096857504E+03  0.25001453220E+03  0.79233544300E+02 0.  0.
          5    1    3    3  501    0 -0.27637455978E+02 -0.21867778567E+02  0.33463012959E+02  0.48825115961E+02  0.47000000000E+01 0. -1.
        -13    1    4    4    0    0  0.38295240423E+02 -0.41035140225E+02 -0.36438470308E+02  0.66919132471E+02  0.00000000000E+00 0.  1.
         14    1    4    4    0    0  0.69966462007E+02  0.30759793368E+02 -0.14606920930E+02  0.77812806355E+02  0.00000000000E+00 0. -1.
         -5    1    5    5    0  502 -0.27928783525E+02 -0.35867085590E+02  0.46058343044E+01  0.45932216228E+02  0.47000000000E+01 0.  1.
         11    1    6    6    0    0 -0.70431343482E+02  0.67137573601E+02  0.16794767778E+03  0.19409907369E+03  0.00000000000E+00 0. -1.
        -12    1    6    6    0    0  0.17735880555E+02  0.87263741385E+00  0.53020897255E+02  0.55915458514E+02  0.00000000000E+00 0.  1.
</event>
<event>
12    1  0.8135779E-002  0.2447566E+03  0.7818608E-02  0.1116878E+00
         21   -1    0    0  501  502  0.00000000000E+00  0.00000000000E+00  0.10681478535E+03  0.10681478535E+03  0.00000000000E+00 0.  1.
         21   -1    0    0  502  503 -0.00000000000E+00 -0.00000000000E+00 -0.56119583314E+03  0.56119583314E+03  0.00000000000E+00 0.  1.
         -6    2    1    2    0  503 -0.71170900749E+02  0.15871792097E+03 -0.20193825288E+03  0.31730874824E+03  0.17218916396E+03 0.  0.
        -24    2    3    3    0    0  0.23260536952E+02  0.46101590739E+02 -0.55927203706E+02  0.11008652274E+03  0.79528492547E+02 0.  0.
          6    2    1    2  501    0  0.71170900749E+02 -0.15871792097E+03 -0.25244279491E+03  0.35070187025E+03  0.17031665082E+03 0.  0.
         24    2    5    5    0    0  0.82721752966E+02 -0.12660091806E+03 -0.11282331900E+03  0.20689431789E+03  0.84885078773E+02 0.  0.
          5    1    5    5  501    0 -0.11550852218E+02 -0.32117002911E+02 -0.13961947591E+03  0.14380755236E+03  0.47000000000E+01 0. -1.
        -13    1    6    6    0    0  0.32355317777E+02 -0.11082054631E+03 -0.52748695618E+02  0.12692708522E+03  0.00000000000E+00 0.  1.
         14    1    6    6    0    0  0.50366435189E+02 -0.15780371744E+02 -0.60074623385E+02  0.79967232670E+02  0.00000000000E+00 0. -1.
         -5    1    3    3    0  503 -0.94431437701E+02  0.11261633023E+03 -0.14601104918E+03  0.20722222550E+03  0.47000000000E+01 0.  1.
         11    1    4    4    0    0  0.24348480739E+01  0.30188861375E+02  0.15485534732E+02  0.34016137673E+02  0.00000000000E+00 0. -1.
        -12    1    4    4    0    0  0.20825688878E+02  0.15912729363E+02 -0.71412738438E+02  0.76070385067E+02  0.00000000000E+00 0.  1.
</event>
<event>
12    1  0.8135779E-002  0.1744792E+03  0.7818608E-02  0.1173515E+00
         21   -1    0    0  501  502  0.00000000000E+00  0.00000000000E+00  0.25036978224E+02  0.25036978224E+02  0.00000000000E+00 0. -1.
         21   -1    0    0  502  503 -0.00000000000E+00 -0.00000000000E+00 -0.13101544699E+04  0.13101544699E+04  0.00000000000E+00 0. -1.
         -6    2    1    2    0  503 -0.16121780500E+02 -0.19302797459E+02 -0.82999404084E+03  0.84813507031E+03  0.17265711644E+03 0.  0.
        -24    2    3    3    0    0 -0.44033702377E+02  0.35605423687E+01 -0.78552988293E+03  0.79068109716E+03  0.78535062438E+02 0.  0.
          6    2    1    2  501    0  0.16121780500E+02  0.19302797459E+02 -0.45512345081E+03  0.48705637780E+03  0.17162182226E+03 0.  0.
         24    2    5    5    0    0 -0.24883087518E+02  0.33615093820E+02 -0.42165953047E+03  0.43202761265E+03  0.84273102973E+02 0.  0.
          5    1    5    5  501    0  0.41004868018E+02 -0.14312296361E+02 -0.33463920348E+02  0.55028765145E+02  0.47000000000E+01 0. -1.
        -11    1    6    6    0    0 -0.17395399490E+02  0.46974672966E+02 -0.40928287856E+03  0.41233687017E+03  0.00000000000E+00 0.  1.
         12    1    6    6    0    0 -0.74876880274E+01 -0.13359579145E+02 -0.12376651908E+02  0.19690742479E+02  0.00000000000E+00 0. -1.
         -5    1    3    3    0  503  0.27911921877E+02 -0.22863339828E+02 -0.44464157912E+02  0.57453973142E+02  0.47000000000E+01 0.  1.
         11    1    4    4    0    0 -0.38195663052E+02 -0.33954209888E+02 -0.39025053654E+03  0.39358261943E+03  0.00000000000E+00 0. -1.
        -12    1    4    4    0    0 -0.58380393255E+01  0.37514752257E+02 -0.39527934639E+03  0.39709847774E+03  0.00000000000E+00 0.  1.
</event>
<event>
12    1  0.8135779E-002  0.1808892E+03  0.7818608E-02  0.1167380E+00
         21   -1    0    0  503  502  0.00000000000E+00  0.00000000000E+00  0.79524670624E+03  0.79524670624E+03  0.00000000000E+00 0.  1.
         21   -1    0    0  501  503 -0.00000000000E+00 -0.00000000000E+00 -0.46472713252E+02  0.46472713252E+02  0.00000000000E+00 0.  1.
          6    2    1    2  501    0  0.24645381377E+02 -0.48107360958E+02  0.22818013146E+03  0.29118220710E+03  0.17262442566E+03 0.  0.
         24    2    3    3    0    0  0.15152346010E+02 -0.72830433067E+02  0.66943052682E+02  0.12771712340E+03  0.79350020393E+02 0.  0.
         -6    2    1    2    0  502 -0.24645381377E+02  0.48107360958E+02  0.52059386152E+03  0.55053721239E+03  0.17073822236E+03 0.  0.
        -24    2    5    5    0    0 -0.46453162768E+02  0.62890563603E+02  0.22930562558E+03  0.25802217208E+03  0.88776416024E+02 0.  0.
          5    1    3    3  501    0  0.94930353671E+01  0.24723072108E+02  0.16123707878E+03  0.16346508370E+03  0.47000000000E+01 0. -1.
        -13    1    4    4    0    0  0.33458538672E+02 -0.35577313513E+02 -0.13053272528E+00  0.48838878833E+02  0.00000000000E+00 0.  1.
         14    1    4    4    0    0 -0.18306192662E+02 -0.37253119553E+02  0.67073585407E+02  0.78878244565E+02  0.00000000000E+00 0. -1.
         -5    1    5    5    0  502  0.21807781391E+02 -0.14783202644E+02  0.29128823594E+03  0.29251504031E+03  0.47000000000E+01 0.  1.
         13    1    6    6    0    0 -0.20654664323E+02 -0.16604570932E+02  0.10456723594E+03  0.10787323007E+03  0.00000000000E+00 0. -1.
        -14    1    6    6    0    0 -0.25798498445E+02  0.79495134535E+02  0.12473838964E+03  0.15014894201E+03  0.00000000000E+00 0.  1.
</event>
<event>
12    1  0.8135779E-002  0.3076459E+03  0.7818608E-02  0.1081539E+00
         21   -1    0    0  501  502  0.00000000000E+00  0.00000000000E+00  0.72828188410E+02  0.72828188410E+02  0.00000000000E+00 0. -1.
         21   -1    0    0  502  503 -0.00000000000E+00 -0.00000000000E+00 -0.14827436616E+04  0.14827436616E+04  0.00000000000E+00 0. -1.
         -6    2    1    2    0  503  0.10283224038E+03 -0.23378746819E+03 -0.97936996187E+03  0.10264070217E+04  0.17063060097E+03 0.  0.
        -24    2    3    3    0    0  0.47101143073E+02 -0.15464124253E+03 -0.39787254778E+03  0.43688907213E+03  0.80231324921E+02 0.  0.
          6    2    1    2  501    0 -0.10283224038E+03  0.23378746819E+03 -0.43054551135E+03  0.52916482836E+03  0.17150780826E+03 0.  0.
         24    2    5    5    0    0 -0.77567649871E+02  0.22876257497E+03 -0.43357787849E+03  0.50280511790E+03  0.80462126853E+02 0.  0.
          5    1    5    5  501    0 -0.25264590504E+02  0.50248932197E+01  0.30323671429E+01  0.26359710463E+02  0.47000000000E+01 0. -1.
        -13    1    6    6    0    0 -0.51232326346E+02  0.90411684624E+02 -0.25509304763E+03  0.27544779347E+03  0.00000000000E+00 0.  1.
         14    1    6    6    0    0 -0.26335323525E+02  0.13835089034E+03 -0.17848483086E+03  0.22735732443E+03  0.00000000000E+00 0. -1.
         -5    1    3    3    0  503  0.55731097302E+02 -0.79146225652E+02 -0.58149741409E+03  0.58951794954E+03  0.47000000000E+01 0.  1.
         11    1    4    4    0    0  0.24114881342E+02 -0.37765865524E+02 -0.20780826364E+03  0.21258424810E+03  0.00000000000E+00 0. -1.
        -12    1    4    4    0    0  0.22986261731E+02 -0.11687537701E+03 -0.19006428413E+03  0.22430482403E+03  0.00000000000E+00 0.  1.
</event>
<event>
12    1  0.8135779E-002  0.1952809E+03  0.7818608E-02  0.1154490E+00
         21   -1    0    0  501  502  0.00000000000E+00  0.00000000000E+00  0.29582326791E+03  0.29582326791E+03  0.00000000000E+00 0. -1.
         21   -1    0    0  502  503 -0.00000000000E+00 -0.00000000000E+00 -0.12690551978E+03  0.12690551978E+03  0.00000000000E+00 0. -1.
         -6    2    1    2    0  503 -0.88208267612E+02 -0.27750778002E+02  0.77475894283E+02  0.20709891745E+03  0.16833491397E+03 0.  0.
        -24    2    3    3    0    0  0.18899074950E+02 -0.25140992070E+02  0.49884508229E+02  0.96364241775E+02  0.76212586989E+02 0.  0.
          6    2    1    2  501    0  0.88208267612E+02  0.27750778002E+02  0.91441853849E+02  0.21562987024E+03  0.17199948881E+03 0.  0.
         24    2    5    5    0    0  0.27831360402E+02  0.79461483226E+02  0.55084477892E+02  0.12808949815E+03  0.79271103778E+02 0.  0.
          5    1    5    5  501    0  0.60376907210E+02 -0.51710705224E+02  0.36357375957E+02  0.87540372089E+02  0.47000000000E+01 0. -1.
        -11    1    6    6    0    0 -0.17544173082E+02  0.53453831990E+02  0.50480191175E+02  0.75586770434E+02  0.00000000000E+00 0.  1.
         12    1    6    6    0    0  0.45375533484E+02  0.26007651236E+02  0.46042867170E+01  0.52502727719E+02  0.00000000000E+00 0. -1.
         -5    1    3    3    0  503 -0.10710734256E+03 -0.26097859319E+01  0.27591386054E+02  0.11073467568E+03  0.47000000000E+01 0.  1.
         13    1    4    4    0    0 -0.22035246238E+02  0.52239455179E+01  0.37671387420E+02  0.43954238859E+02  0.00000000000E+00 0. -1.
        -14    1    4    4    0    0  0.40934321188E+02 -0.30364937588E+02  0.12213120809E+02  0.52410002916E+02  0.00000000000E+00 0.  1.
</event>
<event>
12    1  0.8135779E-002  0.2063195E+03  0.7818608E-02  0.1144542E+00
         21   -1    0    0  501  502  0.00000000000E+00  0.00000000000E+00  0.77675268166E+03  0.77675268166E+03  0.00000000000E+00 0. -1.
         21   -1    0    0  502  503 -0.00000000000E+00 -0.00000000000E+00 -0.74925202264E+02  0.74925202264E+02  0.00000000000E+00 0. -1.
         -6    2    1    2    0  503 -0.10955294561E+03 -0.31597582283E+02  0.57171617157E+03  0.60775842740E+03  0.17178669955E+03 0.  0.
        -24    2    3    3    0    0 -0.47570869162E+02 -0.82290444280E+02  0.29974980080E+03  0.32421065208E+03  0.78917038912E+02 0.  0.
          6    2    1    2  501    0  0.10955294561E+03  0.31597582283E+02  0.13011130783E+03  0.24391945653E+03  0.17195201002E+03 0.  0.
         24    2    5    5    0    0  0.13796024727E+03  0.49380924174E+02  0.12729860939E+03  0.20996031477E+03  0.80043065451E+02 0.  0.
          5    1    5    5  501    0 -0.28407301660E+02 -0.17783341891E+02  0.28126984385E+01  0.33959141757E+02  0.47000000000E+01 0. -1.
        -13    1    6    6    0    0  0.86457451987E+02  0.57370630068E+02  0.11780300616E+03  0.15698352926E+03  0.00000000000E+00 0.  1.
         14    1    6    6    0    0  0.51502795283E+02 -0.79897058947E+01  0.94956032295E+01  0.52976785510E+02  0.00000000000E+00 0. -1.
         -5    1    3    3    0  503 -0.61982076449E+02  0.50692861997E+02  0.27196637076E+03  0.28354777531E+03  0.47000000000E+01 0.  1.
         11    1    4    4    0    0 -0.46151169125E+02 -0.86418556024E+02  0.30320718775E+03  0.31864195571E+03  0.00000000000E+00 0. -1.
        -12    1    4    4    0    0 -0.14197000375E+01  0.41281117435E+01 -0.34573869480E+01  0.55686963710E+01  0.00000000000E+00 0.  1.
</event>
<event>
12    1  0.8135779E-002  0.1869075E+03  0.7818608E-02  0.1161986E+00
         21   -1    0    0  503  502  0.00000000000E+00  0.00000000000E+00  0.75263069760E+02  0.75263069760E+02  0.00000000000E+00 0.  1.
         21   -1    0    0  501  503 -0.00000000000E+00 -0.00000000000E+00 -0.45826879562E+03  0.45826879562E+03  0.00000000000E+00 0.  1.
          6    2    1    2  501    0  0.32494232112E+02 -0.57734004713E+02 -0.17725219515E+03  0.25759026370E+03  0.17477217412E+03 0.  0.
         24    2    3    3    0    0  0.55347908008E+02 -0.78609413299E+02 -0.68342675972E+02  0.14427015713E+03  0.83068201492E+02 0.  0.
         -6    2    1    2    0  502 -0.32494232112E+02  0.57734004713E+02 -0.20575353071E+03  0.27594160168E+03  0.17152306468E+03 0.  0.
        -24    2    5    5    0    0  0.31751057903E+02  0.68196567639E+02 -0.16760381236E+03  0.20034786172E+03  0.79933261288E+02 0.  0.
          5    1    3    3  501    0 -0.22853675896E+02  0.20875408585E+02 -0.10890951918E+03  0.11332010657E+03  0.47000000000E+01 0. -1.
        -11    1    4    4    0    0  0.46865697634E+02 -0.15409968879E+02  0.19388542653E+01  0.49372258521E+02  0.00000000000E+00 0.  1.
         12    1    4    4    0    0  0.84822103741E+01 -0.63199444420E+02 -0.70281530238E+02  0.94897898609E+02  0.00000000000E+00 0. -1.
         -5    1    5    5    0  502 -0.64245290015E+02 -0.10462562926E+02 -0.38149718351E+02  0.75593739968E+02  0.47000000000E+01 0.  1.
         13    1    6    6    0    0  0.22613231748E+02 -0.56202000766E+01 -0.86549018863E+01  0.24856633433E+02  0.00000000000E+00 0. -1.
        -14    1    6    6    0    0  0.91378261554E+01  0.73816767715E+02 -0.15894891048E+03  0.17549122828E+03  0.00000000000E+00 0.  1.
</event>
<event>
12    1  0.8135779E-002  0.2049774E+03  0.7818608E-02  0.1145611E+00
         21   -1    0    0  503  502  0.00000000000E+00  0.00000000000E+00  0.91533241881E+02  0.91533241881E+02  0.00000000000E+00 0.  1.
         21   -1    0    0  501  503 -0.00000000000E+00 -0.00000000000E+00 -0.50251927916E+03  0.50251927916E+03  0.00000000000E+00 0.  1.
          6    2    1    2  501    0  0.92634959456E+02  0.60215484759E+02 -0.29292603820E+03  0.35750679837E+03  0.17262186046E+03 0.  0.
         24    2    3    3    0    0 -0.64688138525E+01 -0.74752048599E+01 -0.15630320551E+03  0.17559617263E+03  0.79407805347E+02 0.  0.
         -6    2    1    2    0  502 -0.92634959456E+02 -0.60215484759E+02 -0.11805999908E+03  0.23654572267E+03  0.17265160066E+03 0.  0.
        -24    2    5    5    0    0 -0.93631837846E+02  0.39007613603E+01 -0.28442411428E+02  0.12624935464E+03  0.79673030456E+02 0.  0.
          5    1    3    3  501    0  0.99103773309E+02  0.67690689619E+02 -0.13662283269E+03  0.18191062574E+03  0.47000000000E+01 0. -1.
        -13    1    4    4    0    0  0.27243004947E+02  0.16007665929E+02 -0.33266412599E+02  0.45881160560E+02  0.00000000000E+00 0.  1.
         14    1    4    4    0    0 -0.33711818800E+02 -0.23482870789E+02 -0.12303679291E+03  0.12971501207E+03  0.00000000000E+00 0. -1.
         -5    1    5    5    0  502  0.99687839016E+00 -0.64116246120E+02 -0.89617587652E+02  0.11029636803E+03  0.47000000000E+01 0.  1.
         11    1    6    6    0    0 -0.22490661468E+02  0.33120052683E+02 -0.28839290104E+02  0.49340372888E+02  0.00000000000E+00 0. -1.
        -12    1    6    6    0    0 -0.71141176378E+02 -0.29219291322E+02  0.39687867665E+00  0.76908981755E+02  0.00000000000E+00 0.  1.
</event>
<event>
12    1  0.8135779E-002  0.3754960E+03  0.7818608E-02  0.1052629E+00
         21   -1    0    0  501  502  0.00000000000E+00  0.00000000000E+00  0.13199195841E+04  0.13199195841E+04  0.00000000000E+00 0. -1.
         21   -1    0    0  502  503 -0.00000000000E+00 -0.00000000000E+00 -0.12619811547E+03  0.12619811547E+03  0.00000000000E+00 0. -1.
         -6    2    1    2    0  503  0.15688652090E+03 -0.29464951090E+03  0.31327354588E+03  0.48901689523E+03  0.17194619669E+03 0.  0.
        -24    2    3    3    0    0  0.36058170684E+02 -0.16912492907E+03  0.10456280012E+03  0.21710114311E+03  0.79347929153E+02 0.  0.
          6    2    1    2  501    0 -0.15688652090E+03  0.29464951090E+03  0.88044792270E+03  0.95710080430E+03  0.17152752048E+03 0.  0.
         24    2    5    5    0    0 -0.67568320779E+02  0.10935999603E+03  0.23186467110E+03  0.27666545142E+03  0.79104106071E+02 0.  0.
          5    1    5    5  501    0 -0.89318200123E+02  0.18528951487E+03  0.64858325160E+03  0.68043535288E+03  0.47000000000E+01 0. -1.
        -11    1    6    6    0    0 -0.20414829740E+01  0.76282282044E+02  0.10054810900E+03  0.12622629057E+03  0.00000000000E+00 0.  1.
         12    1    6    6    0    0 -0.65526837805E+02  0.33077713991E+02  0.13131656210E+03  0.15043916085E+03  0.00000000000E+00 0. -1.
         -5    1    3    3    0  503  0.12082835022E+03 -0.12552458183E+03  0.20871074575E+03  0.27191575212E+03  0.47000000000E+01 0.  1.
         11    1    4    4    0    0  0.26611114074E+02 -0.17256757471E+03  0.10929021978E+03  0.20599046427E+03  0.00000000000E+00 0. -1.
        -12    1    4    4    0    0  0.94470566095E+01  0.34426456343E+01 -0.47274196525E+01  0.11110678832E+02  0.00000000000E+00 0.  1.
</event>
<event>
12    1  0.8135779E-002  0.2096931E+03  0.7818608E-02  0.1142603E+00
         21   -1    0    0  501  502  0.00000000000E+00  0.00000000000E+00  0.11658041108E+04  0.11658041108E+04  0.00000000000E+00 0. -1.
         21   -1    0    0  502  503 -0.00000000000E+00 -0.00000000000E+00 -0.39308808916E+02  0.39308808916E+02  0.00000000000E+00 0. -1.
         -6    2    1    2    0  503  0.26336121834E+01 -0.11971026920E+03  0.42253432229E+03  0.47170590983E+03  0.17214449569E+03 0.  0.
        -24    2    3    3    0    0  0.33422091979E+02 -0.13329654788E+03  0.40683177898E+03  0.43427360664E+03  0.64780113660E+02 0.  0.
          6    2    1    2  501    0 -0.26336121834E+01  0.11971026920E+03  0.70396097959E+03  0.73340700988E+03  0.16729404318E+03 0.  0.
         24    2    5    5    0    0  0.22731974333E+02  0.11261015722E+03  0.32967366012E+03  0.35816453882E+03  0.79995778160E+02 0.  0.
          5    1    5    5  501    0 -0.25365586516E+02  0.71001119804E+01  0.37428731947E+03  0.37524247106E+03  0.47000000000E+01 0. -1.
        -11    1    6    6    0    0 -0.15423059153E+01 -0.11011867822E+02  0.11691098834E+02  0.16134488911E+02  0.00000000000E+00 0.  1.
         12    1    6    6    0    0  0.24274280248E+02  0.12362202504E+03  0.31798256129E+03  0.34203004991E+03  0.00000000000E+00 0. -1.
         -5    1    3    3    0  503 -0.30788479795E+02  0.13586278674E+02  0.15702543308E+02  0.37432303197E+02  0.47000000000E+01 0.  1.
         11    1    4    4    0    0 -0.69665149012E+01 -0.44705468200E+02  0.67584977652E+02  0.81331669238E+02  0.00000000000E+00 0. -1.
        -12    1    4    4    0    0  0.40388606880E+02 -0.88591079677E+02  0.33924680133E+03  0.35294193740E+03  0.00000000000E+00 0.  1.
</event>
<event>
12    1  0.8135779E-002  0.2494747E+03  0.7818608E-02  0.1114271E+00
         21   -1    0    0  501  502  0.00000000000E+00  0.00000000000E+00  0.15136097161E+04  0.15136097161E+04  0.00000000000E+00 0. -1.
         21   -1    0    0  502  503 -0.00000000000E+00 -0.00000000000E+00 -0.22914534068E+03  0.22914534068E+03  0.00000000000E+00 0.  1.
         -6    2    1    2    0  503  0.17178823351E+03 -0.91926075116E+01 -0.14937139180E+03  0.28737790938E+03  0.17515293005E+03 0.  0.
        -24    2    3    3    0    0  0.30950005136E+02  0.20766772089E+02 -0.13505239155E+02  0.89350960624E+02  0.80075221129E+02 0.  0.
          6    2    1    2  501    0 -0.17178823351E+03  0.91926075116E+01  0.14338357672E+04  0.14553771474E+04  0.18067078512E+03 0.  0.
         24    2    5    5    0    0 -0.14120053655E+02  0.34408576403E+02  0.47219203482E+03  0.48055621098E+03  0.81151882973E+02 0.  0.
          5    1    5    5  501    0 -0.15766817986E+03 -0.25215968891E+02  0.96164373237E+03  0.97482093640E+03  0.47000000000E+01 0. -1.
        -13    1    6    6    0    0 -0.13398642633E+01 -0.13709332938E+02  0.32265968001E+03  0.32295357275E+03  0.00000000000E+00 0.  1.
         14    1    6    6    0    0 -0.12780189391E+02  0.48117909340E+02  0.14953235481E+03  0.15760263823E+03  0.00000000000E+00 0. -1.
         -5    1    3    3    0  503  0.14083822838E+03 -0.29959379601E+02 -0.13586615265E+03  0.19802694876E+03  0.47000000000E+01 0.  1.
         13    1    4    4    0    0 -0.24090236788E+02  0.18241893871E+02  0.61776833594E+01  0.30842664804E+02  0.00000000000E+00 0. -1.
        -14    1    4    4    0    0  0.55040241924E+02  0.25248782181E+01 -0.19682922515E+02  0.58508295820E+02  0.00000000000E+00 0.  1.
</event>
<event>
12    1  0.8135779E-002  0.1838993E+03  0.7818608E-02  0.1164190E+00
         21   -1    0    0  501  502  0.00000000000E+00  0.00000000000E+00  0.60472828246E+03  0.60472828246E+03  0.00000000000E+00 0.  1.
         21   -1    0    0  502  503 -0.00000000000E+00 -0.00000000000E+00 -0.99059046946E+02  0.99059046946E+02  0.00000000000E+00 0.  1.
         -6    2    1    2    0  503  0.48303783633E+01  0.63225942859E+02  0.20072519143E+02  0.18453486307E+03  0.17213180199E+03 0.  0.
        -24    2    3    3    0    0 -0.33687923788E+02  0.94749750703E+02 -0.12766289463E+01  0.13017231911E+03  0.82648722996E+02 0.  0.
          6    2    1    2  501    0 -0.48303783633E+01 -0.63225942859E+02  0.48559671637E+03  0.51925246634E+03  0.17262126301E+03 0.  0.
         24    2    5    5    0    0 -0.22959228395E+02 -0.30620675474E+02  0.10810798294E+03  0.13989565207E+03  0.80116824436E+02 0.  0.
          5    1    5    5  501    0  0.18128850032E+02 -0.32605267386E+02  0.37748873344E+03  0.37935681428E+03  0.47000000000E+01 0. -1.
        -11    1    6    6    0    0 -0.13617358587E+02 -0.95543735671E+01  0.11472105062E+03  0.11592082628E+03  0.00000000000E+00 0.  1.
         12    1    6    6    0    0 -0.93418698083E+01 -0.21066301906E+02 -0.66130676836E+01  0.23974825791E+02  0.00000000000E+00 0. -1.
         -5    1    3    3    0  503  0.38518302151E+02 -0.31523807844E+02  0.21349148089E+02  0.54362543959E+02  0.47000000000E+01 0.  1.
         13    1    4    4    0    0 -0.54729668813E+01  0.41404963959E+02  0.39383624871E+02  0.57405525125E+02  0.00000000000E+00 0. -1.
        -14    1    4    4    0    0 -0.28214956907E+02  0.53344786744E+02 -0.40660253817E+02  0.72766793983E+02  0.00000000000E+00 0.  1.
</event>
<event>
12    1  0.8135779E-002  0.1756615E+03  0.7818608E-02  0.1172071E+00
         21   -1    0    0  501  502  0.00000000000E+00  0.00000000000E+00  0.35654511375E+02  0.35654511375E+02  0.00000000000E+00 0. -1.
         21   -1    0    0  502  503 -0.00000000000E+00 -0.00000000000E+00 -0.11353697048E+04  0.11353697048E+04  0.00000000000E+00 0. -1.
         -6    2    1    2    0  503  0.31727299542E+02  0.17909351446E+02 -0.83536916505E+03  0.85363844132E+03  0.17184173001E+03 0.  0.
        -24    2    3    3    0    0 -0.49330174711E+01  0.71151558857E+02 -0.41482490865E+03  0.42812901359E+03  0.78280702935E+02 0.  0.
          6    2    1    2  501    0 -0.31727299542E+02 -0.17909351446E+02 -0.26434602838E+03  0.31738577486E+03  0.17183579650E+03 0.  0.
         24    2    5    5    0    0 -0.44059362628E+02 -0.52170565416E+02 -0.86431464909E+02  0.13572237057E+03  0.79291666757E+02 0.  0.
          5    1    5    5  501    0  0.12332063086E+02  0.34261213970E+02 -0.17791456347E+03  0.18166340429E+03  0.47000000000E+01 0. -1.
        -11    1    6    6    0    0 -0.61563767055E+02 -0.35436386558E+02 -0.85945601638E+02  0.11150103743E+03  0.00000000000E+00 0.  1.
         12    1    6    6    0    0  0.17504404426E+02 -0.16734178858E+02 -0.48586327105E+00  0.24221333149E+02  0.00000000000E+00 0. -1.
         -5    1    3    3    0  503  0.36660317013E+02 -0.53242207411E+02 -0.42054425640E+03  0.42550942773E+03  0.47000000000E+01 0.  1.
         13    1    4    4    0    0 -0.18093712395E+02  0.24303916700E+02 -0.40111678260E+02  0.50269369680E+02  0.00000000000E+00 0. -1.
        -14    1    4    4    0    0  0.13160694923E+02  0.46847642157E+02 -0.37471323039E+03  0.37785964391E+03  0.00000000000E+00 0.  1.
</event>
<event>
12    1  0.8135779E-002  0.1811803E+03  0.7818608E-02  0.1166775E+00
         21   -1    0    0  503  502  0.00000000000E+00  0.00000000000E+00  0.48791276861E+03  0.48791276861E+03  0.00000000000E+00 0.  1.
         21   -1    0    0  501  503 -0.00000000000E+00 -0.00000000000E+00 -0.11268179939E+03  0.11268179939E+03  0.00000000000E+00 0.  1.
          6    2    1    2  501    0 -0.50066909855E+02 -0.20286026400E+02 -0.32177377332E+01  0.18120889051E+03  0.17293955544E+03 0.  0.
         24    2    3    3    0    0 -0.42468815955E+01 -0.34422084076E+01 -0.65378028430E+02  0.10203073106E+03  0.78141529791E+02 0.  0.
         -6    2    1    2    0  502  0.50066909855E+02  0.20286026400E+02  0.37844870695E+03  0.41938567748E+03  0.17246073279E+03 0.  0.
        -24    2    5    5    0    0  0.71031470618E+02 -0.25172276323E+02  0.17794002727E+03  0.21266898555E+03  0.88805015617E+02 0.  0.
          5    1    3    3  501    0 -0.45820028259E+02 -0.16843817992E+02  0.62160290697E+02  0.79178159449E+02  0.47000000000E+01 0. -1.
        -13    1    4    4    0    0  0.28073172021E+02 -0.14436292385E+02 -0.59547790026E+02  0.67397691519E+02  0.00000000000E+00 0.  1.
         14    1    4    4    0    0 -0.32320053616E+02  0.10994083978E+02 -0.58302384045E+01  0.34633039545E+02  0.00000000000E+00 0. -1.
         -5    1    5    5    0  502 -0.20964560763E+02  0.45458302722E+02  0.20050867969E+03  0.20671669193E+03  0.47000000000E+01 0.  1.
         13    1    6    6    0    0  0.30554755967E+02 -0.56532411334E+02  0.85001784874E+02  0.10655895117E+03  0.00000000000E+00 0. -1.
        -14    1    6    6    0    0  0.40476714650E+02  0.31360135011E+02  0.92938242392E+02  0.10611003438E+03  0.00000000000E+00 0.  1.
</event>
<event>
12    1  0.8135779E-002  0.1868207E+03  0.7818608E-02  0.1162232E+00
         21   -1    0    0  501  502  0.00000000000E+00  0.00000000000E+00  0.81131198842E+02  0.81131198842E+02  0.00000000000E+00 0.  1.
         21   -1    0    0  502  503 -0.00000000000E+00 -0.00000000000E+00 -0.10676062607E+04  0.10676062607E+04  0.00000000000E+00 0. -1.
         -6    2    1    2    0  503  0.13739049838E+02  0.68099043186E+02 -0.94198016174E+03  0.96032733236E+03  0.17342352487E+03 0.  0.
        -24    2    3    3    0    0 -0.11569650848E+02  0.55223732518E+02 -0.26298168271E+03  0.28071911545E+03  0.80376233331E+02 0.  0.
          6    2    1    2  501    0 -0.13739049838E+02 -0.68099043186E+02 -0.44494900148E+02  0.18841012722E+03  0.16938813042E+03 0.  0.
         24    2    5    5    0    0 -0.65576332798E+02 -0.74172619714E+02 -0.15705879153E+02  0.12861974366E+03  0.80588652307E+02 0.  0.
          5    1    5    5  501    0  0.51837282959E+02  0.60735765278E+01 -0.28789020995E+02  0.59790383561E+02  0.47000000000E+01 0. -1.
        -11    1    6    6    0    0  0.12696055172E+02 -0.46110035833E+01 -0.19632559131E+02  0.23830412271E+02  0.00000000000E+00 0.  1.
         12    1    6    6    0    0 -0.78272387970E+02 -0.69561616131E+02  0.39266799780E+01  0.10478933139E+03  0.00000000000E+00 0. -1.
         -5    1    3    3    0  503  0.25308700686E+02  0.12875310668E+02 -0.67899847903E+03  0.67960821691E+03  0.47000000000E+01 0.  1.
         13    1    4    4    0    0 -0.49002214217E+01  0.32089062290E+02 -0.25229917275E+03  0.25437883689E+03  0.00000000000E+00 0. -1.
        -14    1    4    4    0    0 -0.66694294263E+01  0.23134670228E+02 -0.10682509959E+02  0.26340278557E+02  0.00000000000E+00 0.  1.
</event>
<event>
12    1  0.8135779E-002  0.1878222E+03  0.7818608E-02  0.1160477E+00
         21   -1    0    0  501  502  0.00000000000E+00  0.00000000000E+00  0.21200019812E+03  0.21200019812E+03  0.00000000000E+00 0.  1.
         21   -1    0    0  502  503 -0.00000000000E+00 -0.00000000000E+00 -0.33085536461E+03  0.33085536461E+03  0.00000000000E+00 0.  1.
         -6    2    1    2    0  503  0.73357607489E+02 -0.15787020609E+02 -0.25088637970E+03  0.31340255568E+03  0.17218193223E+03 0.  0.
        -24    2    3    3    0    0 -0.23213050279E+02  0.39712982153E+02 -0.11364406333E+03  0.13658715575E+03  0.60208897431E+02 0.  0.
          6    2    1    2  501    0 -0.73357607489E+02  0.15787020609E+02  0.13203121322E+03  0.22945300705E+03  0.17200544347E+03 0.  0.
         24    2    5    5    0    0 -0.11184975032E+03  0.38154246264E+02  0.10825211490E+03  0.17876303407E+03  0.79193363457E+02 0.  0.
          5    1    5    5  501    0  0.38492142835E+02 -0.22367225655E+02  0.23779098317E+02  0.50689972976E+02  0.47000000000E+01 0. -1.
        -11    1    6    6    0    0 -0.14713361102E+02  0.27643761041E+02  0.64521560664E+02  0.71719539248E+02  0.00000000000E+00 0.  1.
         12    1    6    6    0    0 -0.97136389222E+02  0.10510485223E+02  0.43730554234E+02  0.10704349482E+03  0.00000000000E+00 0. -1.
         -5    1    3    3    0  503  0.96570657768E+02 -0.55500002762E+02 -0.13724231637E+03  0.17681539993E+03  0.47000000000E+01 0.  1.
         11    1    4    4    0    0 -0.24162896415E+02  0.39220781964E+02 -0.12083438488E+03  0.12931768584E+03  0.00000000000E+00 0. -1.
        -12    1    4    4    0    0  0.94984613583E+00  0.49220018953E+00  0.71903215518E+01  0.72694699068E+01  0.00000000000E+00 0.  1.
</event>
<event>
12    1  0.8135779E-002  0.2191954E+03  0.7818608E-02  0.1135248E+00
         21   -1    0    0  501  502  0.00000000000E+00  0.00000000000E+00  0.21860726901E+03  0.21860726901E+03  0.00000000000E+00 0. -1.
         21   -1    0    0  502  503 -0.00000000000E+00 -0.00000000000E+00 -0.21627593065E+03  0.21627593065E+03  0.00000000000E+00 0. -1.
         -6    2    1    2    0  503  0.12456554270E+03  0.32114436941E+02  0.11818944445E+02  0.21951383860E+03  0.17747880550E+03 0.  0.
        -24    2    3    3    0    0  0.15398437146E+03 -0.76140453821E+00 -0.80367888069E+01  0.17090696067E+03  0.73707752923E+02 0.  0.
          6    2    1    2  501    0 -0.12456554270E+03 -0.32114436941E+02 -0.94876060837E+01  0.21536936106E+03  0.17247039029E+03 0.  0.
         24    2    5    5    0    0 -0.13847078141E+03  0.83654574207E+01  0.24409795004E+02  0.16056880165E+03  0.77086729004E+02 0.  0.
          5    1    5    5  501    0  0.13905238713E+02 -0.40479894362E+02 -0.33897401088E+02  0.54800559411E+02  0.47000000000E+01 0. -1.
        -11    1    6    6    0    0 -0.64444062904E+02 -0.34510625772E+02  0.13308842763E+02  0.74304413264E+02  0.00000000000E+00 0.  1.
         12    1    6    6    0    0 -0.74026718508E+02  0.42876083193E+02  0.11100952241E+02  0.86264388387E+02  0.00000000000E+00 0. -1.
         -5    1    3    3    0  503 -0.29418828764E+02  0.32875841479E+02  0.19855733252E+02  0.48606877927E+02  0.47000000000E+01 0.  1.
         13    1    4    4    0    0  0.10509625816E+03 -0.62530706343E+01  0.29144154778E+02  0.10924150369E+03  0.00000000000E+00 0. -1.
        -14    1    4    4    0    0  0.48888113306E+02  0.54916660960E+01 -0.37180943585E+02  0.61665456984E+02  0.00000000000E+00 0.  1.
</event>
<event>
12    1  0.8135779E-002  0.1777716E+03  0.7818608E-02  0.1170120E+00
         21   -1    0    0  503  502  0.00000000000E+00  0.00000000000E+00  0.40926590394E+03  0.40926590394E+03  0.00000000000E+00 0.  1.
         21   -1    0    0  501  503 -0.00000000000E+00 -0.00000000000E+00 -0.11752225513E+03  0.11752225513E+03  0.00000000000E+00 0.  1.
          6    2    1    2  501    0  0.43335471843E+02 -0.13209491418E+02 -0.87003364210E+01  0.17798437362E+03  0.17190197095E+03 0.  0.
         24    2    3    3    0    0  0.81397624891E+02 -0.51764510717E+02 -0.61649845216E+01  0.12354417692E+03  0.76941657820E+02 0.  0.
         -6    2    1    2    0  502 -0.43335471843E+02  0.13209491418E+02  0.30044398523E+03  0.34880378545E+03  0.17130393662E+03 0.  0.
        -24    2    5    5    0    0 -0.13253096816E+02  0.73095093447E+02  0.19606275410E+03  0.22467173468E+03  0.80735664712E+02 0.  0.
          5    1    3    3  501    0 -0.38062153048E+02  0.38555019299E+02 -0.25353518993E+01  0.54440196703E+02  0.47000000000E+01 0. -1.
        -11    1    4    4    0    0  0.31188351917E+02 -0.45503824601E+02 -0.34974963962E+02  0.65318905783E+02  0.00000000000E+00 0.  1.
         12    1    4    4    0    0  0.50209272974E+02 -0.62606861158E+01  0.28809979440E+02  0.58225271133E+02  0.00000000000E+00 0. -1.
         -5    1    5    5    0  502 -0.30082375027E+02 -0.59885602029E+02  0.10438123112E+03  0.12413205077E+03  0.47000000000E+01 0.  1.
         13    1    6    6    0    0 -0.17726174438E+02 -0.13940087854E+02  0.41620678953E+02  0.47337344941E+02  0.00000000000E+00 0. -1.
        -14    1    6    6    0    0  0.44730776220E+01  0.87035181300E+02  0.15444207515E+03  0.17733438974E+03  0.00000000000E+00 0.  1.
</event>
<event>
12    1  0.8135779E-002  0.1946168E+03  0.7818608E-02  0.1154466E+00
         21   -1    0    0  503  502  0.00000000000E+00  0.00000000000E+00  0.15400527197E+04  0.15400527197E+04  0.00000000000E+00 0.  1.
         21   -1    0    0  501  503 -0.00000000000E+00 -0.00000000000E+00 -0.10831460794E+03  0.10831460794E+03  0.00000000000E+00 0.  1.
          6    2    1    2  501    0  0.51449988524E+02 -0.74631758232E+02 -0.87904172955E+01  0.19481523270E+03  0.17221702239E+03 0.  0.
         24    2    3    3    0    0  0.16299729597E+01 -0.95869161224E+02 -0.41577690644E+02  0.13133171885E+03  0.79534666226E+02 0.  0.
         -6    2    1    2    0  502 -0.51449988524E+02  0.74631758232E+02  0.14405285291E+04  0.14535520950E+04  0.17168065999E+03 0.  0.
        -24    2    5    5    0    0 -0.68218853638E+02 -0.14041859399E+02  0.72797968339E+03  0.73529576690E+03  0.76514440399E+02 0.  0.
          5    1    3    3  501    0  0.49820015564E+02  0.21237402992E+02  0.32787273348E+02  0.63483513846E+02  0.47000000000E+01 0. -1.
        -11    1    4    4    0    0 -0.35650680391E+02 -0.67763384615E+02 -0.34975192491E+02  0.84179043690E+02  0.00000000000E+00 0.  1.
         12    1    4    4    0    0  0.37280653351E+02 -0.28105776609E+02 -0.66024981531E+01  0.47152675162E+02  0.00000000000E+00 0. -1.
         -5    1    5    5    0  502  0.16768865114E+02  0.88673617631E+02  0.71254884569E+03  0.71825632806E+03  0.47000000000E+01 0.  1.
         11    1    6    6    0    0 -0.17145338676E+02 -0.41505772454E+02  0.35645527076E+03  0.35927294894E+03  0.00000000000E+00 0. -1.
        -12    1    6    6    0    0 -0.51073514962E+02  0.27463913055E+02  0.37152441263E+03  0.37602281796E+03  0.00000000000E+00 0.  1.
</event>
<event>
12    1  0.8135779E-002  0.1945173E+03  0.7818608E-02  0.1155163E+00
         21   -1    0    0  503  502  0.00000000000E+00  0.00000000000E+00  0.61635791389E+02  0.61635791389E+02  0.00000000000E+00 0.  1.
         21   -1    0    0  501  503 -0.00000000000E+00 -0.00000000000E+00 -0.10374682178E+04  0.10374682178E+04  0.00000000000E+00 0.  1.
          6    2    1    2  501    0 -0.33903409436E+02 -0.85804454080E+02 -0.84563506558E+03  0.86771864189E+03  0.17124582284E+03 0.  0.
         24    2    3    3    0    0  0.28646090957E+02 -0.82449258323E+02 -0.38044294686E+03  0.39830465120E+03  0.79317593438E+02 0.  0.
         -6    2    1    2    0  502  0.33903409436E+02  0.85804454080E+02 -0.13019736079E+03  0.23138536726E+03  0.16755891475E+03 0.  0.
        -24    2    5    5    0    0  0.90886522881E+01  0.15092331334E+02 -0.13104546508E+03  0.15629351845E+03  0.83332874232E+02 0.  0.
          5    1    3    3  501    0 -0.62549500394E+02 -0.33551957571E+01 -0.46519211872E+03  0.46941399069E+03  0.47000000000E+01 0. -1.
        -11    1    4    4    0    0  0.21738420634E+02 -0.79223293424E+02 -0.18162101748E+03  0.19933660763E+03  0.00000000000E+00 0.  1.
         12    1    4    4    0    0  0.69076703235E+01 -0.32259648982E+01 -0.19882192938E+03  0.19896804357E+03  0.00000000000E+00 0. -1.
         -5    1    5    5    0  502  0.24814757148E+02  0.70712122746E+02  0.84810428647E+00  0.75091848801E+02  0.47000000000E+01 0.  1.
         11    1    6    6    0    0  0.23525202510E+02 -0.25487266561E+02 -0.27889691772E+02  0.44506974925E+02  0.00000000000E+00 0. -1.
        -12    1    6    6    0    0 -0.14436550222E+02  0.40579597895E+02 -0.10315577331E+03  0.11178654353E+03  0.00000000000E+00 0.  1.
</event>
<event>
12    1  0.8135779E-002  0.2494412E+03  0.7818608E-02  0.1113985E+00
         21   -1    0    0  501  502  0.00000000000E+00  0.00000000000E+00  0.54322026889E+02  0.54322026889E+02  0.00000000000E+00 0. -1.
         21   -1    0    0  502  503 -0.00000000000E+00 -0.00000000000E+00 -0.11375669918E+04  0.11375669918E+04  0.00000000000E+00 0.  1.
         -6    2    1    2    0  503 -0.10378932256E+03  0.14480992331E+03 -0.56589533117E+03  0.61843223154E+03  0.17458167659E+03 0.  0.
        -24    2    3    3    0    0 -0.10645931511E+03  0.12733805642E+03 -0.57015344116E+03  0.59965414608E+03  0.83436095662E+02 0.  0.
          6    2    1    2  501    0  0.10378932256E+03 -0.14480992331E+03 -0.51734963378E+03  0.57345678719E+03  0.17163888207E+03 0.  0.
         24    2    5    5    0    0 -0.11557076352E+02 -0.84037538156E+02 -0.22436860656E+03  0.25274188756E+03  0.79632382114E+02 0.  0.
          5    1    5    5  501    0  0.11534639891E+03 -0.60772385153E+02 -0.29298102722E+03  0.32071489964E+03  0.47000000000E+01 0. -1.
        -11    1    6    6    0    0 -0.18479142572E+01 -0.96324579190E+02 -0.21172748663E+03  0.23261635355E+03  0.00000000000E+00 0.  1.
         12    1    6    6    0    0 -0.97091620949E+01  0.12287041034E+02 -0.12641119933E+02  0.20125534008E+02  0.00000000000E+00 0. -1.
         -5    1    3    3    0  503  0.26699925574E+01  0.17471866887E+02  0.42581099892E+01  0.18778085458E+02  0.47000000000E+01 0.  1.
         13    1    4    4    0    0 -0.10631756117E+03  0.68237656029E+02 -0.40487466779E+03  0.42412651194E+03  0.00000000000E+00 0. -1.
        -14    1    4    4    0    0 -0.14175394713E+00  0.59100400393E+02 -0.16527877337E+03  0.17552763414E+03  0.00000000000E+00 0.  1.
</event>
<event>
12    1  0.8135779E-002  0.1938059E+03  0.7818608E-02  0.1156394E+00
         21   -1    0    0  503  502  0.00000000000E+00  0.00000000000E+00  0.43844640796E+02  0.43844640796E+02  0.00000000000E+00 0. -1.
         21   -1    0    0  501  503 -0.00000000000E+00 -0.00000000000E+00 -0.84387338817E+03  0.84387338817E+03  0.00000000000E+00 0.  1.
          6    2    1    2  501    0  0.63318847854E+02  0.42692685131E+02 -0.33852264328E+03  0.38716971323E+03  0.17167080407E+03 0.  0.
         24    2    3    3    0    0  0.22936572211E+02 -0.40340569977E+02 -0.21244513727E+03  0.23082753351E+03  0.77427165399E+02 0.  0.
         -6    2    1    2    0  502 -0.63318847854E+02 -0.42692685131E+02 -0.46150610409E+03  0.50054831574E+03  0.17812577134E+03 0.  0.
        -24    2    5    5    0    0 -0.10169453570E+03 -0.31155324907E+02 -0.42905589830E+03  0.44877081141E+03  0.77419922792E+02 0.  0.
          5    1    3    3  501    0  0.40382275643E+02  0.83033255107E+02 -0.12607750600E+03  0.15634217972E+03  0.47000000000E+01 0. -1.
        -11    1    4    4    0    0 -0.19815380143E+02 -0.24955819782E+02 -0.15146917843E+03  0.15478486439E+03  0.00000000000E+00 0.  1.
         12    1    4    4    0    0  0.42751952354E+02 -0.15384750195E+02 -0.60975958848E+02  0.76042669115E+02  0.00000000000E+00 0. -1.
         -5    1    5    5    0  502  0.38375687844E+02 -0.11537360224E+02 -0.32450205790E+02  0.51777504326E+02  0.47000000000E+01 0.  1.
         11    1    6    6    0    0 -0.87424232261E+02 -0.48971943805E+02 -0.26829535072E+03  0.28639770055E+03  0.00000000000E+00 0. -1.
        -12    1    6    6    0    0 -0.14270303437E+02  0.17816618898E+02 -0.16076054759E+03  0.16237311086E+03  0.00000000000E+00 0.  1.
</event>
<event>
12    1  0.8135779E-002  0.1793541E+03  0.7818608E-02  0.1168814E+00
         21   -1    0    0  501  502  0.00000000000E+00  0.00000000000E+00  0.13857345011E+03  0.13857345011E+03  0.00000000000E+00 0.  1.
         21   -1    0    0  502  503 -0.00000000000E+00 -0.00000000000E+00 -0.23277135787E+03  0.23277135787E+03  0.00000000000E+00 0.  1.
         -6    2    1    2    0  503 -0.21989019650E+02  0.42323272601E+02 -0.66763784136E+02  0.18990466670E+03  0.17126471667E+03 0.  0.
        -24    2    3    3    0    0 -0.69774408374E+02  0.64465112921E+02 -0.43256066710E+02  0.13203924312E+03  0.80864427087E+02 0.  0.
          6    2    1    2  501    0  0.21989019650E+02 -0.42323272601E+02 -0.27434123623E+02  0.18144014127E+03  0.17289626177E+03 0.  0.
         24    2    5    5    0    0  0.57912162631E+01 -0.88061112989E+02 -0.48871428687E+02  0.12818634397E+03  0.79088712422E+02 0.  0.
          5    1    5    5  501    0  0.16197803387E+02  0.45737840388E+02  0.21437305064E+02  0.53253797295E+02  0.47000000000E+01 0. -1.
        -11    1    6    6    0    0 -0.24206508415E+01 -0.63926362433E+02 -0.70179119649E+02  0.94960771896E+02  0.00000000000E+00 0.  1.
         12    1    6    6    0    0  0.82118671045E+01 -0.24134750556E+02  0.21307690962E+02  0.33225572077E+02  0.00000000000E+00 0. -1.
         -5    1    3    3    0  503  0.47785388724E+02 -0.22141840320E+02 -0.23507717426E+02  0.57865423587E+02  0.47000000000E+01 0.  1.
         13    1    4    4    0    0  0.22249420239E+01  0.33800563631E+02  0.12331636430E+02  0.36048546792E+02  0.00000000000E+00 0. -1.
        -14    1    4    4    0    0 -0.71999350398E+02  0.30664549290E+02 -0.55587703140E+02  0.95990696326E+02  0.00000000000E+00 0.  1.
</event>
<event>
12    1  0.8135779E-002  0.2013951E+03  0.7818608E-02  0.1148730E+00
         21   -1    0    0  501  502  0.00000000000E+00  0.00000000000E+00  0.41465296266E+02  0.41465296266E+02  0.00000000000E+00 0. -1.
         21   -1    0    0  502  503 -0.00000000000E+00 -0.00000000000E+00 -0.10132691820E+04  0.10132691820E+04  0.00000000000E+00 0. -1.
         -6    2    1    2    0  503 -0.74917096157E+02 -0.72719116642E+02 -0.59010700718E+03  0.62352726240E+03  0.17221883115E+03 0.  0.
        -24    2    3    3    0    0 -0.67114460077E+02  0.21403411754E+02 -0.28882675485E+03  0.30775549050E+03  0.79561867935E+02 0.  0.
          6    2    1    2  501    0  0.74917096157E+02  0.72719116642E+02 -0.38169687851E+03  0.43120721583E+03  0.17130824468E+03 0.  0.
         24    2    5    5    0    0  0.10766036794E+03  0.70404569296E+02 -0.36213073150E+03  0.39270522776E+03  0.80815660666E+02 0.  0.
          5    1    5    5  501    0 -0.32743271783E+02  0.23145473459E+01 -0.19566147007E+02  0.38501988068E+02  0.47000000000E+01 0. -1.
        -13    1    6    6    0    0  0.38409577870E+02  0.59956400707E+02 -0.25467369342E+03  0.26444045790E+03  0.00000000000E+00 0.  1.
         14    1    6    6    0    0  0.69250790070E+02  0.10448168589E+02 -0.10745703809E+03  0.12826476986E+03  0.00000000000E+00 0. -1.
         -5    1    3    3    0  503 -0.78026360794E+01 -0.94122528396E+02 -0.30128025233E+03  0.31577177189E+03  0.47000000000E+01 0.  1.
         11    1    4    4    0    0 -0.47495694056E+02 -0.46422110475E+01 -0.25965252903E+03  0.26400156611E+03  0.00000000000E+00 0. -1.
        -12    1    4    4    0    0 -0.19618766021E+02  0.26045622801E+02 -0.29174225822E+02  0.43753924391E+02  0.00000000000E+00 0.  1.
</event>
<event>
12    1  0.8135779E-002  0.2152923E+03  0.7818608E-02  0.1137500E+00
         21   -1    0    0  501  502  0.00000000000E+00  0.00000000000E+00  0.28500410577E+03  0.28500410577E+03  0.00000000000E+00 0.  1.
         21   -1    0    0  502  503 -0.00000000000E+00 -0.00000000000E+00 -0.24095948721E+03  0.24095948721E+03  0.00000000000E+00 0.  1.
         -6    2    1    2    0  503 -0.12658505226E+03  0.29307121981E+02 -0.12814419110E+03  0.25028308921E+03  0.17128341477E+03 0.  0.
        -24    2    3    3    0    0 -0.73671425158E+02 -0.18188496709E+02 -0.13990278775E+03  0.17806092970E+03  0.79841119537E+02 0.  0.
          6    2    1    2  501    0  0.12658505226E+03 -0.29307121981E+02  0.17218880966E+03  0.27568050377E+03  0.17166266668E+03 0.  0.
         24    2    5    5    0    0  0.11693941157E+03  0.45022424236E+01  0.54385612632E+02  0.15265288599E+03  0.81547609255E+02 0.  0.
          5    1    5    5  501    0  0.96456406892E+01 -0.33809364405E+02  0.11780319702E+03  0.12302761777E+03  0.47000000000E+01 0. -1.
        -11    1    6    6    0    0 -0.11197528643E+02 -0.71418616467E+01  0.97107766993E+01  0.16452659955E+02  0.00000000000E+00 0.  1.
         12    1    6    6    0    0  0.12813694022E+03  0.11644104070E+02  0.44674835932E+02  0.13620022604E+03  0.00000000000E+00 0. -1.
         -5    1    3    3    0  503 -0.52913627104E+02  0.47495618690E+02  0.11758596656E+02  0.72222159504E+02  0.47000000000E+01 0.  1.
         13    1    4    4    0    0 -0.43560909769E+01 -0.37784121525E+02 -0.51666105982E+02  0.64156074345E+02  0.00000000000E+00 0. -1.
        -14    1    4    4    0    0 -0.69315334181E+02  0.19595624816E+02 -0.88236681770E+02  0.11390485536E+03  0.00000000000E+00 0.  1.
</event>
<event>
12    1  0.8135779E-002  0.1766140E+03  0.7818608E-02  0.1171724E+00
         21   -1    0    0  501  502  0.00000000000E+00  0.00000000000E+00  0.13579419095E+02  0.13579419095E+02  0.00000000000E+00 0. -1.
         21   -1    0    0  502  503 -0.00000000000E+00 -0.00000000000E+00 -0.23024393614E+04  0.23024393614E+04  0.00000000000E+00 0. -1.
         -6    2    1    2    0  503 -0.20577273567E+02 -0.29171983381E+02 -0.12983133697E+04  0.13102710062E+04  0.17296842112E+03 0.  0.
        -24    2    3    3    0    0 -0.34728030447E+02  0.53208540511E+01 -0.33355757120E+03  0.34478364706E+03  0.79879674412E+02 0.  0.
          6    2    1    2  501    0  0.20577273567E+02  0.29171983381E+02 -0.99054657253E+03  0.10057477743E+04  0.17050408904E+03 0.  0.
         24    2    5    5    0    0  0.46451487648E+02 -0.28441466747E+02 -0.78340024190E+03  0.78913642446E+03  0.77805524668E+02 0.  0.
          5    1    5    5  501    0 -0.25874214081E+02  0.57613450128E+02 -0.20714633063E+03  0.21661134985E+03  0.47000000000E+01 0. -1.
        -11    1    6    6    0    0  0.19925591424E+02  0.17968840638E+02 -0.96540754684E+02  0.10019992885E+03  0.00000000000E+00 0.  1.
         12    1    6    6    0    0  0.26525896224E+02 -0.46410307385E+02 -0.68685948722E+03  0.68893649561E+03  0.00000000000E+00 0. -1.
         -5    1    3    3    0  503  0.14150756881E+02 -0.34492837432E+02 -0.96475579855E+03  0.96548735910E+03  0.47000000000E+01 0.  1.
         11    1    4    4    0    0  0.96476892747E-01  0.37165735284E+02 -0.10441023396E+03  0.11082778597E+03  0.00000000000E+00 0. -1.
        -12    1    4    4    0    0 -0.34824507340E+02 -0.31844881233E+02 -0.22914733724E+03  0.23395586108E+03  0.00000000000E+00 0.  1.
</event>
<event>
12    1  0.8135779E-002  0.2696025E+03  0.7818608E-02  0.1101584E+00
         21   -1    0    0  503  502  0.00000000000E+00  0.00000000000E+00  0.59891838493E+02  0.59891838493E+02  0.00000000000E+00 0. -1.
         21   -1    0    0  501  503 -0.00000000000E+00 -0.00000000000E+00 -0.12380613969E+04  0.12380613969E+04  0.00000000000E+00 0. -1.
          6    2    1    2  501    0  0.13959048915E+03  0.14909022632E+03 -0.68520506665E+03  0.73633653012E+03  0.17598892574E+03 0.  0.
         24    2    3    3    0    0  0.12969499726E+02  0.51527551051E+02 -0.37662691772E+03  0.38878234072E+03  0.80502030221E+02 0.  0.
         -6    2    1    2    0  502 -0.13959048915E+03 -0.14909022632E+03 -0.49296449180E+03  0.56161670531E+03  0.17517400854E+03 0.  0.
        -24    2    5    5    0    0 -0.76909665567E+02 -0.14890057436E+03 -0.25524740394E+03  0.31572968761E+03  0.80296455225E+02 0.  0.
          5    1    3    3  501    0  0.12662098942E+03  0.97562675273E+02 -0.30857814894E+03  0.34755418940E+03  0.47000000000E+01 0. -1.
        -13    1    4    4    0    0 -0.64352184458E+01  0.24091133014E+01  0.14599537082E+01  0.70247653466E+01  0.00000000000E+00 0.  1.
         14    1    4    4    0    0  0.19404718172E+02  0.49118437750E+02 -0.37808687142E+03  0.38175757538E+03  0.00000000000E+00 0. -1.
         -5    1    5    5    0  502 -0.62680823578E+02 -0.18965196624E+00 -0.23771708786E+03  0.24588701770E+03  0.47000000000E+01 0.  1.
         11    1    6    6    0    0 -0.45575704962E+02 -0.90686019674E+02 -0.82603550036E+02  0.13086040473E+03  0.00000000000E+00 0. -1.
        -12    1    6    6    0    0 -0.31333960605E+02 -0.58214554683E+02 -0.17264385390E+03  0.18486928289E+03  0.00000000000E+00 0.  1.
</event>
<event>
12    1  0.8135779E-002  0.2440065E+03  0.7818608E-02  0.1117168E+00
         21   -1    0    0  503  502  0.00000000000E+00  0.00000000000E+00  0.64943516575E+02  0.64943516575E+02  0.00000000000E+00 0.  1.
         21   -1    0    0  501  503 -0.00000000000E+00 -0.00000000000E+00 -0.11157921448E+04  0.11157921448E+04  0.00000000000E+00 0.  1.
          6    2    1    2  501    0  0.13074073439E+03 -0.11345831174E+03 -0.27595710132E+03  0.36836324502E+03  0.17196869013E+03 0.  0.
         24    2    3    3    0    0  0.64536108504E+02  0.10181951612E+02 -0.10487722496E+03  0.14709331642E+03  0.79803696529E+02 0.  0.
         -6    2    1    2    0  502 -0.13074073439E+03  0.11345831174E+03 -0.77489152692E+03  0.81237241636E+03  0.17183170907E+03 0.  0.
        -24    2    5    5    0    0 -0.21908816299E+02  0.73698338343E+02 -0.52750337281E+03  0.53915413243E+03  0.80721303794E+02 0.  0.
          5    1    3    3  501    0  0.66204625889E+02 -0.12364026335E+03 -0.17107987635E+03  0.22126992860E+03  0.47000000000E+01 0. -1.
        -11    1    4    4    0    0  0.35828951578E+02  0.27952424894E+01  0.21841680910E+01  0.36004135068E+02  0.00000000000E+00 0.  1.
         12    1    4    4    0    0  0.28707156926E+02  0.73867091224E+01 -0.10706139306E+03  0.11108918135E+03  0.00000000000E+00 0. -1.
         -5    1    5    5    0  502 -0.10883191809E+03  0.39759973399E+02 -0.24738815411E+03  0.27321828393E+03  0.47000000000E+01 0.  1.
         11    1    6    6    0    0  0.16186889206E+02  0.25723044646E+02 -0.56249432350E+02  0.63935037716E+02  0.00000000000E+00 0. -1.
        -12    1    6    6    0    0 -0.38095705506E+02  0.47975293696E+02 -0.47125394046E+03  0.47521909472E+03  0.00000000000E+00 0.  1.
</event>
<event>
12    1  0.8135779E-002  0.1992943E+03  0.7818608E-02  0.1150630E+00
         21   -1    0    0  503  502  0.00000000000E+00  0.00000000000E+00  0.36639687476E+03  0.36639687476E+03  0.00000000000E+00 0. -1.
         21   -1    0    0  501  503 -0.00000000000E+00 -0.00000000000E+00 -0.14788108347E+03  0.14788108347E+03  0.00000000000E+00 0. -1.
          6    2    1    2  501    0 -0.51381658045E+02 -0.87000009391E+02 -0.25134145873E+02  0.19950262234E+03  0.17017783232E+03 0.  0.
         24    2    3    3    0    0 -0.13573846597E+02 -0.11872236827E+03 -0.14386197258E+02  0.14877445404E+03  0.87450703051E+02 0.  0.
         -6    2    1    2    0  502  0.51381658045E+02  0.87000009391E+02  0.24364993716E+03  0.31477533590E+03  0.17178225692E+03 0.  0.
        -24    2    5    5    0    0  0.41673619167E+02  0.12518097366E+03  0.16839106293E+03  0.22969878095E+03  0.83660105156E+02 0.  0.
          5    1    3    3  501    0 -0.37807811448E+02  0.31722358878E+02 -0.10747948615E+02  0.50728168297E+02  0.47000000000E+01 0. -1.
        -11    1    4    4    0    0 -0.68803066821E+01  0.68969928271E+01  0.16572152879E+02  0.19223511155E+02  0.00000000000E+00 0.  1.
         12    1    4    4    0    0 -0.66935399146E+01 -0.12561936110E+03 -0.30958350137E+02  0.12955094288E+03  0.00000000000E+00 0. -1.
         -5    1    5    5    0  502  0.97080388775E+01 -0.38180964267E+02  0.75258874231E+02  0.85076554947E+02  0.47000000000E+01 0.  1.
         11    1    6    6    0    0  0.66371085548E+02  0.79451645170E+02  0.12228671155E+03  0.16022398303E+03  0.00000000000E+00 0. -1.
        -12    1    6    6    0    0 -0.24697466380E+02  0.45729328489E+02  0.46104351386E+02  0.69474797922E+02  0.00000000000E+00 0.  1.
</event>
<event>
12    1  0.8135779E-002  0.2185101E+03  0.7818608E-02  0.1135479E+00
         21   -1    0    0  503  502  0.00000000000E+00  0.00000000000E+00  0.52253571891E+03  0.52253571891E+03  0.00000000000E+00 0.  1.
         21   -1    0    0  501  503 -0.00000000000E+00 -0.00000000000E+00 -0.87259763871E+03  0.87259763871E+03  0.00000000000E+00 0. -1.
          6    2    1    2  501    0 -0.81123928397E+02 -0.10789963869E+03 -0.83540479973E+03  0.86286992343E+03  0.16858203211E+03 0.  0.
         24    2    3    3    0    0 -0.51864923940E+02 -0.87464320016E+00 -0.26044144741E+03  0.27728014763E+03  0.79773412901E+02 0.  0.
         -6    2    1    2    0  502  0.81123928397E+02  0.10789963869E+03  0.48534287993E+03  0.53226343419E+03  0.17182324780E+03 0.  0.
        -24    2    5    5    0    0  0.12515195063E+01  0.55285387622E+02  0.11189843812E+03  0.14673690820E+03  0.77151924083E+02 0.  0.
          5    1    3    3  501    0 -0.29259004457E+02 -0.10702499549E+03 -0.57496335233E+03  0.58558977580E+03  0.47000000000E+01 0. -1.
        -13    1    4    4    0    0 -0.66661091947E+02 -0.32409451920E+01 -0.13145890031E+03  0.14743014406E+03  0.00000000000E+00 0.  1.
         14    1    4    4    0    0  0.14796168007E+02  0.23663019919E+01 -0.12898254709E+03  0.12985000357E+03  0.00000000000E+00 0. -1.
         -5    1    5    5    0  502  0.79872408891E+02  0.52614251072E+02  0.37344444181E+03  0.38552652599E+03  0.47000000000E+01 0.  1.
         11    1    6    6    0    0 -0.11646901810E+02  0.39907824628E+02  0.11852187002E+03  0.12560142698E+03  0.00000000000E+00 0. -1.
        -12    1    6    6    0    0  0.12898421316E+02  0.15377562994E+02 -0.66234319002E+01  0.21135481216E+02  0.00000000000E+00 0.  1.
</event>
<event>
12    1  0.8135779E-002  0.2009888E+03  0.7818608E-02  0.1149001E+00
         21   -1    0    0  501  502  0.00000000000E+00  0.00000000000E+00  0.36425060206E+02  0.36425060206E+02  0.00000000000E+00 0.  1.
         21   -1    0    0  502  503 -0.00000000000E+00 -0.00000000000E+00 -0.12847693351E+04  0.12847693351E+04  0.00000000000E+00 0. -1.
         -6    2    1    2    0  503  0.61617659665E+02  0.82706561441E+02 -0.86960014022E+03  0.89242450127E+03  0.17198829992E+03 0.  0.
        -24    2    3    3    0    0  0.52854340351E+02  0.24646987682E+02 -0.77152496612E+03  0.77801934559E+03  0.81622750983E+02 0.  0.
          6    2    1    2  501    0 -0.61617659665E+02 -0.82706561441E+02 -0.37874413465E+03  0.42876989401E+03  0.17250910466E+03 0.  0.
         24    2    5    5    0    0 -0.59218250556E+01 -0.57841813811E+02 -0.91034974956E+02  0.13462888660E+03  0.80354383861E+02 0.  0.
          5    1    5    5  501    0 -0.55695834610E+02 -0.24864747630E+02 -0.28770915970E+03  0.29414100741E+03  0.47000000000E+01 0. -1.
        -13    1    6    6    0    0 -0.25340713794E+02 -0.94688477363E+01  0.28935707059E+01  0.27206315525E+02  0.00000000000E+00 0.  1.
         14    1    6    6    0    0  0.19418888738E+02 -0.48372966075E+02 -0.93928545662E+02  0.10742257108E+03  0.00000000000E+00 0. -1.
         -5    1    3    3    0  503  0.87633193146E+01  0.58059573760E+02 -0.98075174106E+02  0.11440515568E+03  0.47000000000E+01 0.  1.
         13    1    4    4    0    0  0.41518698832E+02 -0.25475384855E+02 -0.34995305940E+03  0.35332696100E+03  0.00000000000E+00 0. -1.
        -14    1    4    4    0    0  0.11335641518E+02  0.50122372537E+02 -0.42157190672E+03  0.42469238459E+03  0.00000000000E+00 0.  1.
</event>
<event>
12    1  0.8135779E-002  0.2369560E+03  0.7818608E-02  0.1123505E+00
         21   -1    0    0  501  502  0.00000000000E+00  0.00000000000E+00  0.46849327610E+03  0.46849327610E+03  0.00000000000E+00 0.  1.
         21   -1    0    0  502  503 -0.00000000000E+00 -0.00000000000E+00 -0.11931485266E+03  0.11931485266E+03  0.00000000000E+00 0.  1.
         -6    2    1    2    0  503 -0.13615320009E+03 -0.61488374453E+02  0.22681348574E+03  0.32112227713E+03  0.17133781098E+03 0.  0.
        -24    2    3    3    0    0 -0.12080463696E+03 -0.45913389553E+02  0.78883278972E+02  0.17151079823E+03  0.80570357810E+02 0.  0.
          6    2    1    2  501    0  0.13615320009E+03  0.61488374453E+02  0.12236493770E+03  0.26668585164E+03  0.18392838660E+03 0.  0.
         24    2    5    5    0    0  0.94359710501E+02 -0.15219805782E+02  0.12429292704E+02  0.12619109469E+03  0.81451259101E+02 0.  0.
          5    1    5    5  501    0  0.41793489590E+02  0.76708180235E+02  0.10993564500E+03  0.14049475694E+03  0.47000000000E+01 0. -1.
        -11    1    6    6    0    0  0.59644568325E+02 -0.13167590932E+02 -0.32647968174E+02  0.69258572087E+02  0.00000000000E+00 0.  1.
         12    1    6    6    0    0  0.34715142176E+02 -0.20522148491E+01  0.45077260878E+02  0.56932522607E+02  0.00000000000E+00 0. -1.
         -5    1    3    3    0  503 -0.15348563132E+02 -0.15574984900E+02  0.14793020677E+03  0.14961147890E+03  0.47000000000E+01 0.  1.
         11    1    4    4    0    0 -0.77844458774E+01 -0.33311259445E+02  0.20552628999E+01  0.34270420321E+02  0.00000000000E+00 0. -1.
        -12    1    4    4    0    0 -0.11302019108E+03 -0.12602130109E+02  0.76828016072E+02  0.13724037791E+03  0.00000000000E+00 0.  1.
</event>
<event>
12    1  0.8135779E-002  0.1712265E+03  0.7818608E-02  0.1176582E+00
         21   -1    0    0  501  502  0.00000000000E+00  0.00000000000E+00  0.25146244993E+02  0.25146244993E+02  0.00000000000E+00 0. -1.
         21   -1    0    0  502  503 -0.00000000000E+00 -0.00000000000E+00 -0.12320086332E+04  0.12320086332E+04  0.00000000000E+00 0. -1.
         -6    2    1    2    0  503  0.14084206657E+02  0.61533817054E+01 -0.74926075739E+03  0.76857673362E+03  0.17053528640E+03 0.  0.
        -24    2    3    3    0    0 -0.18567639878E+02  0.54416992400E+02 -0.60343318578E+03  0.61146756825E+03  0.80343083168E+02 0.  0.
          6    2    1    2  501    0 -0.14084206657E+02 -0.61533817054E+01 -0.45760163077E+03  0.48857814453E+03  0.17050842163E+03 0.  0.
         24    2    5    5    0    0  0.46830742853E+02 -0.19111608224E+02 -0.36359775483E+03  0.37571820744E+03  0.80015448750E+02 0.  0.
          5    1    5    5  501    0 -0.60914949511E+02  0.12958226518E+02 -0.94003875940E+02  0.11285993709E+03  0.47000000000E+01 0. -1.
        -11    1    6    6    0    0  0.27775993641E+02 -0.50313337841E+02 -0.20057907183E+03  0.20865019013E+03  0.00000000000E+00 0.  1.
         12    1    6    6    0    0  0.19054749212E+02  0.31201729617E+02 -0.16301868300E+03  0.16706801730E+03  0.00000000000E+00 0. -1.
         -5    1    3    3    0  503  0.32651846535E+02 -0.48263610695E+02 -0.14582757162E+03  0.15710916537E+03  0.47000000000E+01 0.  1.
         13    1    4    4    0    0  0.13414294673E+02 -0.72105545701E+01 -0.28114691457E+02  0.31974541036E+02  0.00000000000E+00 0. -1.
        -14    1    4    4    0    0 -0.31981934551E+02  0.61627546970E+02 -0.57531849432E+03  0.57949302721E+03  0.00000000000E+00 0.  1.
</event>
<event>
12    1  0.8135779E-002  0.2034206E+03  0.7818608E-02  0.1147666E+00
         21   -1    0    0  501  502  0.00000000000E+00  0.00000000000E+00  0.49925857182E+02  0.49925857182E+02  0.00000000000E+00 0.  1.
         21   -1    0    0  502  503 -0.00000000000E+00 -0.00000000000E+00 -0.11576958356E+04  0.11576958356E+04  0.00000000000E+00 0.  1.
         -6    2    1    2    0  503  0.50311903232E+02  0.88920474584E+02 -0.22833950545E+03  0.30580853330E+03  0.17590278816E+03 0.  0.
        -24    2    3    3    0    0  0.41016812907E+01  0.11891067919E+03 -0.13257594810E+03  0.19523029900E+03  0.79886883898E+02 0.  0.
          6    2    1    2  501    0 -0.50311903232E+02 -0.88920474584E+02 -0.87943047293E+03  0.90181315944E+03  0.17155430460E+03 0.  0.
         24    2    5    5    0    0 -0.71452974753E+02 -0.11401895326E+03 -0.61300631673E+03  0.63333448331E+03  0.85029254295E+02 0.  0.
          5    1    5    5  501    0  0.21141071521E+02  0.25098478679E+02 -0.26642415619E+03  0.26847867614E+03  0.47000000000E+01 0. -1.
        -13    1    6    6    0    0 -0.34981503501E+02 -0.96285968761E+02 -0.54170844048E+03  0.55131001066E+03  0.00000000000E+00 0.  1.
         14    1    6    6    0    0 -0.36471471251E+02 -0.17732984501E+02 -0.71297876254E+02  0.82024472646E+02  0.00000000000E+00 0. -1.
         -5    1    3    3    0  503  0.46210221941E+02 -0.29990204605E+02 -0.95763557347E+02  0.11057823429E+03  0.47000000000E+01 0.  1.
         13    1    4    4    0    0 -0.11680978690E+02 -0.87930091194E+01 -0.12637530562E+02  0.19325357726E+02  0.00000000000E+00 0. -1.
        -14    1    4    4    0    0  0.15782659981E+02  0.12770368831E+03 -0.11993841754E+03  0.17590494128E+03  0.00000000000E+00 0.  1.
</event>
<event>
12    1  0.8135779E-002  0.2361304E+03  0.7818608E-02  0.1122972E+00
         21   -1    0    0  501  502  0.00000000000E+00  0.00000000000E+00  0.16573710793E+03  0.16573710793E+03  0.00000000000E+00 0. -1.
         21   -1    0    0  502  503 -0.00000000000E+00 -0.00000000000E+00 -0.37638668398E+03  0.37638668398E+03  0.00000000000E+00 0. -1.
         -6    2    1    2    0  503 -0.51979757742E+02 -0.15216011023E+03 -0.12554885032E+02  0.23646394192E+03  0.17292477072E+03 0.  0.
        -24    2    3    3    0    0 -0.68036804472E+02 -0.17151011608E+03  0.11430409272E+02  0.20139777847E+03  0.79910476380E+02 0.  0.
          6    2    1    2  501    0  0.51979757742E+02  0.15216011023E+03 -0.19809469102E+03  0.30565984999E+03  0.16832065508E+03 0.  0.
         24    2    5    5    0    0  0.30949708704E+02  0.40118078650E+02 -0.25381470455E+02  0.98663167986E+02  0.80764206002E+02 0.  0.
          5    1    5    5  501    0  0.21030049038E+02  0.11204203158E+03 -0.17271322056E+03  0.20699668200E+03  0.47000000000E+01 0. -1.
        -13    1    6    6    0    0  0.13772451131E+02  0.62242939549E+02 -0.29690603979E+02  0.70323508861E+02  0.00000000000E+00 0.  1.
         14    1    6    6    0    0  0.17177257573E+02 -0.22124860900E+02  0.43091335239E+01  0.28339659124E+02  0.00000000000E+00 0. -1.
         -5    1    3    3    0  503  0.16057046730E+02  0.19350005851E+02 -0.23985294304E+02  0.35066163448E+02  0.47000000000E+01 0.  1.
         13    1    4    4    0    0  0.57724700648E+00 -0.76415263012E+02  0.31084689328E+02  0.82497779036E+02  0.00000000000E+00 0. -1.
        -14    1    4    4    0    0 -0.68614051479E+02 -0.95094853070E+02 -0.19654280057E+02  0.11889999943E+03  0.00000000000E+00 0.  1.
</event>
<event>
12    1  0.8135779E-002  0.1918981E+03  0.7818608E-02  0.1157359E+00
         21   -1    0    0  501  502  0.00000000000E+00  0.00000000000E+00  0.76551162457E+03  0.76551162457E+03  0.00000000000E+00 0.  1.
         21   -1    0    0  502  503 -0.00000000000E+00 -0.00000000000E+00 -0.10526288640E+03  0.10526288640E+03  0.00000000000E+00 0.  1.
         -6    2    1    2    0  503 -0.75901627874E+02  0.42347233612E+02  0.84731270200E+01  0.19208504172E+03  0.17108630588E+03 0.  0.
        -24    2    3    3    0    0 -0.20941475206E+02  0.69522347597E+02  0.39105679920E+02  0.12338607157E+03  0.91776719581E+02 0.  0.
          6    2    1    2  501    0  0.75901627874E+02 -0.42347233612E+02  0.65177561115E+03  0.67868946925E+03  0.16808808131E+03 0.  0.
         24    2    5    5    0    0  0.15121066775E+02 -0.15700505687E+02  0.55405257907E+03  0.56046846556E+03  0.81703659463E+02 0.  0.
          5    1    5    5  501    0  0.60780561099E+02 -0.26646727925E+02  0.97723032077E+02  0.11822100370E+03  0.47000000000E+01 0. -1.
        -11    1    6    6    0    0 -0.85087614706E+01 -0.35544109992E+02  0.12305932854E+03  0.12837204180E+03  0.00000000000E+00 0.  1.
         12    1    6    6    0    0  0.23629828245E+02  0.19843604305E+02  0.43099325053E+03  0.43209642375E+03  0.00000000000E+00 0. -1.
         -5    1    3    3    0  503 -0.54960152668E+02 -0.27175113985E+02 -0.30632552900E+02  0.68698970142E+02  0.47000000000E+01 0.  1.
         13    1    4    4    0    0  0.31053468377E+02  0.32612781917E+01  0.19809765088E+02  0.36978110099E+02  0.00000000000E+00 0. -1.
        -14    1    4    4    0    0 -0.51994943583E+02  0.66261069405E+02  0.19295914832E+02  0.86407961474E+02  0.00000000000E+00 0.  1.
</event>
<event>
12    1  0.8135779E-002  0.1760891E+03  0.7818608E-02  0.1171932E+00
         21   -1    0    0  501  502  0.00000000000E+00  0.00000000000E+00  0.39315750902E+02  0.39315750902E+02  0.00000000000E+00 0.  1.
         21   -1    0    0  502  503 -0.00000000000E+00 -0.00000000000E+00 -0.13585033847E+04  0.13585033847E+04  0.00000000000E+00 0.  1.
         -6    2    1    2    0  503 -0.66254109035E+01  0.39255899928E+02 -0.11155523760E+04  0.11293646271E+04  0.17152969305E+03 0.  0.
        -24    2    3    3    0    0 -0.16896354530E+01 -0.28256242920E+01 -0.14086984166E+03  0.15375028254E+03  0.61514210323E+02 0.  0.
          6    2    1    2  501    0  0.66254109035E+01 -0.39255899928E+02 -0.20363525780E+03  0.26845450850E+03  0.17033961127E+03 0.  0.
         24    2    5    5    0    0  0.33087329343E+02 -0.70125771297E+02 -0.78238872997E+02  0.13654724787E+03  0.80693460024E+02 0.  0.
          5    1    5    5  501    0 -0.26461918439E+02  0.30869871368E+02 -0.12539638480E+03  0.13190726063E+03  0.47000000000E+01 0. -1.
        -13    1    6    6    0    0  0.47881399784E+02 -0.51077734069E+02 -0.18934874477E+02  0.72526497464E+02  0.00000000000E+00 0.  1.
         14    1    6    6    0    0 -0.14794070441E+02 -0.19048037228E+02 -0.59303998520E+02  0.64020750409E+02  0.00000000000E+00 0. -1.
         -5    1    3    3    0  503 -0.49357754506E+01  0.42081524220E+02 -0.97468253434E+03  0.97561434456E+03  0.47000000000E+01 0.  1.
         13    1    4    4    0    0 -0.28911332131E+02 -0.14040340941E+02 -0.71529906547E+02  0.78418899698E+02  0.00000000000E+00 0. -1.
        -14    1    4    4    0    0  0.27221696678E+02  0.11214716649E+02 -0.69339935108E+02  0.75331382838E+02  0.00000000000E+00 0.  1.
</event>
<event>
12    1  0.8135779E-002  0.1950138E+03  0.7818608E-02  0.1154316E+00
         21   -1    0    0  501  502  0.00000000000E+00  0.00000000000E+00  0.17019789279E+03  0.17019789279E+03  0.00000000000E+00 0. -1.
         21   -1    0    0  502  503 -0.00000000000E+00 -0.00000000000E+00 -0.33658094653E+03  0.33658094653E+03  0.00000000000E+00 0. -1.
         -6    2    1    2    0  503 -0.52259328279E+02 -0.74846683447E+02 -0.23130670963E+03  0.30254449453E+03  0.17232908586E+03 0.  0.
        -24    2    3    3    0    0 -0.30844437947E+02  0.22497050064E+02 -0.14915073893E+03  0.17329244037E+03  0.79541375098E+02 0.  0.
          6    2    1    2  501    0  0.52259328279E+02  0.74846683447E+02  0.64923655891E+02  0.20423434479E+03  0.17077330904E+03 0.  0.
         24    2    5    5    0    0  0.55825121742E+02  0.33873550348E+02 -0.24160266809E+02  0.10600223292E+03  0.79930552735E+02 0.  0.
          5    1    5    5  501    0 -0.35657934629E+01  0.40973133100E+02  0.89083922700E+02  0.98232111871E+02  0.47000000000E+01 0. -1.
        -13    1    6    6    0    0  0.33456545971E+02  0.17854541602E+02  0.27926353782E+02  0.47095714876E+02  0.00000000000E+00 0.  1.
         14    1    6    6    0    0  0.22368575771E+02  0.16019008746E+02 -0.52086620591E+02  0.58906518042E+02  0.00000000000E+00 0. -1.
         -5    1    3    3    0  503 -0.21414890332E+02 -0.97343733512E+02 -0.82155970704E+02  0.12925205416E+03  0.47000000000E+01 0.  1.
         13    1    4    4    0    0  0.26767848059E+02  0.12217268637E+02 -0.43518507485E+02  0.52532274236E+02  0.00000000000E+00 0. -1.
        -14    1    4    4    0    0 -0.57612286006E+02  0.10279781427E+02 -0.10563223144E+03  0.12076016613E+03  0.00000000000E+00 0.  1.
</event>
<event>
12    1  0.8135779E-002  0.2154213E+03  0.7818608E-02  0.1137571E+00
         21   -1    0    0  501  502  0.00000000000E+00  0.00000000000E+00  0.10534251750E+03  0.10534251750E+03  0.00000000000E+00 0. -1.
         21   -1    0    0  502  503 -0.00000000000E+00 -0.00000000000E+00 -0.65415600575E+03  0.65415600575E+03  0.00000000000E+00 0. -1.
         -6    2    1    2    0  503  0.69778044936E+02 -0.11097322462E+03 -0.49315484432E+03  0.53815244205E+03  0.17094536634E+03 0.  0.
        -24    2    3    3    0    0  0.79912129577E+02 -0.12379474686E+03 -0.49508799247E+03  0.52103758985E+03  0.68241936855E+02 0.  0.
          6    2    1    2  501    0 -0.69778044936E+02  0.11097322462E+03 -0.55658643932E+02  0.22134608119E+03  0.16944666087E+03 0.  0.
         24    2    5    5    0    0 -0.17209323013E+02  0.11543250284E+03 -0.80914300625E+02  0.16266649461E+03  0.79324907255E+02 0.  0.
          5    1    5    5  501    0 -0.52568721923E+02 -0.44592782257E+01  0.25255656693E+02  0.58679586586E+02  0.47000000000E+01 0. -1.
        -11    1    6    6    0    0  0.13384861897E+02  0.53788564318E+01 -0.37997096532E+02  0.40643154029E+02  0.00000000000E+00 0.  1.
         12    1    6    6    0    0 -0.30594184910E+02  0.11005364641E+03 -0.42917204093E+02  0.12202334058E+03  0.00000000000E+00 0. -1.
         -5    1    3    3    0  503 -0.10134084641E+02  0.12821522240E+02  0.19331481512E+01  0.17114852200E+02  0.47000000000E+01 0.  1.
         11    1    4    4    0    0  0.76607753922E+02 -0.97789743660E+02 -0.46415560267E+03  0.48049142075E+03  0.00000000000E+00 0. -1.
        -12    1    4    4    0    0  0.33043756547E+01 -0.26005003200E+02 -0.30932389802E+02  0.40546169101E+02  0.00000000000E+00 0.  1.
</event>
<event>
12    1  0.8135779E-002  0.1973440E+03  0.7818608E-02  0.1152804E+00
         21   -1    0    0  503  502  0.00000000000E+00  0.00000000000E+00  0.25222446506E+03  0.25222446506E+03  0.00000000000E+00 0. -1.
         21   -1    0    0  501  503 -0.00000000000E+00 -0.00000000000E+00 -0.21364762131E+03  0.21364762131E+03  0.00000000000E+00 0. -1.
          6    2    1    2  501    0 -0.84439138691E+02  0.45644201420E+02 -0.10619407423E+03  0.22410228610E+03  0.17242764270E+03 0.  0.
         24    2    3    3    0    0 -0.48300958474E+02  0.60078308610E+02  0.30466759731E+00  0.11061932028E+03  0.79335713538E+02 0.  0.
         -6    2    1    2    0  502  0.84439138691E+02 -0.45644201420E+02  0.14477091799E+03  0.24176980027E+03  0.16816853559E+03 0.  0.
        -24    2    5    5    0    0  0.11529326680E+03 -0.61526567805E+02  0.78981333479E+02  0.16724070385E+03  0.68215438654E+02 0.  0.
          5    1    3    3  501    0 -0.36138180218E+02 -0.14434107189E+02 -0.10649874183E+03  0.11348296582E+03  0.47000000000E+01 0. -1.
        -13    1    4    4    0    0 -0.15572613841E+02  0.32086424567E+02  0.38909946690E+02  0.52782846596E+02  0.00000000000E+00 0.  1.
         14    1    4    4    0    0 -0.32728344633E+02  0.27991884043E+02 -0.38605279093E+02  0.57836473687E+02  0.00000000000E+00 0. -1.
         -5    1    5    5    0  502 -0.30854128109E+02  0.15882366384E+02  0.65789584507E+02  0.74529096418E+02  0.47000000000E+01 0.  1.
         13    1    6    6    0    0  0.38421254333E+02 -0.12835000986E+02  0.62929671414E+02  0.74840320544E+02  0.00000000000E+00 0. -1.
        -14    1    6    6    0    0  0.76872012467E+02 -0.48691566819E+02  0.16051662065E+02  0.92400383306E+02  0.00000000000E+00 0.  1.
</event>
<event>
12    1  0.8135779E-002  0.2261914E+03  0.7818608E-02  0.1129818E+00
         21   -1    0    0  501  502  0.00000000000E+00  0.00000000000E+00  0.31290089959E+02  0.31290089959E+02  0.00000000000E+00 0.  1.
         21   -1    0    0  502  503 -0.00000000000E+00 -0.00000000000E+00 -0.16186870872E+04  0.16186870872E+04  0.00000000000E+00 0.  1.
         -6    2    1    2    0  503 -0.14488107258E+03 -0.14820124222E+02 -0.82909499263E+03  0.85939575430E+03  0.17306760073E+03 0.  0.
        -24    2    3    3    0    0 -0.57297552585E+02 -0.67652772915E+02 -0.38840496252E+03  0.40696680476E+03  0.83088254574E+02 0.  0.
          6    2    1    2  501    0  0.14488107258E+03  0.14820124222E+02 -0.75830200458E+03  0.79058142283E+03  0.16966701124E+03 0.  0.
         24    2    5    5    0    0  0.13866188880E+03 -0.10763975062E+02 -0.74220063683E+03  0.75936334431E+03  0.80174315130E+02 0.  0.
          5    1    5    5  501    0  0.62191837832E+01  0.25584099285E+02 -0.16101367748E+02  0.31218078520E+02  0.47000000000E+01 0. -1.
        -11    1    6    6    0    0  0.12989062850E+03  0.17274276000E+02 -0.61731374114E+03  0.63106753283E+03  0.00000000000E+00 0.  1.
         12    1    6    6    0    0  0.87712602957E+01 -0.28038251062E+02 -0.12488689568E+03  0.12829581148E+03  0.00000000000E+00 0. -1.
         -5    1    3    3    0  503 -0.87583519998E+02  0.52832648693E+02 -0.44069003011E+03  0.45242894954E+03  0.47000000000E+01 0.  1.
         11    1    4    4    0    0  0.70093831459E+01  0.89645226601E+01 -0.87471360474E+01  0.14352926797E+02  0.00000000000E+00 0. -1.
        -12    1    4    4    0    0 -0.64306935731E+02 -0.76617295576E+02 -0.37965782648E+03  0.39261387796E+03  0.00000000000E+00 0.  1.
</event>
<event>
12    1  0.8135779E-002  0.2705471E+03  0.7818608E-02  0.1100988E+00
         21   -1    0    0  501  502  0.00000000000E+00  0.00000000000E+00  0.44202993817E+02  0.44202993817E+02  0.00000000000E+00 0.  1.
         21   -1    0    0  502  503 -0.00000000000E+00 -0.00000000000E+00 -0.18537886656E+04  0.18537886656E+04  0.00000000000E+00 0.  1.
         -6    2    1    2    0  503  0.17962808586E+02 -0.20798167264E+03 -0.59425132572E+03  0.65293978845E+03  0.17209500449E+03 0.  0.
        -24    2    3    3    0    0  0.64047020169E+02 -0.12638328663E+03 -0.46700008957E+03  0.49483533482E+03  0.81842342291E+02 0.  0.
          6    2    1    2  501    0 -0.17962808586E+02  0.20798167264E+03 -0.12153343461E+04  0.12450518710E+04  0.17186491803E+03 0.  0.
         24    2    5    5    0    0 -0.18072957459E+02  0.22712051634E+03 -0.11860510217E+04  0.12097544128E+04  0.69845203033E+02 0.  0.
          5    1    5    5  501    0  0.11014887298E+00 -0.19138843702E+02 -0.29283324415E+02  0.35297458263E+02  0.47000000000E+01 0. -1.
        -13    1    6    6    0    0 -0.11530816505E+01  0.78638329402E+02 -0.59167844887E+03  0.59688248702E+03  0.00000000000E+00 0.  1.
         14    1    6    6    0    0 -0.16919875809E+02  0.14848218694E+03 -0.59437257282E+03  0.61287192574E+03  0.00000000000E+00 0. -1.
         -5    1    3    3    0  503 -0.46084211583E+02 -0.81598386005E+02 -0.12725123616E+03  0.15810445363E+03  0.47000000000E+01 0.  1.
         13    1    4    4    0    0  0.33059184206E+02 -0.10869262490E+03 -0.24591885039E+03  0.27089311055E+03  0.00000000000E+00 0. -1.
        -14    1    4    4    0    0  0.30987835964E+02 -0.17690661731E+02 -0.22108123918E+03  0.22394222426E+03  0.00000000000E+00 0.  1.
</event>
<event>
12    1  0.8135779E-002  0.1889593E+03  0.7818608E-02  0.1159759E+00
         21   -1    0    0  501  502  0.00000000000E+00  0.00000000000E+00  0.11163309074E+03  0.11163309074E+03  0.00000000000E+00 0. -1.
         21   -1    0    0  502  503 -0.00000000000E+00 -0.00000000000E+00 -0.67251203429E+03  0.67251203429E+03  0.00000000000E+00 0.  1.
         -6    2    1    2    0  503 -0.20437746088E+02 -0.71441247173E+02 -0.56486908750E+03  0.59514368533E+03  0.17203885291E+03 0.  0.
        -24    2    3    3    0    0 -0.62769770926E+01 -0.11350046513E+03 -0.47578750304E+03  0.49550873221E+03  0.78951881669E+02 0.  0.
          6    2    1    2  501    0  0.20437746088E+02  0.71441247173E+02  0.39901439503E+01  0.18900143970E+03  0.17373563163E+03 0.  0.
         24    2    5    5    0    0  0.67691467704E+01 -0.30045176485E+02 -0.86791296562E+01  0.85710949878E+02  0.79514185271E+02 0.  0.
          5    1    5    5  501    0  0.13668599318E+02  0.10148642366E+03  0.12669273606E+02  0.10329048982E+03  0.47000000000E+01 0. -1.
        -11    1    6    6    0    0  0.26350499471E+02 -0.21537316492E+01 -0.34133647694E+02  0.43175146639E+02  0.00000000000E+00 0.  1.
         12    1    6    6    0    0 -0.19581352701E+02 -0.27891444836E+02  0.25454518038E+02  0.42535803239E+02  0.00000000000E+00 0. -1.
         -5    1    3    3    0  503 -0.14160768996E+02  0.42059217957E+02 -0.89081584457E+02  0.99634953119E+02  0.47000000000E+01 0.  1.
         13    1    4    4    0    0 -0.25412095239E+02 -0.59409981767E+02 -0.13200800481E+03  0.14697426255E+03  0.00000000000E+00 0. -1.
        -14    1    4    4    0    0  0.19135118146E+02 -0.54090483363E+02 -0.34377949823E+03  0.34853446966E+03  0.00000000000E+00 0.  1.
</event>
<event>
12    1  0.8135779E-002  0.2009497E+03  0.7818608E-02  0.1148944E+00
         21   -1    0    0  503  502  0.00000000000E+00  0.00000000000E+00  0.18149155436E+03  0.18149155436E+03  0.00000000000E+00 0.  1.
         21   -1    0    0  501  503 -0.00000000000E+00 -0.00000000000E+00 -0.44888184902E+03  0.44888184902E+03  0.00000000000E+00 0.  1.
          6    2    1    2  501    0  0.65388630180E+02 -0.82217686365E+02 -0.35753730293E+03  0.41012976993E+03  0.17128363696E+03 0.  0.
         24    2    3    3    0    0  0.68798674549E+01 -0.65271126974E+02 -0.32401694148E+03  0.34044357458E+03  0.81284663454E+02 0.  0.
         -6    2    1    2    0  502 -0.65388630180E+02  0.82217686365E+02  0.90147008277E+02  0.22024363345E+03  0.17130485709E+03 0.  0.
        -24    2    5    5    0    0 -0.42319615862E+02  0.19812281437E+02 -0.17702756253E+02  0.93435606511E+02  0.78951558583E+02 0.  0.
          5    1    3    3  501    0  0.58508762726E+02 -0.16946559390E+02 -0.33520361449E+02  0.69686195351E+02  0.47000000000E+01 0. -1.
        -11    1    4    4    0    0  0.43291241716E+02 -0.24621791330E+02 -0.14724088876E+03  0.15543565724E+03  0.00000000000E+00 0.  1.
         12    1    4    4    0    0 -0.36411374261E+02 -0.40649335644E+02 -0.17677605272E+03  0.18500791734E+03  0.00000000000E+00 0. -1.
         -5    1    5    5    0  502 -0.23069014318E+02  0.62405404927E+02  0.10784976453E+03  0.12680802693E+03  0.47000000000E+01 0.  1.
         11    1    6    6    0    0 -0.50399578652E+02  0.41137369488E+02 -0.82045768658E+00  0.65062076876E+02  0.00000000000E+00 0. -1.
        -12    1    6    6    0    0  0.80799627893E+01 -0.21325088050E+02 -0.16882298567E+02  0.28373529635E+02  0.00000000000E+00 0.  1.
</event>
<event>
12    1  0.8135779E-002  0.2589786E+03  0.7818608E-02  0.1107904E+00
         21   -1    0    0  501  502  0.00000000000E+00  0.00000000000E+00  0.14259394723E+04  0.14259394723E+04  0.00000000000E+00 0.  1.
         21   -1    0    0  502  503 -0.00000000000E+00 -0.00000000000E+00 -0.69573604084E+02  0.69573604084E+02  0.00000000000E+00 0.  1.
         -6    2    1    2    0  503  0.19378605844E+03 -0.65311479073E+01  0.25179604006E+03  0.36120791952E+03  0.17168058422E+03 0.  0.
        -24    2    3    3    0    0  0.25694045527E+02 -0.20236167115E+02  0.55061768630E+02  0.10203767449E+03  0.79436781253E+02 0.  0.
          6    2    1    2  501    0 -0.19378605844E+03  0.65311479073E+01  0.11045698282E+04  0.11343051569E+04  0.17022923153E+03 0.  0.
         24    2    5    5    0    0 -0.66572604986E+02  0.22054366186E+02  0.31066246361E+03  0.33010665741E+03  0.86838540779E+02 0.  0.
          5    1    5    5  501    0 -0.12721345345E+03 -0.15523218279E+02  0.79390736454E+03  0.80419849945E+03  0.47000000000E+01 0. -1.
        -11    1    6    6    0    0 -0.68954058375E+02  0.42736654945E+02  0.28854544109E+03  0.29973247308E+03  0.00000000000E+00 0.  1.
         12    1    6    6    0    0  0.23814533895E+01 -0.20682288759E+02  0.22117022523E+02  0.30374184332E+02  0.00000000000E+00 0. -1.
         -5    1    3    3    0  503  0.16809201291E+03  0.13705019207E+02  0.19673427143E+03  0.25917024503E+03  0.47000000000E+01 0.  1.
         11    1    4    4    0    0  0.16845914340E+01 -0.69691635722E+00 -0.20395940898E+02  0.20477254352E+02  0.00000000000E+00 0. -1.
        -12    1    4    4    0    0  0.24009454093E+02 -0.19539250757E+02  0.75457709528E+02  0.81560420139E+02  0.00000000000E+00 0.  1.
</event>
<event>
12    1  0.8135779E-002  0.1740524E+03  0.7818608E-02  0.1174062E+00
         21   -1    0    0  503  502  0.00000000000E+00  0.00000000000E+00  0.34276657896E+03  0.34276657896E+03  0.00000000000E+00 0.  1.
         21   -1    0    0  501  503 -0.00000000000E+00 -0.00000000000E+00 -0.12075385387E+03  0.12075385387E+03  0.00000000000E+00 0.  1.
          6    2    1    2  501    0  0.32142183504E+02  0.90014621416E+01 -0.10714787790E+02  0.17290674052E+03  0.16931564594E+03 0.  0.
         24    2    3    3    0    0  0.57294275750E+02  0.53430950356E+02 -0.34589117841E+02  0.11634985939E+03  0.78761552917E+02 0.  0.
         -6    2    1    2    0  502 -0.32142183504E+02 -0.90014621416E+01  0.23272751288E+03  0.29061369231E+03  0.17082176860E+03 0.  0.
        -24    2    5    5    0    0 -0.73617407472E+00  0.52480948956E+02  0.18228989651E+03  0.20498386428E+03  0.77678737705E+02 0.  0.
          5    1    3    3  501    0 -0.25152092246E+02 -0.44429488214E+02  0.23874330052E+02  0.56556881127E+02  0.47000000000E+01 0. -1.
        -13    1    4    4    0    0  0.32134274365E+02 -0.82265569260E+01 -0.37026830216E+02  0.49711909878E+02  0.00000000000E+00 0.  1.
         14    1    4    4    0    0  0.25160001385E+02  0.61657507282E+02  0.24377123748E+01  0.66637949515E+02  0.00000000000E+00 0. -1.
         -5    1    5    5    0  502 -0.31406009429E+02 -0.61482411098E+02  0.50437616365E+02  0.85629828023E+02  0.47000000000E+01 0.  1.
         13    1    6    6    0    0  0.36459195929E+02  0.11149371046E+02  0.76167356249E+02  0.85176567203E+02  0.00000000000E+00 0. -1.
        -14    1    6    6    0    0 -0.37195370004E+02  0.41331577910E+02  0.10612254026E+03  0.11980729708E+03  0.00000000000E+00 0.  1.
</event>
<event>
12    1  0.8135779E-002  0.1843999E+03  0.7818608E-02  0.1163704E+00
         21   -1    0    0  503  502  0.00000000000E+00  0.00000000000E+00  0.12017945801E+03  0.12017945801E+03  0.00000000000E+00 0.  1.
         21   -1    0    0  501  503 -0.00000000000E+00 -0.00000000000E+00 -0.77868663773E+03  0.77868663773E+03  0.00000000000E+00 0.  1.
          6    2    1    2  501    0  0.43591141809E+02 -0.50367624093E+02 -0.68794765498E+03  0.71213085678E+03  0.17152637111E+03 0.  0.
         24    2    3    3    0    0 -0.36145314482E+02 -0.49917608872E+02 -0.32840301135E+03  0.34382046358E+03  0.81029142161E+02 0.  0.
         -6    2    1    2    0  502 -0.43591141809E+02  0.50367624093E+02  0.29440475254E+02  0.18673523897E+03  0.17194831400E+03 0.  0.
        -24    2    5    5    0    0 -0.64922803836E+00  0.11691055045E+01 -0.41116592273E+02  0.90480930139E+02  0.80588065208E+02 0.  0.
          5    1    3    3  501    0  0.79736456291E+02 -0.45001522096E+00 -0.35954464362E+03  0.36831039319E+03  0.47000000000E+01 0. -1.
        -11    1    4    4    0    0  0.78525536628E+01 -0.20865726595E+02 -0.23893409034E+03  0.23997195810E+03  0.00000000000E+00 0.  1.
         12    1    4    4    0    0 -0.43997868144E+02 -0.29051882276E+02 -0.89468921009E+02  0.10384850549E+03  0.00000000000E+00 0. -1.
         -5    1    5    5    0  502 -0.42941913771E+02  0.49198518588E+02  0.70557067527E+02  0.96254308826E+02  0.47000000000E+01 0.  1.
         11    1    6    6    0    0  0.33778498708E+02  0.39032291794E+01 -0.44246804259E+02  0.55803242380E+02  0.00000000000E+00 0. -1.
        -12    1    6    6    0    0 -0.34427726747E+02 -0.27341236749E+01  0.31302119864E+01  0.34677687759E+02  0.00000000000E+00 0.  1.
</event>
<event>
12    1  0.8135779E-002  0.2971095E+03  0.7818608E-02  0.1086698E+00
         21   -1    0    0  501  502  0.00000000000E+00  0.00000000000E+00  0.66863978563E+03  0.66863978563E+03  0.00000000000E+00 0.  1.
         21   -1    0    0  502  503 -0.00000000000E+00 -0.00000000000E+00 -0.24717333307E+03  0.24717333307E+03  0.00000000000E+00 0. -1.
         -6    2    1    2    0  503  0.15953327684E+03 -0.18237054650E+03 -0.10182344202E+03  0.31407336460E+03  0.17194238091E+03 0.  0.
        -24    2    3    3    0    0  0.14465117197E+03 -0.18201255137E+03 -0.13268731984E+03  0.27948616812E+03  0.80337182652E+02 0.  0.
          6    2    1    2  501    0 -0.15953327684E+03  0.18237054650E+03  0.52328989458E+03  0.60173975409E+03  0.17189687383E+03 0.  0.
         24    2    5    5    0    0 -0.27741242304E+02  0.36956873653E+02  0.12111067599E+03  0.15420820158E+03  0.83528357840E+02 0.  0.
          5    1    5    5  501    0 -0.13179203454E+03  0.14541367285E+03  0.40217921860E+03  0.44753155251E+03  0.47000000000E+01 0. -1.
        -11    1    6    6    0    0 -0.47823752296E+02 -0.54742338017E+01  0.54444775900E+02  0.72672636819E+02  0.00000000000E+00 0.  1.
         12    1    6    6    0    0  0.20082509992E+02  0.42431107455E+02  0.66665900087E+02  0.81535564766E+02  0.00000000000E+00 0. -1.
         -5    1    3    3    0  503  0.14882104876E+02 -0.35799513420E+00  0.30863877822E+02  0.34587196479E+02  0.47000000000E+01 0.  1.
         13    1    4    4    0    0  0.56967389333E+02 -0.65289627124E+02 -0.95266527316E+02  0.12877783227E+03  0.00000000000E+00 0. -1.
        -14    1    4    4    0    0  0.87683782636E+02 -0.11672292425E+03 -0.37420792526E+02  0.15070833585E+03  0.00000000000E+00 0.  1.
</event>
<event>
12    1  0.8135779E-002  0.2035229E+03  0.7818608E-02  0.1147193E+00
         21   -1    0    0  503  502  0.00000000000E+00  0.00000000000E+00  0.75223284972E+02  0.75223284972E+02  0.00000000000E+00 0. -1.
         21   -1    0    0  501  503 -0.00000000000E+00 -0.00000000000E+00 -0.56573226748E+03  0.56573226748E+03  0.00000000000E+00 0. -1.
          6    2    1    2  501    0 -0.23394364095E+02  0.10382770554E+03 -0.30691494697E+03  0.36826398891E+03  0.17347648874E+03 0.  0.
         24    2    3    3    0    0 -0.12479891101E+02  0.23096847681E+01 -0.21656951042E+03  0.23184763297E+03  0.81791746201E+02 0.  0.
         -6    2    1    2    0  502  0.23394364095E+02 -0.10382770554E+03 -0.18359403554E+03  0.27269156354E+03  0.17124961382E+03 0.  0.
        -24    2    5    5    0    0 -0.32531745276E+02 -0.43814252382E+02 -0.15970760674E+03  0.18712290252E+03  0.80811248184E+02 0.  0.
          5    1    3    3  501    0 -0.10914472993E+02  0.10151802077E+03 -0.90345436557E+02  0.13641635594E+03  0.47000000000E+01 0. -1.
        -11    1    4    4    0    0 -0.24648162095E+02 -0.28549586710E+02 -0.17313041170E+03  0.17719128153E+03  0.00000000000E+00 0.  1.
         12    1    4    4    0    0  0.12168270993E+02  0.30859271478E+02 -0.43439098714E+02  0.54656351436E+02  0.00000000000E+00 0. -1.
         -5    1    5    5    0  502  0.55926109371E+02 -0.60013453155E+02 -0.23886428796E+02  0.85568661025E+02  0.47000000000E+01 0.  1.
         11    1    6    6    0    0  0.15282100680E+02 -0.42881003580E+02 -0.51003908590E+02  0.68364623605E+02  0.00000000000E+00 0. -1.
        -12    1    6    6    0    0 -0.47813845957E+02 -0.93324880203E+00 -0.10870369815E+03  0.11875827891E+03  0.00000000000E+00 0.  1.
</event>
<event>
12    1  0.8135779E-002  0.2098931E+03  0.7818608E-02  0.1141753E+00
         21   -1    0    0  501  502  0.00000000000E+00  0.00000000000E+00  0.15124070929E+04  0.15124070929E+04  0.00000000000E+00 0. -1.
         21   -1    0    0  502  503 -0.00000000000E+00 -0.00000000000E+00 -0.32555391660E+02  0.32555391660E+02  0.00000000000E+00 0. -1.
         -6    2    1    2    0  503  0.11049400983E+03  0.47744714132E+02  0.48591698505E+03  0.52910751685E+03  0.17132123072E+03 0.  0.
        -24    2    3    3    0    0  0.11622309586E+03  0.24360924162E+02  0.48393423047E+03  0.50449765347E+03  0.78894108102E+02 0.  0.
          6    2    1    2  501    0 -0.11049400983E+03 -0.47744714132E+02  0.99393471622E+03  0.10158549677E+04  0.17194944441E+03 0.  0.
         24    2    5    5    0    0 -0.35087671289E+02  0.36333749541E+02  0.53635819631E+03  0.54452316792E+03  0.79209087992E+02 0.  0.
          5    1    5    5  501    0 -0.75406338536E+02 -0.84078463673E+02  0.45757651991E+03  0.47133179982E+03  0.47000000000E+01 0. -1.
        -11    1    6    6    0    0  0.16679507534E+02  0.38384762089E+02  0.26086301530E+03  0.26419899448E+03  0.00000000000E+00 0.  1.
         12    1    6    6    0    0 -0.51767178822E+02 -0.20510125485E+01  0.27549518100E+03  0.28032417343E+03  0.00000000000E+00 0. -1.
         -5    1    3    3    0  503 -0.57290860347E+01  0.23383789970E+02  0.19827545771E+01  0.24609863386E+02  0.47000000000E+01 0.  1.
         11    1    4    4    0    0  0.44358957710E+02  0.19334190587E+02  0.34119761967E+03  0.34461187403E+03  0.00000000000E+00 0. -1.
        -12    1    4    4    0    0  0.71864138150E+02  0.50267335746E+01  0.14273661081E+03  0.15988577944E+03  0.00000000000E+00 0.  1.
</event>
<event>
12    1  0.8135779E-002  0.1888190E+03  0.7818608E-02  0.1159959E+00
         21   -1    0    0  503  502  0.00000000000E+00  0.00000000000E+00  0.68002487195E+02  0.68002487195E+02  0.00000000000E+00 0.  1.
         21   -1    0    0  501  503 -0.00000000000E+00 -0.00000000000E+00 -0.68730155008E+03  0.68730155008E+03  0.00000000000E+00 0.  1.
          6    2    1    2  501    0 -0.55638194719E+02  0.52707530149E+02 -0.49530875463E+03  0.52941425701E+03  0.17051393103E+03 0.  0.
         24    2    3    3    0    0 -0.76015353355E+02  0.74085971540E+01 -0.43748013796E+03  0.45303716077E+03  0.89557672345E+02 0.  0.
         -6    2    1    2    0  502  0.55638194719E+02 -0.52707530149E+02 -0.12399030825E+03  0.22588978026E+03  0.17256565080E+03 0.  0.
        -24    2    5    5    0    0  0.94821604166E+02 -0.26704306285E+02 -0.46998713305E+02  0.13554985044E+03  0.80378021312E+02 0.  0.
          5    1    3    3  501    0  0.20377158636E+02  0.45298932995E+02 -0.57828616671E+02  0.76377096244E+02  0.47000000000E+01 0. -1.
        -13    1    4    4    0    0 -0.56594947489E+02  0.32528469143E+02 -0.14718707694E+03  0.16101281006E+03  0.00000000000E+00 0.  1.
         14    1    4    4    0    0 -0.19420405867E+02 -0.25119871989E+02 -0.29029306101E+03  0.29202435071E+03  0.00000000000E+00 0. -1.
         -5    1    5    5    0  502 -0.39183409447E+02 -0.26003223864E+02 -0.76991594949E+02  0.90339929820E+02  0.47000000000E+01 0.  1.
         11    1    6    6    0    0  0.29484679581E+02  0.14288530529E+02 -0.48350466118E+02  0.58406129888E+02  0.00000000000E+00 0. -1.
        -12    1    6    6    0    0  0.65336924584E+02 -0.40992836814E+02  0.13517528126E+01  0.77143720547E+02  0.00000000000E+00 0.  1.
</event>
<event>
12    1  0.8135779E-002  0.1928776E+03  0.7818608E-02  0.1156434E+00
         21   -1    0    0  501  502  0.00000000000E+00  0.00000000000E+00  0.71562515195E+02  0.71562515195E+02  0.00000000000E+00 0.  1.
         21   -1    0    0  502  503 -0.00000000000E+00 -0.00000000000E+00 -0.59192716630E+03  0.59192716630E+03  0.00000000000E+00 0.  1.
         -6    2    1    2    0  503 -0.18767737670E+02  0.79253420495E+02 -0.38252194414E+03  0.42839794466E+03  0.17483829274E+03 0.  0.
        -24    2    3    3    0    0  0.21944871537E+02  0.11175356693E+03 -0.30179001641E+03  0.33220277732E+03  0.79442017503E+02 0.  0.
          6    2    1    2  501    0  0.18767737670E+02 -0.79253420495E+02 -0.13784270697E+03  0.23509173683E+03  0.17214581094E+03 0.  0.
         24    2    5    5    0    0  0.13459789637E+02 -0.67769734689E+02 -0.10316600431E+02  0.10685349292E+03  0.80853780544E+02 0.  0.
          5    1    5    5  501    0  0.53079480333E+01 -0.11483685805E+02 -0.12752610654E+03  0.12823824391E+03  0.47000000000E+01 0. -1.
        -11    1    6    6    0    0  0.10487370947E+02 -0.72937635698E+02 -0.34916363520E+02  0.81541621839E+02  0.00000000000E+00 0.  1.
         12    1    6    6    0    0  0.29724186893E+01  0.51679010087E+01  0.24599763089E+02  0.25311871083E+02  0.00000000000E+00 0. -1.
         -5    1    3    3    0  503 -0.40712609207E+02 -0.32500146431E+02 -0.80731927725E+02  0.96195167346E+02  0.47000000000E+01 0.  1.
         11    1    4    4    0    0 -0.68957794870E+01 -0.89511287824E+01 -0.98882422832E+01  0.15015053002E+02  0.00000000000E+00 0. -1.
        -12    1    4    4    0    0  0.28840651024E+02  0.12070469571E+03 -0.29190177413E+03  0.31718772431E+03  0.00000000000E+00 0.  1.
</event>
<event>
12    1  0.8135779E-002  0.1982921E+03  0.7818608E-02  0.1153250E+00
         21   -1    0    0  501  502  0.00000000000E+00  0.00000000000E+00  0.58710568729E+03  0.58710568729E+03  0.00000000000E+00 0.  1.
         21   -1    0    0  502  503 -0.00000000000E+00 -0.00000000000E+00 -0.63975029620E+02  0.63975029620E+02  0.00000000000E+00 0.  1.
         -6    2    1    2    0  503 -0.76322059225E+02  0.63364368334E+02  0.23962871621E+03  0.30511380323E+03  0.16072464462E+03 0.  0.
        -24    2    3    3    0    0 -0.29860473518E+01  0.12393592417E+02  0.45127008164E+02  0.91036258704E+02  0.78029711784E+02 0.  0.
          6    2    1    2  501    0  0.76322059225E+02 -0.63364368334E+02  0.28350194146E+03  0.34596691369E+03  0.17169640257E+03 0.  0.
         24    2    5    5    0    0  0.37445268720E+02 -0.13533981019E+02  0.26691338045E+03  0.28045552005E+03  0.76336290647E+02 0.  0.
          5    1    5    5  501    0  0.38876790504E+02 -0.49830387315E+02  0.16588561005E+02  0.65511393636E+02  0.47000000000E+01 0. -1.
        -11    1    6    6    0    0  0.49318612368E+01 -0.39313281280E+02  0.83727485677E+02  0.92629094771E+02  0.00000000000E+00 0.  1.
         12    1    6    6    0    0  0.32513407483E+02  0.25779300261E+02  0.18318589478E+03  0.18782642528E+03  0.00000000000E+00 0. -1.
         -5    1    3    3    0  503 -0.73336011873E+02  0.50970775918E+02  0.19450170805E+03  0.21407754452E+03  0.47000000000E+01 0.  1.
         13    1    4    4    0    0 -0.94454104581E+01 -0.18146627335E+02 -0.13574025341E+02  0.24551375243E+02  0.00000000000E+00 0. -1.
        -14    1    4    4    0    0  0.64593631063E+01  0.30540219751E+02  0.58701033505E+02  0.66484883461E+02  0.00000000000E+00 0.  1.
</event>
<event>
12    1  0.8135779E-002  0.1742512E+03  0.7818608E-02  0.1173901E+00
         21   -1    0    0  501  502  0.00000000000E+00  0.00000000000E+00  0.26460562845E+03  0.26460562845E+03  0.00000000000E+00 0. -1.
         21   -1    0    0  502  503 -0.00000000000E+00 -0.00000000000E+00 -0.23325171310E+03  0.23325171310E+03  0.00000000000E+00 0. -1.
         -6    2    1    2    0  503 -0.14807851611E+02  0.92630343591E+01 -0.16251789957E+03  0.23827623114E+03  0.17337363805E+03 0.  0.
        -24    2    3    3    0    0  0.15438329957E+02  0.68547297975E+02 -0.11060848454E+03  0.15374142895E+03  0.80405945256E+02 0.  0.
          6    2    1    2  501    0  0.14807851611E+02 -0.92630343591E+01  0.19387181491E+03  0.25958111041E+03  0.17172942668E+03 0.  0.
         24    2    5    5    0    0  0.54590736588E+01  0.48846555621E+02  0.56624461008E+02  0.11017210716E+03  0.80720357598E+02 0.  0.
          5    1    5    5  501    0  0.93487779518E+01 -0.58109589980E+02  0.13724735391E+03  0.14940900325E+03  0.47000000000E+01 0. -1.
        -13    1    6    6    0    0  0.38328974804E+01  0.12656071829E+02 -0.20825024183E+02  0.24668783704E+02  0.00000000000E+00 0.  1.
         14    1    6    6    0    0  0.16261761784E+01  0.36190483792E+02  0.77449485190E+02  0.85503323457E+02  0.00000000000E+00 0. -1.
         -5    1    3    3    0  503 -0.30246181568E+02 -0.59284263616E+02 -0.51909415030E+02  0.84534802186E+02  0.47000000000E+01 0.  1.
         11    1    4    4    0    0 -0.26437415847E+02  0.57678334755E+02 -0.68467592514E+02  0.93346336198E+02  0.00000000000E+00 0. -1.
        -12    1    4    4    0    0  0.41875745804E+02  0.10868963219E+02 -0.42140892028E+02  0.60395092756E+02  0.00000000000E+00 0.  1.
</event>
<event>
12    1  0.8135779E-002  0.1792532E+03  0.7818608E-02  0.1168759E+00
         21   -1    0    0  503  502  0.00000000000E+00  0.00000000000E+00  0.53343004188E+02  0.53343004188E+02  0.00000000000E+00 0.  1.
         21   -1    0    0  501  503 -0.00000000000E+00 -0.00000000000E+00 -0.61066300493E+03  0.61066300493E+03  0.00000000000E+00 0. -1.
          6    2    1    2  501    0  0.15762641870E+02  0.47923608089E+02 -0.32345510062E+03  0.36934602749E+03  0.17102091339E+03 0.  0.
         24    2    3    3    0    0  0.55321690233E+02 -0.64059704426E+01 -0.11644366539E+03  0.15164796658E+03  0.79601838482E+02 0.  0.
         -6    2    1    2    0  502 -0.15762641870E+02 -0.47923608089E+02 -0.23386490013E+03  0.29465998163E+03  0.17200750034E+03 0.  0.
        -24    2    5    5    0    0 -0.28069285276E+02  0.89626954617E+01 -0.43838423799E+02  0.95864466818E+02  0.79999836945E+02 0.  0.
          5    1    3    3  501    0 -0.39559048363E+02  0.54329578532E+02 -0.20701143522E+03  0.21769806091E+03  0.47000000000E+01 0. -1.
        -13    1    4    4    0    0  0.41677143797E+02  0.33986953459E+02 -0.55596196401E+02  0.77350076760E+02  0.00000000000E+00 0.  1.
         14    1    4    4    0    0  0.13644546436E+02 -0.40392923902E+02 -0.60847468992E+02  0.74297889819E+02  0.00000000000E+00 0. -1.
         -5    1    5    5    0  502  0.12306643406E+02 -0.56886303551E+02 -0.19002647633E+03  0.19879551481E+03  0.47000000000E+01 0.  1.
         11    1    6    6    0    0 -0.85843744610E+01  0.28813052683E+02 -0.57492176718E+02  0.64878608752E+02  0.00000000000E+00 0. -1.
        -12    1    6    6    0    0 -0.19484910815E+02 -0.19850357222E+02  0.13653752919E+02  0.30985858066E+02  0.00000000000E+00 0.  1.
</event>
<event>
12    1  0.8135779E-002  0.1810377E+03  0.7818608E-02  0.1166974E+00
         21   -1    0    0  503  502  0.00000000000E+00  0.00000000000E+00  0.21509985653E+02  0.21509985653E+02  0.00000000000E+00 0.  1.
         21   -1    0    0  501  503 -0.00000000000E+00 -0.00000000000E+00 -0.18680952820E+04  0.18680952820E+04  0.00000000000E+00 0. -1.
          6    2    1    2  501    0  0.14386352913E+02  0.52157045387E+02 -0.13310023293E+04  0.13431618216E+04  0.17201498199E+03 0.  0.
         24    2    3    3    0    0 -0.17194832400E+02  0.29850904935E+02 -0.33299868831E+03  0.34439843998E+03  0.80841946126E+02 0.  0.
         -6    2    1    2    0  502 -0.14386352913E+02 -0.52157045387E+02 -0.51558296711E+03  0.54644344606E+03  0.17276376712E+03 0.  0.
        -24    2    5    5    0    0 -0.29735097289E+02 -0.96045583355E+02 -0.42785914771E+03  0.44704854574E+03  0.81731400797E+02 0.  0.
          5    1    3    3  501    0  0.31581185314E+02  0.22306140452E+02 -0.99800364096E+03  0.99876338165E+03  0.47000000000E+01 0. -1.
        -13    1    4    4    0    0  0.68614032201E+01 -0.22992030691E+02 -0.16303787690E+03  0.16479399756E+03  0.00000000000E+00 0.  1.
         14    1    4    4    0    0 -0.24056235620E+02  0.52842935626E+02 -0.16996081141E+03  0.17960444241E+03  0.00000000000E+00 0. -1.
         -5    1    5    5    0  502  0.15348744375E+02  0.43888537968E+02 -0.87723819405E+02  0.99394900321E+02  0.47000000000E+01 0.  1.
         13    1    6    6    0    0  0.88677220516E+01  0.99798248824E+01 -0.86504713399E+02  0.87528845756E+02  0.00000000000E+00 0. -1.
        -14    1    6    6    0    0 -0.38602819340E+02 -0.10602540824E+03 -0.34135443431E+03  0.35951969998E+03  0.00000000000E+00 0.  1.
</event>
<event>
12    1  0.8135779E-002  0.2332565E+03  0.7818608E-02  0.1125946E+00
         21   -1    0    0  501  502  0.00000000000E+00  0.00000000000E+00  0.56203069335E+03  0.56203069335E+03  0.00000000000E+00 0. -1.
         21   -1    0    0  502  503 -0.00000000000E+00 -0.00000000000E+00 -0.16393751296E+03  0.16393751296E+03  0.00000000000E+00 0.  1.
         -6    2    1    2    0  503 -0.22917821496E+02  0.15570754239E+03 -0.41686038686E+02  0.22815866965E+03  0.15983925492E+03 0.  0.
        -24    2    3    3    0    0 -0.29577164444E+00  0.30459243356E+02  0.18076190483E+02  0.87472822506E+02  0.79980579068E+02 0.  0.
          6    2    1    2  501    0  0.22917821496E+02 -0.15570754239E+03  0.43977921907E+03  0.49780953667E+03  0.17215838047E+03 0.  0.
         24    2    5    5    0    0  0.67251283425E+02 -0.67286997601E+02  0.17032612323E+03  0.21073688131E+03  0.79679167444E+02 0.  0.
          5    1    5    5  501    0 -0.44333461929E+02 -0.88420544793E+02  0.26945309585E+03  0.28707265535E+03  0.47000000000E+01 0. -1.
        -13    1    6    6    0    0  0.48304531199E+02 -0.40710370979E+02  0.16624628270E+03  0.17784400061E+03  0.00000000000E+00 0.  1.
         14    1    6    6    0    0  0.18946752226E+02 -0.26576626622E+02  0.40798405231E+01  0.32892880707E+02  0.00000000000E+00 0. -1.
         -5    1    3    3    0  503 -0.22622049851E+02  0.12524829904E+03 -0.59762229170E+02  0.14068584714E+03  0.47000000000E+01 0.  1.
         11    1    4    4    0    0  0.17855759925E+02  0.53197131974E+02  0.79910896717E+01  0.56679983476E+02  0.00000000000E+00 0. -1.
        -12    1    4    4    0    0 -0.18151531570E+02 -0.22737888618E+02  0.10085100812E+02  0.30792839030E+02  0.00000000000E+00 0.  1.
</event>
<event>
12    1  0.8135779E-002  0.2046619E+03  0.7818608E-02  0.1148328E+00
         21   -1    0    0  503  502  0.00000000000E+00  0.00000000000E+00  0.68879731385E+02  0.68879731385E+02  0.00000000000E+00 0. -1.
         21   -1    0    0  501  503 -0.00000000000E+00 -0.00000000000E+00 -0.11887222394E+04  0.11887222394E+04  0.00000000000E+00 0. -1.
          6    2    1    2  501    0  0.77288423121E+02  0.41481939960E+02 -0.10199568194E+04  0.10402876623E+04  0.18491147935E+03 0.  0.
         24    2    3    3    0    0 -0.13551825282E+01  0.82352457642E+02 -0.65865865299E+03  0.66824778409E+03  0.77072147910E+02 0.  0.
         -6    2    1    2    0  502 -0.77288423121E+02 -0.41481939960E+02 -0.99885688604E+02  0.21731430848E+03  0.17191307743E+03 0.  0.
        -24    2    5    5    0    0 -0.67367622566E+02  0.18447863220E+02 -0.60891923309E+01  0.10546675014E+03  0.78787288914E+02 0.  0.
          5    1    3    3  501    0  0.78643605649E+02 -0.40870517682E+02 -0.36129816642E+03  0.37203987821E+03  0.47000000000E+01 0. -1.
        -11    1    4    4    0    0 -0.30260908613E+02  0.61403320633E+02 -0.29487023439E+03  0.30271198441E+03  0.00000000000E+00 0.  1.
         12    1    4    4    0    0  0.28905726085E+02  0.20949137009E+02 -0.36378841860E+03  0.36553579968E+03  0.00000000000E+00 0. -1.
         -5    1    5    5    0  502 -0.99208005552E+01 -0.59929803180E+02 -0.93796496273E+02  0.11184755834E+03  0.47000000000E+01 0.  1.
         13    1    6    6    0    0  0.57992440621E+01 -0.18140084723E+02  0.10861331962E+02  0.21924015084E+02  0.00000000000E+00 0. -1.
        -14    1    6    6    0    0 -0.73166866628E+02  0.36587947943E+02 -0.16950524293E+02  0.83542735056E+02  0.00000000000E+00 0.  1.
</event>
<event>
12    1  0.8135779E-002  0.2316805E+03  0.7818608E-02  0.1125684E+00
         21   -1    0    0  503  502  0.00000000000E+00  0.00000000000E+00  0.11289940693E+04  0.11289940693E+04  0.00000000000E+00 0.  1.
         21   -1    0    0  501  503 -0.00000000000E+00 -0.00000000000E+00 -0.82695273967E+02  0.82695273967E+02  0.00000000000E+00 0. -1.
          6    2    1    2  501    0 -0.41328951270E+02  0.14893629217E+03  0.12587193149E+03  0.26255212276E+03  0.17087940979E+03 0.  0.
         24    2    3    3    0    0 -0.45836857827E+02  0.17898145045E+03  0.10160168187E+03  0.22338366895E+03  0.73769808548E+02 0.  0.
         -6    2    1    2    0  502  0.41328951270E+02 -0.14893629217E+03  0.92042686383E+03  0.94913722050E+03  0.17258548703E+03 0.  0.
        -24    2    5    5    0    0  0.12845706759E+02 -0.59545817449E+02  0.67439407947E+03  0.68578161838E+03  0.10852804762E+03 0.  0.
          5    1    3    3  501    0  0.45079065563E+01 -0.30045158279E+02  0.24270249625E+02  0.39168453816E+02  0.47000000000E+01 0. -1.
        -11    1    4    4    0    0 -0.49031722632E+01  0.88628254215E+02  0.84833516733E+02  0.12278328105E+03  0.00000000000E+00 0.  1.
         12    1    4    4    0    0 -0.40933685563E+02  0.90353196232E+02  0.16768165136E+02  0.10060038790E+03  0.00000000000E+00 0. -1.
         -5    1    5    5    0  502  0.28483244511E+02 -0.89390474719E+02  0.24603278436E+03  0.26335560212E+03  0.47000000000E+01 0.  1.
         13    1    6    6    0    0  0.31971004023E+01 -0.70411325018E+01 -0.14200789254E+01  0.78622911448E+01  0.00000000000E+00 0. -1.
        -14    1    6    6    0    0  0.96486063570E+01 -0.52504684947E+02  0.67581415840E+03  0.67791932723E+03  0.00000000000E+00 0.  1.
</event>
<event>
12    1  0.8135779E-002  0.1792560E+03  0.7818608E-02  0.1168776E+00
         21   -1    0    0  503  502  0.00000000000E+00  0.00000000000E+00  0.27571176328E+04  0.27571176328E+04  0.00000000000E+00 0.  1.
         21   -1    0    0  501  503 -0.00000000000E+00 -0.00000000000E+00 -0.26390433733E+02  0.26390433733E+02  0.00000000000E+00 0.  1.
          6    2    1    2  501    0 -0.40457132168E+02  0.18537832753E+02  0.32474864327E+03  0.37093719035E+03  0.17364413925E+03 0.  0.
         24    2    3    3    0    0 -0.49489324812E+02  0.75625822318E+02  0.20084050559E+03  0.23413099298E+03  0.79447812538E+02 0.  0.
         -6    2    1    2    0  502  0.40457132168E+02 -0.18537832753E+02  0.24059785558E+04  0.24125708762E+04  0.17258328669E+03 0.  0.
        -24    2    5    5    0    0 -0.44965387197E+02 -0.11326522396E+02  0.10630408217E+04  0.10668915468E+04  0.77792081291E+02 0.  0.
          5    1    3    3  501    0  0.90321926439E+01 -0.57087989565E+02  0.12390813768E+03  0.13680619737E+03  0.47000000000E+01 0. -1.
        -11    1    4    4    0    0 -0.46961238613E+02  0.32357852283E+01  0.92801436619E+02  0.10405736339E+03  0.00000000000E+00 0.  1.
         12    1    4    4    0    0 -0.25280861996E+01  0.72390037090E+02  0.10803906897E+03  0.13007362959E+03  0.00000000000E+00 0. -1.
         -5    1    5    5    0  502  0.85422519365E+02 -0.72113103568E+01  0.13429377341E+04  0.13456793294E+04  0.47000000000E+01 0.  1.
         11    1    6    6    0    0 -0.53070621527E+02  0.17589733535E+02  0.83689825093E+03  0.83876371643E+03  0.00000000000E+00 0. -1.
        -12    1    6    6    0    0  0.81052343303E+01 -0.28916255932E+02  0.22614257073E+03  0.22812783035E+03  0.00000000000E+00 0.  1.
</event>
<event>
12    1  0.8135779E-002  0.1780179E+03  0.7818608E-02  0.1169869E+00
         21   -1    0    0  503  502  0.00000000000E+00  0.00000000000E+00  0.18665216770E+03  0.18665216770E+03  0.00000000000E+00 0.  1.
         21   -1    0    0  501  503 -0.00000000000E+00 -0.00000000000E+00 -0.17033593600E+03  0.17033593600E+03  0.00000000000E+00 0.  1.
          6    2    1    2  501    0 -0.39241028602E+02  0.75124720627E+01 -0.59881864140E+01  0.17811861280E+03  0.17347647185E+03 0.  0.
         24    2    3    3    0    0 -0.56814371145E+02  0.59809367177E+02  0.21816470171E+02  0.11615913786E+03  0.78815948680E+02 0.  0.
         -6    2    1    2    0  502  0.39241028602E+02 -0.75124720627E+01  0.22304418118E+02  0.17886949091E+03  0.17291764556E+03 0.  0.
        -24    2    5    5    0    0 -0.42555483013E+02  0.58045703293E+01  0.35241849353E+02  0.94860681504E+02  0.76888872917E+02 0.  0.
          5    1    3    3  501    0  0.17573342544E+02 -0.52296895115E+02 -0.27804656585E+02  0.61959474938E+02  0.47000000000E+01 0. -1.
        -11    1    4    4    0    0 -0.19171080874E+02 -0.14106334133E+02  0.23144833088E+02  0.33199432273E+02  0.00000000000E+00 0.  1.
         12    1    4    4    0    0 -0.37643290271E+02  0.73915701311E+02 -0.13283629174E+01  0.82959705585E+02  0.00000000000E+00 0. -1.
         -5    1    5    5    0  502  0.81796511614E+02 -0.13317042392E+02 -0.12937431235E+02  0.84008809403E+02  0.47000000000E+01 0.  1.
         11    1    6    6    0    0 -0.48522638019E+02  0.22174859647E+02 -0.23771823573E+01  0.53402451223E+02  0.00000000000E+00 0. -1.
        -12    1    6    6    0    0  0.59671550058E+01 -0.16370289318E+02  0.37619031710E+02  0.41458230281E+02  0.00000000000E+00 0.  1.
</event>
<event>
12    1  0.8135779E-002  0.2214002E+03  0.7818608E-02  0.1133154E+00
         21   -1    0    0  501  502  0.00000000000E+00  0.00000000000E+00  0.10104449617E+03  0.10104449617E+03  0.00000000000E+00 0.  1.
         21   -1    0    0  502  503 -0.00000000000E+00 -0.00000000000E+00 -0.86395344305E+03  0.86395344305E+03  0.00000000000E+00 0.  1.
         -6    2    1    2    0  503 -0.13667660534E+03  0.23186960888E+01 -0.70169253227E+03  0.73529050025E+03  0.17202859974E+03 0.  0.
        -24    2    3    3    0    0 -0.11442695951E+03 -0.55988762543E+02 -0.57052669708E+03  0.58995856023E+03  0.79511760846E+02 0.  0.
          6    2    1    2  501    0  0.13667660534E+03 -0.23186960888E+01 -0.61216414618E+02  0.22970743897E+03  0.17416138291E+03 0.  0.
         24    2    5    5    0    0  0.95681553594E+02 -0.49198360085E+02  0.16692926067E+02  0.12985628709E+03  0.70771203066E+02 0.  0.
          5    1    5    5  501    0  0.40995051751E+02  0.46879663996E+02 -0.77909340686E+02  0.99851151874E+02  0.47000000000E+01 0. -1.
        -11    1    6    6    0    0  0.10396360757E+03 -0.35938240943E+02  0.46087291620E+01  0.11009645428E+03  0.00000000000E+00 0.  1.
         12    1    6    6    0    0 -0.82820539778E+01 -0.13260119142E+02  0.12084196905E+02  0.19759832808E+02  0.00000000000E+00 0. -1.
         -5    1    3    3    0  503 -0.22249645833E+02  0.58307458631E+02 -0.13116583519E+03  0.14533194003E+03  0.47000000000E+01 0.  1.
         11    1    4    4    0    0  0.81809502170E+01  0.83522599361E+01 -0.42475724748E+02  0.44055367271E+02  0.00000000000E+00 0. -1.
        -12    1    4    4    0    0 -0.12260790973E+03 -0.64341022479E+02 -0.52805097233E+03  0.54590319296E+03  0.00000000000E+00 0.  1.
</event>
<event>
12    1  0.8135779E-002  0.1876592E+03  0.7818608E-02  0.1163555E+00
         21   -1    0    0  501  502  0.00000000000E+00  0.00000000000E+00  0.77507374078E+02  0.77507374078E+02  0.00000000000E+00 0.  1.
         21   -1    0    0  502  503 -0.00000000000E+00 -0.00000000000E+00 -0.78656120451E+03  0.78656120451E+03  0.00000000000E+00 0.  1.
         -6    2    1    2    0  503  0.30941083549E+02 -0.39309196991E+01 -0.65406825232E+03  0.68045664119E+03  0.18504907205E+03 0.  0.
        -24    2    3    3    0    0  0.27944572236E+02  0.59388244113E+02 -0.24622203393E+03  0.26768682223E+03  0.81994403161E+02 0.  0.
          6    2    1    2  501    0 -0.30941083549E+02  0.39309196991E+01 -0.54985578118E+02  0.18361193740E+03  0.17238656263E+03 0.  0.
         24    2    5    5    0    0  0.37105243140E+02 -0.71135283861E+01  0.88881544164E+01  0.89515039912E+02  0.80663137349E+02 0.  0.
          5    1    5    5  501    0 -0.68046326690E+02  0.11044448085E+02 -0.63873732535E+02  0.94096897491E+02  0.47000000000E+01 0. -1.
        -11    1    6    6    0    0  0.43320069206E+02 -0.29903807906E+02 -0.16180802988E+02  0.55069814859E+02  0.00000000000E+00 0.  1.
         12    1    6    6    0    0 -0.62148260657E+01  0.22790279519E+02  0.25068957405E+02  0.34445225053E+02  0.00000000000E+00 0. -1.
         -5    1    3    3    0  503  0.29965113131E+01 -0.63319163812E+02 -0.40784621839E+03  0.41276981896E+03  0.47000000000E+01 0.  1.
         11    1    4    4    0    0  0.12165079249E+02  0.64723191197E+01  0.15221569542E+01  0.13863514335E+02  0.00000000000E+00 0. -1.
        -12    1    4    4    0    0  0.15779492987E+02  0.52915924994E+02 -0.24774419088E+03  0.25382330790E+03  0.00000000000E+00 0.  1.
</event>
<event>
12    1  0.8135779E-002  0.1819056E+03  0.7818608E-02  0.1166211E+00
         21   -1    0    0  503  502  0.00000000000E+00  0.00000000000E+00  0.10447096625E+03  0.10447096625E+03  0.00000000000E+00 0. -1.
         21   -1    0    0  501  503 -0.00000000000E+00 -0.00000000000E+00 -0.22990522130E+04  0.22990522130E+04  0.00000000000E+00 0. -1.
          6    2    1    2  501    0 -0.43554887901E+02  0.40799121031E+02 -0.22141093997E+04  0.22215692844E+04  0.17183729142E+03 0.  0.
         24    2    3    3    0    0 -0.44879665817E+01 -0.36962288197E+02 -0.78117951535E+03  0.78599162898E+03  0.78454145990E+02 0.  0.
         -6    2    1    2    0  502  0.43554887901E+02 -0.40799121031E+02  0.19528152972E+02  0.18195389489E+03  0.17077550928E+03 0.  0.
        -24    2    5    5    0    0 -0.14677673939E+02 -0.11923155236E+01  0.60080357564E+02  0.10055179665E+03  0.79272685815E+02 0.  0.
          5    1    3    3  501    0 -0.39066921319E+02  0.77761409227E+02 -0.14329298844E+04  0.14355776554E+04  0.47000000000E+01 0. -1.
        -13    1    4    4    0    0  0.10277657832E+02  0.70317065649E+01 -0.21128590569E+02  0.24525343772E+02  0.00000000000E+00 0.  1.
         14    1    4    4    0    0 -0.14765624413E+02 -0.43993994762E+02 -0.76005092478E+03  0.76146628520E+03  0.00000000000E+00 0. -1.
         -5    1    5    5    0  502  0.58232561840E+02 -0.39606805507E+02 -0.40552204591E+02  0.81402098242E+02  0.47000000000E+01 0.  1.
         11    1    6    6    0    0 -0.10008496991E+02 -0.37143790779E+02  0.11923316907E+02  0.40274020056E+02  0.00000000000E+00 0. -1.
        -12    1    6    6    0    0 -0.46691769486E+01  0.35951475255E+02  0.48157040657E+02  0.60277776595E+02  0.00000000000E+00 0.  1.
</event>
<event>
12    1  0.8135779E-002  0.2484710E+03  0.7818608E-02  0.1114735E+00
         21   -1    0    0  501  502  0.00000000000E+00  0.00000000000E+00  0.80779808373E+03  0.80779808373E+03  0.00000000000E+00 0. -1.
         21   -1    0    0  502  503 -0.00000000000E+00 -0.00000000000E+00 -0.75750313915E+02  0.75750313915E+02  0.00000000000E+00 0. -1.
         -6    2    1    2    0  503  0.23196040408E+02 -0.17379619234E+03  0.34100417751E+03  0.42024186533E+03  0.17197733434E+03 0.  0.
        -24    2    3    3    0    0 -0.27832930899E+02 -0.14768421949E+03  0.17052524331E+03  0.24032258330E+03  0.78043479598E+02 0.  0.
          6    2    1    2  501    0 -0.23196040408E+02  0.17379619234E+03  0.39104359230E+03  0.46330653232E+03  0.17605305747E+03 0.  0.
         24    2    5    5    0    0  0.52509095715E+02  0.13312150228E+03  0.23010780953E+03  0.28080142493E+03  0.73629455605E+02 0.  0.
          5    1    5    5  501    0 -0.75705136123E+02  0.40674690062E+02  0.16093578278E+03  0.18250510739E+03  0.47000000000E+01 0. -1.
        -13    1    6    6    0    0  0.56688924972E+02  0.44148148298E+02  0.10111986421E+03  0.12404805581E+03  0.00000000000E+00 0.  1.
         14    1    6    6    0    0 -0.41798292576E+01  0.88973353985E+02  0.12898794532E+03  0.15675336912E+03  0.00000000000E+00 0. -1.
         -5    1    3    3    0  503  0.51028971307E+02 -0.26111972854E+02  0.17047893420E+03  0.17991928203E+03  0.47000000000E+01 0.  1.
         13    1    4    4    0    0 -0.28504324194E+02 -0.96455002431E+02  0.15846414275E+03  0.18768843472E+03  0.00000000000E+00 0. -1.
        -14    1    4    4    0    0  0.67139329462E+00 -0.51229217059E+02  0.12061100563E+02  0.52634148575E+02  0.00000000000E+00 0.  1.
</event>
<event>
12    1  0.8135779E-002  0.2433171E+03  0.7818608E-02  0.1117631E+00
         21   -1    0    0  503  502  0.00000000000E+00  0.00000000000E+00  0.50256895327E+03  0.50256895327E+03  0.00000000000E+00 0. -1.
         21   -1    0    0  501  503 -0.00000000000E+00 -0.00000000000E+00 -0.12004815187E+03  0.12004815187E+03  0.00000000000E+00 0. -1.
          6    2    1    2  501    0 -0.11264944222E+03  0.13048711568E+03  0.14781250009E+03  0.28454726358E+03  0.17146960617E+03 0.  0.
         24    2    3    3    0    0 -0.13121134296E+01  0.37987772658E+02  0.99041521664E+02  0.13173094385E+03  0.78096261370E+02 0.  0.
         -6    2    1    2    0  502  0.11264944222E+03 -0.13048711568E+03  0.23470830131E+03  0.33806984157E+03  0.17171618119E+03 0.  0.
        -24    2    5    5    0    0  0.21546762786E+02 -0.11413481824E+03  0.18593802989E+03  0.23334293382E+03  0.79905907701E+02 0.  0.
          5    1    3    3  501    0 -0.11133732879E+03  0.92499343018E+02  0.48770978426E+02  0.15281631973E+03  0.47000000000E+01 0. -1.
        -13    1    4    4    0    0  0.87172177290E+01 -0.13576259600E+02 -0.35072542560E+01  0.16510770487E+02  0.00000000000E+00 0.  1.
         14    1    4    4    0    0 -0.10029331159E+02  0.51564032258E+02  0.10254877592E+03  0.11522017336E+03  0.00000000000E+00 0. -1.
         -5    1    5    5    0  502  0.91102679432E+02 -0.16352297439E+02  0.48770271421E+02  0.10472690774E+03  0.47000000000E+01 0.  1.
         13    1    6    6    0    0  0.18230431550E+02 -0.46640530838E+02  0.14712528098E+03  0.15541407933E+03  0.00000000000E+00 0. -1.
        -14    1    6    6    0    0  0.33163312364E+01 -0.67494287399E+02  0.38812748909E+02  0.77928854491E+02  0.00000000000E+00 0.  1.
</event>
<event>
12    1  0.8135779E-002  0.2105563E+03  0.7818608E-02  0.1141131E+00
         21   -1    0    0  501  502  0.00000000000E+00  0.00000000000E+00  0.29693498013E+03  0.29693498013E+03  0.00000000000E+00 0.  1.
         21   -1    0    0  502  503 -0.00000000000E+00 -0.00000000000E+00 -0.78563836598E+03  0.78563836598E+03  0.00000000000E+00 0.  1.
         -6    2    1    2    0  503 -0.51789747393E+02 -0.11040581510E+03 -0.73150082479E+03  0.76119420768E+03  0.17161451916E+03 0.  0.
        -24    2    3    3    0    0 -0.58844389849E+02 -0.14508285963E+03 -0.62760452830E+03  0.65133613641E+03  0.76417408197E+02 0.  0.
          6    2    1    2  501    0  0.51789747393E+02  0.11040581510E+03  0.24279743894E+03  0.32137913842E+03  0.17164595047E+03 0.  0.
         24    2    5    5    0    0 -0.70206804820E+01  0.65038841753E+02  0.21717413052E+03  0.24266781375E+03  0.86277018784E+02 0.  0.
          5    1    5    5  501    0  0.58810427875E+02  0.45366973346E+02  0.25623308424E+02  0.78711324675E+02  0.47000000000E+01 0. -1.
        -13    1    6    6    0    0  0.18975454350E+01 -0.86378748370E+01  0.12034319484E+03  0.12066771774E+03  0.00000000000E+00 0.  1.
         14    1    6    6    0    0 -0.89182259170E+01  0.73676716590E+02  0.96830935686E+02  0.12200009601E+03  0.00000000000E+00 0. -1.
         -5    1    3    3    0  503  0.70546424552E+01  0.34677044534E+02 -0.10389629650E+03  0.10985807127E+03  0.47000000000E+01 0.  1.
         13    1    4    4    0    0  0.52364813154E+01 -0.16175693452E+02 -0.17195574165E+02  0.24181843729E+02  0.00000000000E+00 0. -1.
        -14    1    4    4    0    0 -0.64080871164E+02 -0.12890716618E+03 -0.61040895413E+03  0.62715429268E+03  0.00000000000E+00 0.  1.
</event>
<event>
12    1  0.8135779E-002  0.1876709E+03  0.7818608E-02  0.1161342E+00
         21   -1    0    0  503  502  0.00000000000E+00  0.00000000000E+00  0.72584593505E+02  0.72584593505E+02  0.00000000000E+00 0.  1.
         21   -1    0    0  501  503 -0.00000000000E+00 -0.00000000000E+00 -0.92385421408E+03  0.92385421408E+03  0.00000000000E+00 0.  1.
          6    2    1    2  501    0  0.32043920472E+02 -0.69158861233E+02 -0.77027991405E+03  0.79203795475E+03  0.16787857172E+03 0.  0.
         24    2    3    3    0    0  0.84212159191E+02 -0.33113788047E+02 -0.46267532954E+03  0.47793058004E+03  0.78491834354E+02 0.  0.
         -6    2    1    2    0  502 -0.32043920472E+02  0.69158861233E+02 -0.80989706523E+02  0.20440085284E+03  0.17149523361E+03 0.  0.
        -24    2    5    5    0    0 -0.78237612983E+02  0.38401018705E+02 -0.89277317035E+02  0.14809209159E+03  0.79781363316E+02 0.  0.
          5    1    3    3  501    0 -0.52168238719E+02 -0.36045073186E+02 -0.30760458451E+03  0.31410737471E+03  0.47000000000E+01 0. -1.
        -11    1    4    4    0    0  0.19275613238E+02  0.21008380572E+02 -0.19910214668E+03  0.20113320495E+03  0.00000000000E+00 0.  1.
         12    1    4    4    0    0  0.64936545952E+02 -0.54122168619E+02 -0.26357318286E+03  0.27679737509E+03  0.00000000000E+00 0. -1.
         -5    1    5    5    0  502  0.46193692512E+02  0.30757842528E+02  0.82876105122E+01  0.56308761244E+02  0.47000000000E+01 0.  1.
         11    1    6    6    0    0 -0.52907282117E+02  0.42624655948E+02 -0.15105325850E+02  0.69600378338E+02  0.00000000000E+00 0. -1.
        -12    1    6    6    0    0 -0.25330330866E+02 -0.42236372435E+01 -0.74171991186E+02  0.78491713255E+02  0.00000000000E+00 0.  1.
</event>
<event>
12    1  0.8135779E-002  0.1986085E+03  0.7818608E-02  0.1151021E+00
         21   -1    0    0  501  502  0.00000000000E+00  0.00000000000E+00  0.26674989532E+02  0.26674989532E+02  0.00000000000E+00 0.  1.
         21   -1    0    0  502  503 -0.00000000000E+00 -0.00000000000E+00 -0.15514319725E+04  0.15514319725E+04  0.00000000000E+00 0.  1.
         -6    2    1    2    0  503  0.99037982108E+02  0.35461698766E+01 -0.93822966711E+03  0.95902045514E+03  0.17211690190E+03 0.  0.
        -24    2    3    3    0    0 -0.68944858630E-01 -0.66792785280E+01 -0.22475081550E+03  0.23860328124E+03  0.79837204573E+02 0.  0.
          6    2    1    2  501    0 -0.99037982108E+02 -0.35461698766E+01 -0.58652731582E+03  0.61908650685E+03  0.17155965009E+03 0.  0.
         24    2    5    5    0    0 -0.62143956624E+02  0.62076883140E+02 -0.34104470797E+03  0.36227654801E+03  0.84955244902E+02 0.  0.
          5    1    5    5  501    0 -0.36894025484E+02 -0.65623053016E+02 -0.24548260784E+03  0.25680995884E+03  0.47000000000E+01 0. -1.
        -13    1    6    6    0    0 -0.81704993900E+01  0.26739787686E+02 -0.24491740900E+03  0.24650823625E+03  0.00000000000E+00 0.  1.
         14    1    6    6    0    0 -0.53973457234E+02  0.35337095453E+02 -0.96127298974E+02  0.11576831177E+03  0.00000000000E+00 0. -1.
         -5    1    3    3    0  503  0.99106926967E+02  0.10225448405E+02 -0.71347885161E+03  0.72041717391E+03  0.47000000000E+01 0.  1.
         13    1    4    4    0    0 -0.32595371308E+02 -0.26365408616E+02 -0.11002174867E+03  0.11773860107E+03  0.00000000000E+00 0. -1.
        -14    1    4    4    0    0  0.32526426449E+02  0.19686130088E+02 -0.11472906683E+03  0.12086468016E+03  0.00000000000E+00 0.  1.
</event>
<event>
12    1  0.8135779E-002  0.1815258E+03  0.7818608E-02  0.1167545E+00
         21   -1    0    0  503  502  0.00000000000E+00  0.00000000000E+00  0.80669293689E+02  0.80669293689E+02  0.00000000000E+00 0.  1.
         21   -1    0    0  501  503 -0.00000000000E+00 -0.00000000000E+00 -0.65379277617E+03  0.65379277617E+03  0.00000000000E+00 0.  1.
          6    2    1    2  501    0 -0.41403784909E+02  0.10936761416E+02 -0.51897187769E+03  0.54980306430E+03  0.17640213581E+03 0.  0.
         24    2    3    3    0    0  0.45917593863E+02 -0.61534430636E+01 -0.27423626695E+03  0.28935209493E+03  0.79829909434E+02 0.  0.
         -6    2    1    2    0  502  0.41403784909E+02 -0.10936761416E+02 -0.54151604787E+02  0.18465900556E+03  0.17126781916E+03 0.  0.
        -24    2    5    5    0    0 -0.13021756112E+02  0.22549985059E+02 -0.79419431021E+02  0.11578190670E+03  0.80124502724E+02 0.  0.
          5    1    3    3  501    0 -0.87321378773E+02  0.17090204480E+02 -0.24473561074E+03  0.26045096937E+03  0.47000000000E+01 0. -1.
        -11    1    4    4    0    0  0.44384198463E+02  0.62133102252E+01 -0.27319561532E+03  0.27684726209E+03  0.00000000000E+00 0.  1.
         12    1    4    4    0    0  0.15333954000E+01 -0.12366753289E+02 -0.10406516263E+01  0.12504832832E+02  0.00000000000E+00 0. -1.
         -5    1    5    5    0  502  0.54425541021E+02 -0.33486746475E+02  0.25267826234E+02  0.68877098862E+02  0.47000000000E+01 0.  1.
         13    1    6    6    0    0 -0.25349916638E+02  0.48875010637E+02 -0.54915032063E+02  0.77762752554E+02  0.00000000000E+00 0. -1.
        -14    1    6    6    0    0  0.12328160526E+02 -0.26325025578E+02 -0.24504398958E+02  0.38019154145E+02  0.00000000000E+00 0.  1.
</event>
<event>
12    1  0.8135779E-002  0.1807695E+03  0.7818608E-02  0.1167187E+00
         21   -1    0    0  503  502  0.00000000000E+00  0.00000000000E+00  0.10347970797E+03  0.10347970797E+03  0.00000000000E+00 0.  1.
         21   -1    0    0  501  503 -0.00000000000E+00 -0.00000000000E+00 -0.43398755372E+03  0.43398755372E+03  0.00000000000E+00 0.  1.
          6    2    1    2  501    0 -0.48875949739E+02  0.25451627812E+02 -0.30586921509E+03  0.35502642499E+03  0.17161334996E+03 0.  0.
         24    2    3    3    0    0 -0.45991716899E+02 -0.49301297764E+02 -0.19386413207E+03  0.22025421977E+03  0.79892200095E+02 0.  0.
         -6    2    1    2    0  502  0.48875949739E+02 -0.25451627812E+02 -0.24638630668E+02  0.18244083669E+03  0.17216548130E+03 0.  0.
        -24    2    5    5    0    0  0.59477958774E+02  0.41993620441E+02  0.69977788261E+00  0.10946557338E+03  0.81738181588E+02 0.  0.
          5    1    3    3  501    0 -0.28842328392E+01  0.74752925576E+02 -0.11200508301E+03  0.13477220523E+03  0.47000000000E+01 0. -1.
        -11    1    4    4    0    0 -0.40618621478E+02 -0.38594543104E+02 -0.19935292900E+03  0.20707728380E+03  0.00000000000E+00 0.  1.
         12    1    4    4    0    0 -0.53730954210E+01 -0.10706754660E+02  0.54887969215E+01  0.13176935964E+02  0.00000000000E+00 0. -1.
         -5    1    5    5    0  502 -0.10602009036E+02 -0.67445248253E+02 -0.25338408550E+02  0.72975263311E+02  0.47000000000E+01 0.  1.
         11    1    6    6    0    0 -0.92052696147E+01 -0.39291184261E+01  0.21976755107E+02  0.24148555346E+02  0.00000000000E+00 0. -1.
        -12    1    6    6    0    0  0.68683228389E+02  0.45922738867E+02 -0.21276977224E+02  0.85317018037E+02  0.00000000000E+00 0.  1.
</event>
<event>
12    1  0.8135779E-002  0.1953200E+03  0.7818608E-02  0.1155736E+00
         21   -1    0    0  503  502  0.00000000000E+00  0.00000000000E+00  0.31827659731E+02  0.31827659731E+02  0.00000000000E+00 0.  1.
         21   -1    0    0  501  503 -0.00000000000E+00 -0.00000000000E+00 -0.17041851190E+04  0.17041851190E+04  0.00000000000E+00 0. -1.
          6    2    1    2  501    0  0.26345869995E+02 -0.65868656673E+02 -0.13203775023E+04  0.13334711085E+04  0.17238231911E+03 0.  0.
         24    2    3    3    0    0 -0.10682844969E+02 -0.79683812583E+02 -0.12217628622E+04  0.12271276955E+04  0.81696121921E+02 0.  0.
         -6    2    1    2    0  502 -0.26345869995E+02  0.65868656673E+02 -0.35197995702E+03  0.40254167024E+03  0.18198110160E+03 0.  0.
        -24    2    5    5    0    0  0.35995445877E+02  0.91766274746E+02 -0.24425816445E+03  0.27532845992E+03  0.80168501510E+02 0.  0.
          5    1    3    3  501    0  0.37028714964E+02  0.13815155910E+02 -0.98614640067E+02  0.10634341306E+03  0.47000000000E+01 0. -1.
        -13    1    4    4    0    0 -0.25026889594E+02 -0.69393828554E+02 -0.52672188009E+03  0.53186256459E+03  0.00000000000E+00 0.  1.
         14    1    4    4    0    0  0.14344044624E+02 -0.10289984029E+02 -0.69504098214E+03  0.69526513089E+03  0.00000000000E+00 0. -1.
         -5    1    5    5    0  502 -0.62341315872E+02 -0.25897618072E+02 -0.10772179257E+03  0.12721321032E+03  0.47000000000E+01 0.  1.
         11    1    6    6    0    0 -0.12800190560E+01 -0.14334374529E+02 -0.33033317999E+02  0.36032108458E+02  0.00000000000E+00 0. -1.
        -12    1    6    6    0    0  0.37275464933E+02  0.10610064928E+03 -0.21122484645E+03  0.23929635146E+03  0.00000000000E+00 0.  1.
</event>
<event>
12    1  0.8135779E-002  0.1834263E+03  0.7818608E-02  0.1165286E+00
         21   -1    0    0  503  502  0.00000000000E+00  0.00000000000E+00  0.31481156431E+03  0.31481156431E+03  0.00000000000E+00 0.  1.
         21   -1    0    0  501  503 -0.00000000000E+00 -0.00000000000E+00 -0.13509895684E+03  0.13509895684E+03  0.00000000000E+00 0.  1.
          6    2    1    2  501    0 -0.34478773703E+02  0.43772946259E+02 -0.15660464117E+02  0.18409362117E+03  0.17475798854E+03 0.  0.
         24    2    3    3    0    0 -0.65877881796E+02  0.42157726755E+02 -0.61971117449E+02  0.12792174622E+03  0.80039893330E+02 0.  0.
         -6    2    1    2    0  502  0.34478773703E+02 -0.43772946259E+02  0.19537307159E+03  0.26581689998E+03  0.17141508263E+03 0.  0.
        -24    2    5    5    0    0 -0.94737970132E+01 -0.80815133171E+02  0.16489416539E+03  0.20058649444E+03  0.80149968147E+02 0.  0.
          5    1    3    3  501    0  0.31399108093E+02  0.16152195040E+01  0.46310653332E+02  0.56171874948E+02  0.47000000000E+01 0. -1.
        -13    1    4    4    0    0 -0.44208504531E+02  0.49124962638E+02 -0.46557519176E+01  0.66252017728E+02  0.00000000000E+00 0.  1.
         14    1    4    4    0    0 -0.21669377265E+02 -0.69672358832E+01 -0.57315365532E+02  0.61669728497E+02  0.00000000000E+00 0. -1.
         -5    1    5    5    0  502  0.43952570716E+02  0.37042186912E+02  0.30478906202E+02  0.65230405541E+02  0.47000000000E+01 0.  1.
         11    1    6    6    0    0 -0.15655696784E+02  0.11597063296E+02  0.15882840796E+02  0.25136772877E+02  0.00000000000E+00 0. -1.
        -12    1    6    6    0    0  0.61818997709E+01 -0.92412196467E+02  0.14901132459E+03  0.17544972156E+03  0.00000000000E+00 0.  1.
</event>
<event>
12    1  0.8135779E-002  0.2459360E+03  0.7818608E-02  0.1116168E+00
         21   -1    0    0  503  502  0.00000000000E+00  0.00000000000E+00  0.13807938858E+03  0.13807938858E+03  0.00000000000E+00 0.  1.
         21   -1    0    0  501  503 -0.00000000000E+00 -0.00000000000E+00 -0.68329691191E+03  0.68329691191E+03  0.00000000000E+00 0. -1.
          6    2    1    2  501    0  0.14208399185E+03  0.10343080971E+03 -0.24512902599E+02  0.24551363128E+03  0.16967695074E+03 0.  0.
         24    2    3    3    0    0  0.13233280263E+03  0.67045512764E+02  0.38363896457E+02  0.17206598064E+03  0.78280532110E+02 0.  0.
         -6    2    1    2    0  502 -0.14208399185E+03 -0.10343080971E+03 -0.52070462073E+03  0.57586266921E+03  0.17204278132E+03 0.  0.
        -24    2    5    5    0    0 -0.70423373690E+02 -0.12742999162E+03 -0.40673829550E+03  0.43903570471E+03  0.78220551408E+02 0.  0.
          5    1    3    3  501    0  0.97511892172E+01  0.36385296951E+02 -0.62876799057E+02  0.73447650643E+02  0.47000000000E+01 0. -1.
        -13    1    4    4    0    0  0.14704037393E+02  0.13202745906E+02  0.37850727484E+02  0.42698931909E+02  0.00000000000E+00 0.  1.
         14    1    4    4    0    0  0.11762876524E+03  0.53842766858E+02  0.51316897354E+00  0.12936704873E+03  0.00000000000E+00 0. -1.
         -5    1    5    5    0  502 -0.71660618156E+02  0.23999181905E+02 -0.11396632524E+03  0.13682696450E+03  0.47000000000E+01 0.  1.
         13    1    6    6    0    0 -0.79939519518E+02 -0.73622514230E+02 -0.23723625582E+03  0.26094375343E+03  0.00000000000E+00 0. -1.
        -14    1    6    6    0    0  0.95161458275E+01 -0.53807477390E+02 -0.16950203968E+03  0.17809195128E+03  0.00000000000E+00 0.  1.
</event>
<event>
12    1  0.8135779E-002  0.1908302E+03  0.7818608E-02  0.1160878E+00
         21   -1    0    0  501  502  0.00000000000E+00  0.00000000000E+00  0.14688885270E+03  0.14688885270E+03  0.00000000000E+00 0. -1.
         21   -1    0    0  502  503 -0.00000000000E+00 -0.00000000000E+00 -0.33074426275E+03  0.33074426275E+03  0.00000000000E+00 0. -1.
         -6    2    1    2    0  503  0.95327739641E+01  0.76389917850E+02 -0.22563087791E+03  0.29550880941E+03  0.17461348757E+03 0.  0.
        -24    2    3    3    0    0 -0.18537564400E+02  0.13459650354E+02 -0.21316091519E+03  0.22532510451E+03  0.69347123055E+02 0.  0.
          6    2    1    2  501    0 -0.95327739641E+01 -0.76389917850E+02  0.41775467865E+02  0.18212430604E+03  0.15968024238E+03 0.  0.
         24    2    5    5    0    0  0.39783760622E+02 -0.88032109533E+02  0.35599687698E+02  0.13086134211E+03  0.80777182274E+02 0.  0.
          5    1    5    5  501    0 -0.49316534587E+02  0.11642191682E+02  0.61757801665E+01  0.51262963936E+02  0.47000000000E+01 0. -1.
        -11    1    6    6    0    0  0.42794648256E+02 -0.24436845894E+02  0.44718205534E+02  0.66545167089E+02  0.00000000000E+00 0.  1.
         12    1    6    6    0    0 -0.30108876339E+01 -0.63595263638E+02 -0.91185178363E+01  0.64316175019E+02  0.00000000000E+00 0. -1.
         -5    1    3    3    0  503  0.28070338364E+02  0.62930267496E+02 -0.12469962724E+02  0.70183704899E+02  0.47000000000E+01 0.  1.
         11    1    4    4    0    0  0.24596362670E+02  0.11865745137E+02 -0.55387900621E+02  0.61754323730E+02  0.00000000000E+00 0. -1.
        -12    1    4    4    0    0 -0.43133927070E+02  0.15939052165E+01 -0.15777301457E+03  0.16357078078E+03  0.00000000000E+00 0.  1.
</event>
<event>
12    1  0.8135779E-002  0.2127073E+03  0.7818608E-02  0.1140660E+00
         21   -1    0    0  501  502  0.00000000000E+00  0.00000000000E+00  0.24890932823E+02  0.24890932823E+02  0.00000000000E+00 0.  1.
         21   -1    0    0  502  503 -0.00000000000E+00 -0.00000000000E+00 -0.17816618772E+04  0.17816618772E+04  0.00000000000E+00 0.  1.
         -6    2    1    2    0  503 -0.29640733737E+02  0.12217532375E+03 -0.95191580185E+03  0.97406484900E+03  0.16386962326E+03 0.  0.
        -24    2    3    3    0    0 -0.50109775153E+02  0.20428360151E+02 -0.55782343788E+03  0.56650834053E+03  0.82682553074E+02 0.  0.
          6    2    1    2  501    0  0.29640733737E+02 -0.12217532375E+03 -0.80485514253E+03  0.83248796102E+03  0.17157803460E+03 0.  0.
         24    2    5    5    0    0  0.55201526713E+01  0.68067394175E+01 -0.32091280313E+03  0.33104957705E+03  0.80820736625E+02 0.  0.
          5    1    5    5  501    0  0.24120581066E+02 -0.12898206317E+03 -0.48394233940E+03  0.50143838397E+03  0.47000000000E+01 0. -1.
        -11    1    6    6    0    0 -0.15974959220E+02 -0.27757835187E+02 -0.71604467995E+02  0.78440401409E+02  0.00000000000E+00 0.  1.
         12    1    6    6    0    0  0.21495111892E+02  0.34564574604E+02 -0.24930833513E+03  0.25260917564E+03  0.00000000000E+00 0. -1.
         -5    1    3    3    0  503  0.20469041416E+02  0.10174696360E+03 -0.39409236397E+03  0.40755650847E+03  0.47000000000E+01 0.  1.
         13    1    4    4    0    0  0.11185430164E+02 -0.10034594969E+02 -0.27906874902E+03  0.27947302844E+03  0.00000000000E+00 0. -1.
        -14    1    4    4    0    0 -0.61295205317E+02  0.30462955121E+02 -0.27875468886E+03  0.28703531209E+03  0.00000000000E+00 0.  1.
</event>
<event>
12    1  0.8135779E-002  0.1844104E+03  0.7818608E-02  0.1163644E+00
         21   -1    0    0  503  502  0.00000000000E+00  0.00000000000E+00  0.60252004184E+03  0.60252004184E+03  0.00000000000E+00 0.  1.
         21   -1    0    0  501  503 -0.00000000000E+00 -0.00000000000E+00 -0.56998285085E+02  0.56998285085E+02  0.00000000000E+00 0. -1.
          6    2    1    2  501    0  0.65399106771E+02  0.32036788980E+00  0.23872032128E+03  0.30165306375E+03  0.17242399275E+03 0.  0.
         24    2    3    3    0    0  0.11458046370E+02 -0.32563221290E+02  0.21654354807E+03  0.23453475251E+03  0.83209324688E+02 0.  0.
         -6    2    1    2    0  502 -0.65399106771E+02 -0.32036788980E+00  0.30680143547E+03  0.35786526317E+03  0.17223031085E+03 0.  0.
        -24    2    5    5    0    0 -0.10085938517E+03  0.28314864019E+02  0.26502439952E+03  0.29585866204E+03  0.79498858243E+02 0.  0.
          5    1    3    3  501    0  0.53941060401E+02  0.32883589180E+02  0.22176773213E+02  0.67118311247E+02  0.47000000000E+01 0. -1.
        -11    1    4    4    0    0  0.42395974156E+02 -0.26515036876E+02  0.79549622097E+02  0.93960673587E+02  0.00000000000E+00 0.  1.
         12    1    4    4    0    0 -0.30937927786E+02 -0.60481844134E+01  0.13699392597E+03  0.14057407892E+03  0.00000000000E+00 0. -1.
         -5    1    5    5    0  502  0.35460278402E+02 -0.28635231908E+02  0.41777035952E+02  0.62006601131E+02  0.47000000000E+01 0.  1.
         13    1    6    6    0    0 -0.15788179600E+02 -0.24864279684E+02  0.82182954822E+02  0.87301415123E+02  0.00000000000E+00 0. -1.
        -14    1    6    6    0    0 -0.85071205574E+02  0.53179143702E+02  0.18284144470E+03  0.20855724692E+03  0.00000000000E+00 0.  1.
</event>
<event>
12    1  0.8135779E-002  0.1843146E+03  0.7818608E-02  0.1164206E+00
         21   -1    0    0  503  502  0.00000000000E+00  0.00000000000E+00  0.91034810933E+03  0.91034810933E+03  0.00000000000E+00 0. -1.
         21   -1    0    0  501  503 -0.00000000000E+00 -0.00000000000E+00 -0.12726317662E+03  0.12726317662E+03  0.00000000000E+00 0. -1.
          6    2    1    2  501    0  0.18992961161E+02  0.57548273828E+02 -0.46352954341E+02  0.18794129574E+03  0.17175796306E+03 0.  0.
         24    2    3    3    0    0  0.34973965467E+02 -0.34019737266E+00  0.28379011501E+02  0.91954711707E+02  0.80168614286E+02 0.  0.
         -6    2    1    2    0  502 -0.18992961161E+02 -0.57548273828E+02  0.82943788705E+03  0.84966999020E+03  0.17406707722E+03 0.  0.
        -24    2    5    5    0    0  0.51443837125E+02 -0.29623728811E+02  0.32982145184E+03  0.34431883001E+03  0.79052089923E+02 0.  0.
          5    1    3    3  501    0 -0.15981004307E+02  0.57888471200E+02 -0.74731965842E+02  0.95986584037E+02  0.47000000000E+01 0. -1.
        -13    1    4    4    0    0  0.29170023243E+02  0.37694421339E+02  0.77197726385E+01  0.48284102411E+02  0.00000000000E+00 0.  1.
         14    1    4    4    0    0  0.58039422248E+01 -0.38034618712E+02  0.20659238862E+02  0.43670609296E+02  0.00000000000E+00 0. -1.
         -5    1    5    5    0  502 -0.70436798285E+02 -0.27924545017E+02  0.49961643521E+03  0.50535116019E+03  0.47000000000E+01 0.  1.
         13    1    6    6    0    0 -0.21158532335E+02 -0.11256776650E+02  0.78701252914E+02  0.82269591718E+02  0.00000000000E+00 0. -1.
        -14    1    6    6    0    0  0.72602369460E+02 -0.18366952160E+02  0.25112019892E+03  0.26204923829E+03  0.00000000000E+00 0.  1.
</event>
<event>
12    1  0.8135779E-002  0.4458758E+03  0.7818608E-02  0.1028959E+00
         21   -1    0    0  503  502  0.00000000000E+00  0.00000000000E+00  0.11243032977E+04  0.11243032977E+04  0.00000000000E+00 0. -1.
         21   -1    0    0  501  503 -0.00000000000E+00 -0.00000000000E+00 -0.18302640052E+03  0.18302640052E+03  0.00000000000E+00 0. -1.
          6    2    1    2  501    0  0.15216281662E+03  0.38207455939E+03  0.35030704507E+03  0.56702755815E+03  0.17225194973E+03 0.  0.
         24    2    3    3    0    0  0.77385026094E+02  0.33818452952E+03  0.25496485900E+03  0.43806913414E+03  0.80871927731E+02 0.  0.
         -6    2    1    2    0  502 -0.15216281662E+03 -0.38207455939E+03  0.59096985208E+03  0.74030214003E+03  0.17224227349E+03 0.  0.
        -24    2    5    5    0    0 -0.15673360122E+03 -0.39142119111E+03  0.54917529173E+03  0.69697631781E+03  0.80040714293E+02 0.  0.
          5    1    3    3  501    0  0.74777790529E+02  0.43890029865E+02  0.95342186072E+02  0.12895842401E+03  0.47000000000E+01 0. -1.
        -13    1    4    4    0    0  0.88853290391E+02  0.31920814516E+03  0.25067900593E+03  0.41548611429E+03  0.00000000000E+00 0.  1.
         14    1    4    4    0    0 -0.11468264297E+02  0.18976384357E+02  0.42858530659E+01  0.22583019855E+02  0.00000000000E+00 0. -1.
         -5    1    5    5    0  502  0.45707845998E+01  0.93466317193E+01  0.41794560352E+02  0.43325822224E+02  0.47000000000E+01 0.  1.
         11    1    6    6    0    0 -0.14583120383E+03 -0.33402873536E+03  0.50915707159E+03  0.62616520153E+03  0.00000000000E+00 0. -1.
        -12    1    6    6    0    0 -0.10902397389E+02 -0.57392455749E+02  0.40018220131E+02  0.70811116276E+02  0.00000000000E+00 0.  1.
</event>
<event>
12    1  0.8135779E-002  0.2537298E+03  0.7818608E-02  0.1111074E+00
         21   -1    0    0  503  502  0.00000000000E+00  0.00000000000E+00  0.18865543771E+03  0.18865543771E+03  0.00000000000E+00 0.  1.
         21   -1    0    0  501  503 -0.00000000000E+00 -0.00000000000E+00 -0.15706848766E+04  0.15706848766E+04  0.00000000000E+00 0. -1.
          6    2    1    2  501    0  0.18630644826E+03  0.39842567823E+01 -0.14693671641E+04  0.14909996732E+04  0.17121388767E+03 0.  0.
         24    2    3    3    0    0  0.19388590217E+03 -0.60622436278E+01 -0.10252345665E+04  0.10466639503E+04  0.82286175728E+02 0.  0.
         -6    2    1    2    0  502 -0.18630644826E+03 -0.39842567823E+01  0.87337725261E+02  0.26834064114E+03  0.17220004201E+03 0.  0.
        -24    2    5    5    0    0 -0.19686766896E+03 -0.40254146182E+02  0.77895647590E+02  0.22911963796E+03  0.77786896210E+02 0.  0.
          5    1    3    3  501    0 -0.75794539084E+01  0.10046500410E+02 -0.44413259765E+03  0.44433572283E+03  0.47000000000E+01 0. -1.
        -11    1    4    4    0    0  0.16655979859E+02 -0.13714447791E+02 -0.27062014053E+03  0.27147885407E+03  0.00000000000E+00 0.  1.
         12    1    4    4    0    0  0.17722992231E+03  0.76522041633E+01 -0.75461442595E+03  0.77518509625E+03  0.00000000000E+00 0. -1.
         -5    1    5    5    0  502  0.10561220693E+02  0.36269889400E+02  0.94420776709E+01  0.39221003179E+02  0.47000000000E+01 0.  1.
         11    1    6    6    0    0 -0.47321912266E+02 -0.31905603257E+02 -0.60970129795E+01  0.57397774059E+02  0.00000000000E+00 0. -1.
        -12    1    6    6    0    0 -0.14954575669E+03 -0.83485429250E+01  0.83992660570E+02  0.17172186390E+03  0.00000000000E+00 0.  1.
</event>
<event>
12    1  0.8135779E-002  0.1826595E+03  0.7818608E-02  0.1165624E+00
         21   -1    0    0  501  502  0.00000000000E+00  0.00000000000E+00  0.25452235154E+02  0.25452235154E+02  0.00000000000E+00 0. -1.
         21   -1    0    0  502  503 -0.00000000000E+00 -0.00000000000E+00 -0.13948738345E+04  0.13948738345E+04  0.00000000000E+00 0.  1.
         -6    2    1    2    0  503  0.26406351027E+02 -0.63595779033E+02 -0.50197037089E+03  0.53417108302E+03  0.16918266518E+03 0.  0.
        -24    2    3    3    0    0  0.35991925713E+02  0.26559187317E+02 -0.25787126568E+03  0.27373632274E+03  0.80207079322E+02 0.  0.
          6    2    1    2  501    0 -0.26406351027E+02  0.63595779033E+02 -0.86745122843E+03  0.88615498661E+03  0.16750315849E+03 0.  0.
         24    2    5    5    0    0 -0.12737234590E+02  0.92770533554E+02 -0.81624496015E+03  0.82547399324E+03  0.79892862632E+02 0.  0.
          5    1    5    5  501    0 -0.13669116436E+02 -0.29174754521E+02 -0.51206268283E+02  0.60680993375E+02  0.47000000000E+01 0. -1.
        -11    1    6    6    0    0  0.39635392795E+01  0.58281725801E+02 -0.20868911272E+03  0.21671090184E+03  0.00000000000E+00 0.  1.
         12    1    6    6    0    0 -0.16700773870E+02  0.34488807754E+02 -0.60755584743E+03  0.60876309140E+03  0.00000000000E+00 0. -1.
         -5    1    3    3    0  503 -0.95855746860E+01 -0.90154966350E+02 -0.24409910521E+03  0.26043476028E+03  0.47000000000E+01 0.  1.
         11    1    4    4    0    0  0.28670305845E+02 -0.23545796049E+01 -0.22601787454E+02  0.36583757031E+02  0.00000000000E+00 0. -1.
        -12    1    4    4    0    0  0.73216198674E+01  0.28913766922E+02 -0.23526947823E+03  0.23715256571E+03  0.00000000000E+00 0.  1.
</event>
<event>
12    1  0.8135779E-002  0.1957708E+03  0.7818608E-02  0.1158409E+00
         21   -1    0    0  501  502  0.00000000000E+00  0.00000000000E+00  0.20307162427E+03  0.20307162427E+03  0.00000000000E+00 0. -1.
         21   -1    0    0  502  503 -0.00000000000E+00 -0.00000000000E+00 -0.46103524062E+03  0.46103524062E+03  0.00000000000E+00 0. -1.
         -6    2    1    2    0  503 -0.16517669470E+02 -0.17642327704E+02 -0.39064908858E+03  0.42760819021E+03  0.17221489134E+03 0.  0.
        -24    2    3    3    0    0  0.56668374143E+02 -0.15179651990E+02 -0.24957292047E+03  0.26858983605E+03  0.80075782461E+02 0.  0.
          6    2    1    2  501    0  0.16517669470E+02  0.17642327704E+02  0.13268547222E+03  0.23649867468E+03  0.19427327005E+03 0.  0.
         24    2    5    5    0    0 -0.23795147811E+02  0.64237583020E+02  0.20369988872E+02  0.10830702575E+03  0.81380582751E+02 0.  0.
          5    1    5    5  501    0  0.40312817281E+02 -0.46595255317E+02  0.11231548335E+03  0.12819164893E+03  0.47000000000E+01 0. -1.
        -13    1    6    6    0    0 -0.95553462487E+01 -0.19249760712E+02  0.15399620535E+01  0.21545983676E+02  0.00000000000E+00 0.  1.
         14    1    6    6    0    0 -0.14239801562E+02  0.83487343733E+02  0.18830026818E+02  0.86761042076E+02  0.00000000000E+00 0. -1.
         -5    1    3    3    0  503 -0.73186043613E+02 -0.24626757135E+01 -0.14107616811E+03  0.15901835416E+03  0.47000000000E+01 0.  1.
         13    1    4    4    0    0  0.41301451694E+02 -0.38114664961E+02 -0.86213437297E+02  0.10291401444E+03  0.00000000000E+00 0. -1.
        -14    1    4    4    0    0  0.15366922448E+02  0.22935012971E+02 -0.16335948317E+03  0.16567582161E+03  0.00000000000E+00 0.  1.
</event>
<event>
12    1  0.8135779E-002  0.2184146E+03  0.7818608E-02  0.1135095E+00
         21   -1    0    0  503  502  0.00000000000E+00  0.00000000000E+00  0.13336875295E+03  0.13336875295E+03  0.00000000000E+00 0.  1.
         21   -1    0    0  501  503 -0.00000000000E+00 -0.00000000000E+00 -0.70614406392E+03  0.70614406392E+03  0.00000000000E+00 0.  1.
          6    2    1    2  501    0  0.38265118271E+02  0.12886528272E+03 -0.58138705898E+03  0.62106025053E+03  0.17214657150E+03 0.  0.
         24    2    3    3    0    0  0.75080543448E+02  0.70942697081E+02 -0.24096891656E+03  0.27376066351E+03  0.78796750347E+02 0.  0.
         -6    2    1    2    0  502 -0.38265118271E+02 -0.12886528272E+03  0.86117480041E+01  0.21845256634E+03  0.17197930448E+03 0.  0.
        -24    2    5    5    0    0 -0.77960990109E+02 -0.12486202728E+03  0.33908015857E+02  0.17097857912E+03  0.80096686214E+02 0.  0.
          5    1    3    3  501    0 -0.36815425178E+02  0.57922585639E+02 -0.34041814241E+03  0.34729958702E+03  0.47000000000E+01 0. -1.
        -13    1    4    4    0    0 -0.30767195745E+01  0.47079060477E+02 -0.72201569830E+02  0.86249468547E+02  0.00000000000E+00 0.  1.
         14    1    4    4    0    0  0.78157263023E+02  0.23863636604E+02 -0.16876734673E+03  0.18751119497E+03  0.00000000000E+00 0. -1.
         -5    1    5    5    0  502  0.39695871838E+02 -0.40032554360E+01 -0.25296267853E+02  0.47473987218E+02  0.47000000000E+01 0.  1.
         13    1    6    6    0    0 -0.68263232698E+02 -0.68527603203E+02 -0.12260297888E+02  0.97499826890E+02  0.00000000000E+00 0. -1.
        -14    1    6    6    0    0 -0.96977574111E+01 -0.56334424081E+02  0.46168313745E+02  0.73478752231E+02  0.00000000000E+00 0.  1.
</event>
<event>
12    1  0.8135779E-002  0.2130100E+03  0.7818608E-02  0.1139292E+00
         21   -1    0    0  501  502  0.00000000000E+00  0.00000000000E+00  0.28662401073E+04  0.28662401073E+04  0.00000000000E+00 0.  1.
         21   -1    0    0  502  503 -0.00000000000E+00 -0.00000000000E+00 -0.15850521084E+02  0.15850521084E+02  0.00000000000E+00 0.  1.
         -6    2    1    2    0  503 -0.11550539250E+03 -0.48762015185E+02  0.13398959254E+04  0.13566515588E+04  0.17164827795E+03 0.  0.
        -24    2    3    3    0    0 -0.12371741601E+03 -0.87892345320E+02  0.11233602139E+04  0.11364052776E+04  0.80297703804E+02 0.  0.
          6    2    1    2  501    0  0.11550539250E+03  0.48762015185E+02  0.15104936608E+04  0.15254390696E+04  0.17220344295E+03 0.  0.
         24    2    5    5    0    0  0.13622684741E+02  0.66689083800E+02  0.85623196024E+03  0.86303290355E+03  0.84021493908E+02 0.  0.
          5    1    5    5  501    0  0.10188270776E+03 -0.17927068615E+02  0.65426170061E+03  0.66240616604E+03  0.47000000000E+01 0. -1.
        -11    1    6    6    0    0  0.41712198258E+02  0.16042900337E+02  0.51361341213E+03  0.51555408955E+03  0.00000000000E+00 0.  1.
         12    1    6    6    0    0 -0.28089513517E+02  0.50646183463E+02  0.34261854811E+03  0.34747881400E+03  0.00000000000E+00 0. -1.
         -5    1    3    3    0  503  0.82120235101E+01  0.39130330135E+02  0.21653571147E+03  0.22024628126E+03  0.47000000000E+01 0.  1.
         13    1    4    4    0    0  0.10851601159E+02 -0.14363064010E+02  0.97643931466E+02  0.99289436536E+02  0.00000000000E+00 0. -1.
        -14    1    4    4    0    0 -0.13456901717E+03 -0.73529281309E+02  0.10257162825E+04  0.10371158410E+04  0.00000000000E+00 0.  1.
</event>
<event>
12    1  0.8135779E-002  0.3840788E+03  0.7818608E-02  0.1049519E+00
         21   -1    0    0  501  502  0.00000000000E+00  0.00000000000E+00  0.10377853011E+04  0.10377853011E+04  0.00000000000E+00 0. -1.
         21   -1    0    0  502  503 -0.00000000000E+00 -0.00000000000E+00 -0.15788089390E+03  0.15788089390E+03  0.00000000000E+00 0.  1.
         -6    2    1    2    0  503  0.11384984171E+02  0.34305231882E+03  0.24968987375E+03  0.45810645842E+03  0.17234263224E+03 0.  0.
        -24    2    3    3    0    0 -0.39240462986E+02  0.21290232231E+03  0.21189555196E+03  0.31335681853E+03  0.80159578332E+02 0.  0.
          6    2    1    2  501    0 -0.11384984171E+02 -0.34305231882E+03  0.63021453348E+03  0.73755973661E+03  0.17032174124E+03 0.  0.
         24    2    5    5    0    0  0.41786840361E+02 -0.16378596423E+03  0.23120810418E+03  0.29688764827E+03  0.78186355283E+02 0.  0.
          5    1    5    5  501    0 -0.53171824531E+02 -0.17926635459E+03  0.39900642931E+03  0.44067208834E+03  0.47000000000E+01 0. -1.
        -13    1    6    6    0    0 -0.12144664428E+02 -0.84303713850E+01  0.21946273090E+01  0.14945916659E+02  0.00000000000E+00 0.  1.
         14    1    6    6    0    0  0.53931504788E+02 -0.15535559284E+03  0.22901347687E+03  0.28194173161E+03  0.00000000000E+00 0. -1.
         -5    1    3    3    0  503  0.50625447157E+02  0.13014999650E+03  0.37794321787E+02  0.14474963989E+03  0.47000000000E+01 0.  1.
         13    1    4    4    0    0 -0.62266615941E+02  0.12793326733E+03  0.12040593118E+03  0.18639109585E+03  0.00000000000E+00 0. -1.
        -14    1    4    4    0    0  0.23026152955E+02  0.84969054987E+02  0.91489620780E+02  0.12696572268E+03  0.00000000000E+00 0.  1.
</event>
<event>
12    1  0.8135779E-002  0.1838020E+03  0.7818608E-02  0.1164346E+00
         21   -1    0    0  501  502  0.00000000000E+00  0.00000000000E+00  0.15890903228E+03  0.15890903228E+03  0.00000000000E+00 0. -1.
         21   -1    0    0  502  503 -0.00000000000E+00 -0.00000000000E+00 -0.21197020683E+03  0.21197020683E+03  0.00000000000E+00 0. -1.
         -6    2    1    2    0  503 -0.58047689035E+02  0.28642089043E+02 -0.32572639470E+02  0.18666587220E+03  0.17202693840E+03 0.  0.
        -24    2    3    3    0    0 -0.10377216776E+03  0.80677614088E+01 -0.13054908168E+02  0.13265603284E+03  0.81200005198E+02 0.  0.
          6    2    1    2  501    0  0.58047689035E+02 -0.28642089043E+02 -0.20488535071E+02  0.18421336691E+03  0.17124509048E+03 0.  0.
         24    2    5    5    0    0  0.87129164053E+02  0.97428136848E+01  0.21319362492E+02  0.12026711413E+03  0.79518864911E+02 0.  0.
          5    1    5    5  501    0 -0.29081475018E+02 -0.38384902727E+02 -0.41807897563E+02  0.63946252785E+02  0.47000000000E+01 0. -1.
        -11    1    6    6    0    0  0.21167635040E+02  0.35023675720E+02 -0.11306337302E+02  0.42456564832E+02  0.00000000000E+00 0.  1.
         12    1    6    6    0    0  0.65961529012E+02 -0.25280862035E+02  0.32625699793E+02  0.77810549297E+02  0.00000000000E+00 0. -1.
         -5    1    3    3    0  503  0.45724478728E+02  0.20574327634E+02 -0.19517731302E+02  0.54009839360E+02  0.47000000000E+01 0.  1.
         11    1    4    4    0    0 -0.12345304797E+02 -0.28844079250E+01 -0.35655645014E+02  0.37842454743E+02  0.00000000000E+00 0. -1.
        -12    1    4    4    0    0 -0.91426862966E+02  0.10952169334E+02  0.22600736846E+02  0.94813578093E+02  0.00000000000E+00 0.  1.
</event>
<event>
12    1  0.8135779E-002  0.2683132E+03  0.7818608E-02  0.1102372E+00
         21   -1    0    0  501  502  0.00000000000E+00  0.00000000000E+00  0.37613142303E+02  0.37613142303E+02  0.00000000000E+00 0. -1.
         21   -1    0    0  502  503 -0.00000000000E+00 -0.00000000000E+00 -0.27910139497E+04  0.27910139497E+04  0.00000000000E+00 0.  1.
         -6    2    1    2    0  503  0.54808907376E+02  0.19734855344E+03 -0.21737500346E+04  0.21902468283E+04  0.17332480538E+03 0.  0.
        -24    2    3    3    0    0  0.68790346106E+02  0.11540938009E+03 -0.18249774700E+04  0.18316747985E+04  0.80239420987E+02 0.  0.
          6    2    1    2  501    0 -0.54808907376E+02 -0.19734855344E+03 -0.57965077277E+03  0.63838026366E+03  0.17199963600E+03 0.  0.
         24    2    5    5    0    0 -0.70555082068E+01 -0.16981560418E+03 -0.53588721506E+03  0.56784098800E+03  0.79882168016E+02 0.  0.
          5    1    5    5  501    0 -0.47753399170E+02 -0.27532949263E+02 -0.43763557712E+02  0.70539275662E+02  0.47000000000E+01 0. -1.
        -11    1    6    6    0    0  0.20173449586E+02 -0.58490459121E+02 -0.10406120640E+03  0.12106542262E+03  0.00000000000E+00 0.  1.
         12    1    6    6    0    0 -0.27228957793E+02 -0.11132514505E+03 -0.43182600866E+03  0.44677556538E+03  0.00000000000E+00 0. -1.
         -5    1    3    3    0  503 -0.13981438729E+02  0.81939173346E+02 -0.34877256456E+03  0.35857202979E+03  0.47000000000E+01 0.  1.
         13    1    4    4    0    0  0.74220796021E+02  0.50685070058E+02 -0.11877905945E+04  0.11911860473E+04  0.00000000000E+00 0. -1.
        -14    1    4    4    0    0 -0.54304499150E+01  0.64724310034E+02 -0.63718687555E+03  0.64048875124E+03  0.00000000000E+00 0.  1.
</event>
<event>
12    1  0.8135779E-002  0.1731888E+03  0.7818608E-02  0.1174645E+00
         21   -1    0    0  503  502  0.00000000000E+00  0.00000000000E+00  0.43435890806E+02  0.43435890806E+02  0.00000000000E+00 0.  1.
         21   -1    0    0  501  503 -0.00000000000E+00 -0.00000000000E+00 -0.10387838589E+04  0.10387838589E+04  0.00000000000E+00 0.  1.
          6    2    1    2  501    0  0.17140030429E+02  0.20784255926E+02 -0.81124488248E+03  0.82945841411E+03  0.17075489876E+03 0.  0.
         24    2    3    3    0    0  0.28466268223E+02 -0.45402749231E+02 -0.61237526214E+03  0.61950551652E+03  0.76888784925E+02 0.  0.
         -6    2    1    2    0  502 -0.17140030429E+02 -0.20784255926E+02 -0.18410308563E+03  0.25276133561E+03  0.17108062633E+03 0.  0.
        -24    2    5    5    0    0  0.15799025114E+02 -0.32821800681E+02 -0.25620492038E+02  0.90376895671E+02  0.78642824621E+02 0.  0.
          5    1    3    3  501    0 -0.11326237794E+02  0.66187005157E+02 -0.19886962034E+03  0.20995289760E+03  0.47000000000E+01 0. -1.
        -11    1    4    4    0    0  0.43609632929E+02 -0.34386621881E+02 -0.22770176348E+03  0.23437647693E+03  0.00000000000E+00 0.  1.
         12    1    4    4    0    0 -0.15143364706E+02 -0.11016127350E+02 -0.38467349866E+03  0.38512903958E+03  0.00000000000E+00 0. -1.
         -5    1    5    5    0  502 -0.32939055543E+02  0.12037544755E+02 -0.15848259359E+03  0.16238443994E+03  0.47000000000E+01 0.  1.
         13    1    6    6    0    0  0.41684656742E+02 -0.15182301571E+02  0.72716449761E+01  0.44955419132E+02  0.00000000000E+00 0. -1.
        -14    1    6    6    0    0 -0.25885631628E+02 -0.17639499111E+02 -0.32892137014E+02  0.45421476539E+02  0.00000000000E+00 0.  1.
</event>
<event>
12    1  0.8135779E-002  0.2019056E+03  0.7818608E-02  0.1148505E+00
         21   -1    0    0  503  502  0.00000000000E+00  0.00000000000E+00  0.16719570054E+03  0.16719570054E+03  0.00000000000E+00 0.  1.
         21   -1    0    0  501  503 -0.00000000000E+00 -0.00000000000E+00 -0.30359537398E+03  0.30359537398E+03  0.00000000000E+00 0. -1.
          6    2    1    2  501    0  0.38913679173E+02  0.95043767302E+02 -0.17422982995E+03  0.26537201051E+03  0.17181000608E+03 0.  0.
         24    2    3    3    0    0 -0.10301400636E+02 -0.14989366325E+02 -0.73133508790E+02  0.10798087122E+03  0.77334070653E+02 0.  0.
         -6    2    1    2    0  502 -0.38913679173E+02 -0.95043767302E+02  0.37830156508E+02  0.20541906401E+03  0.17383405589E+03 0.  0.
        -24    2    5    5    0    0 -0.88613699171E+01  0.92430266086E+01  0.51332756059E+02  0.95950863737E+02  0.80047229744E+02 0.  0.
          5    1    3    3  501    0  0.49215079809E+02  0.11003313363E+03 -0.10109632115E+03  0.15739113929E+03  0.47000000000E+01 0. -1.
        -13    1    4    4    0    0 -0.10409705028E+02 -0.22386472469E+02  0.84259084315E+01  0.26086625717E+02  0.00000000000E+00 0.  1.
         14    1    4    4    0    0  0.10830439135E+00  0.73971061444E+01 -0.81559417222E+02  0.81894245504E+02  0.00000000000E+00 0. -1.
         -5    1    5    5    0  502 -0.30052309256E+02 -0.10428679391E+03 -0.13502599551E+02  0.10946820027E+03  0.47000000000E+01 0.  1.
         11    1    6    6    0    0  0.35351936090E+02 -0.43733782088E+00  0.27555367879E+02  0.44824646664E+02  0.00000000000E+00 0. -1.
        -12    1    6    6    0    0 -0.44213306007E+02  0.96803644294E+01  0.23777388180E+02  0.51126217073E+02  0.00000000000E+00 0.  1.
</event>
<event>
12    1  0.8135779E-002  0.3380833E+03  0.7818608E-02  0.1067671E+00
         21   -1    0    0  501  502  0.00000000000E+00  0.00000000000E+00  0.60163890969E+03  0.60163890969E+03  0.00000000000E+00 0.  1.
         21   -1    0    0  502  503 -0.00000000000E+00 -0.00000000000E+00 -0.20024814171E+03  0.20024814171E+03  0.00000000000E+00 0. -1.
         -6    2    1    2    0  503  0.28574661568E+03  0.52868339989E+02  0.10848688206E+03  0.35456949813E+03  0.17176709720E+03 0.  0.
        -24    2    3    3    0    0  0.23796409518E+03  0.76841281732E+02  0.36641963921E+02  0.26489423140E+03  0.79339946646E+02 0.  0.
          6    2    1    2  501    0 -0.28574661568E+03 -0.52868339989E+02  0.29290388592E+03  0.44731755327E+03  0.17278344057E+03 0.  0.
         24    2    5    5    0    0 -0.14777801499E+03  0.37403861151E+02  0.13100362078E+03  0.21619379654E+03  0.79626744642E+02 0.  0.
          5    1    5    5  501    0 -0.13796860069E+03 -0.90272201140E+02  0.16190026513E+03  0.23112375673E+03  0.47000000000E+01 0. -1.
        -13    1    6    6    0    0 -0.20010368287E+02 -0.84392097811E+01  0.58285632217E+02  0.62200080576E+02  0.00000000000E+00 0.  1.
         14    1    6    6    0    0 -0.12776764670E+03  0.45843070932E+02  0.72717988567E+02  0.15399371597E+03  0.00000000000E+00 0. -1.
         -5    1    3    3    0  503  0.47782520497E+02 -0.23972941743E+02  0.71844918142E+02  0.89675266733E+02  0.47000000000E+01 0.  1.
         11    1    4    4    0    0  0.15382778231E+02  0.11146247471E+01 -0.17810589660E+02  0.23560334431E+02  0.00000000000E+00 0. -1.
        -12    1    4    4    0    0  0.22258131695E+03  0.75726656985E+02  0.54452553582E+02  0.24133389697E+03  0.00000000000E+00 0.  1.
</event>
<event>
12    1  0.8135779E-002  0.2183578E+03  0.7818608E-02  0.1136495E+00
         21   -1    0    0  501  502  0.00000000000E+00  0.00000000000E+00  0.42767878875E+04  0.42767878875E+04  0.00000000000E+00 0.  1.
         21   -1    0    0  502  503 -0.00000000000E+00 -0.00000000000E+00 -0.29552895351E+02  0.29552895351E+02  0.00000000000E+00 0.  1.
         -6    2    1    2    0  503  0.54408431951E+02 -0.12154748648E+03  0.42076784121E+03  0.47405241847E+03  0.17304927139E+03 0.  0.
        -24    2    3    3    0    0  0.14651644568E+02  0.10099180723E+02  0.14358241436E+03  0.16459273130E+03  0.78474157168E+02 0.  0.
          6    2    1    2  501    0 -0.54408431951E+02  0.12154748648E+03  0.38264671509E+04  0.38322883644E+04  0.16385719870E+03 0.  0.
         24    2    5    5    0    0 -0.64320012054E+02  0.78583629025E+02  0.35441671244E+04  0.35465270523E+04  0.80131620783E+02 0.  0.
          5    1    5    5  501    0  0.99115801022E+01  0.42963857458E+02  0.28230002654E+03  0.28576131203E+03  0.47000000000E+01 0. -1.
        -11    1    6    6    0    0 -0.47923867239E+02  0.78995917780E+02  0.18714129473E+04  0.18736924698E+04  0.00000000000E+00 0.  1.
         12    1    6    6    0    0 -0.16396144815E+02 -0.41228875505E+00  0.16727541771E+04  0.16728345826E+04  0.00000000000E+00 0. -1.
         -5    1    3    3    0  503  0.39756787383E+02 -0.13164666721E+03  0.27718542685E+03  0.30945968717E+03  0.47000000000E+01 0.  1.
         11    1    4    4    0    0 -0.28566106150E+02 -0.46999558521E+01  0.88040995432E+02  0.92678632285E+02  0.00000000000E+00 0. -1.
        -12    1    4    4    0    0  0.43217750718E+02  0.14799136575E+02  0.55541418930E+02  0.71914099016E+02  0.00000000000E+00 0.  1.
</event>
<event>
12    1  0.8135779E-002  0.2032321E+03  0.7818608E-02  0.1147388E+00
         21   -1    0    0  501  502  0.00000000000E+00  0.00000000000E+00  0.82284399593E+03  0.82284399593E+03  0.00000000000E+00 0. -1.
         21   -1    0    0  502  503 -0.00000000000E+00 -0.00000000000E+00 -0.43319766941E+03  0.43319766941E+03  0.00000000000E+00 0. -1.
         -6    2    1    2    0  503  0.56730572548E+01 -0.10343500777E+03 -0.39591783062E+03  0.44503283566E+03  0.17484939749E+03 0.  0.
        -24    2    3    3    0    0  0.54371412697E+01 -0.13971734005E+03 -0.35685173202E+03  0.39150981864E+03  0.79914215415E+02 0.  0.
          6    2    1    2  501    0 -0.56730572548E+01  0.10343500777E+03  0.78556415714E+03  0.81100882968E+03  0.17289676810E+03 0.  0.
         24    2    5    5    0    0  0.18352491955E+02  0.13614909242E+03  0.57200356958E+03  0.59357458006E+03  0.79178969111E+02 0.  0.
          5    1    5    5  501    0 -0.24025549210E+02 -0.32714084649E+02  0.21356058756E+03  0.21743424962E+03  0.47000000000E+01 0. -1.
        -13    1    6    6    0    0 -0.46139493277E+01  0.11277074883E+03  0.31738662838E+03  0.33685724305E+03  0.00000000000E+00 0.  1.
         14    1    6    6    0    0  0.22966441282E+02  0.23378343589E+02  0.25461694120E+03  0.25671733701E+03  0.00000000000E+00 0. -1.
         -5    1    3    3    0  503  0.23591598516E+00  0.36282332278E+02 -0.39066098592E+02  0.53523017022E+02  0.47000000000E+01 0.  1.
         11    1    4    4    0    0  0.36736417969E+02 -0.11248571754E+03 -0.28412532142E+03  0.30778206466E+03  0.00000000000E+00 0. -1.
        -12    1    4    4    0    0 -0.31299276700E+02 -0.27231622511E+02 -0.72726410603E+02  0.83727753975E+02  0.00000000000E+00 0.  1.
</event>
<event>
12    1  0.8135779E-002  0.2508248E+03  0.7818608E-02  0.1112956E+00
         21   -1    0    0  501  502  0.00000000000E+00  0.00000000000E+00  0.31023217477E+03  0.31023217477E+03  0.00000000000E+00 0.  1.
         21   -1    0    0  502  503 -0.00000000000E+00 -0.00000000000E+00 -0.20210124699E+03  0.20210124699E+03  0.00000000000E+00 0. -1.
         -6    2    1    2    0  503 -0.17968572240E+03  0.28571476261E+02  0.61698983468E+02  0.25724712116E+03  0.17107316765E+03 0.  0.
        -24    2    3    3    0    0 -0.13718779304E+03  0.65498647685E+02 -0.36223489090E+01  0.17088360772E+03  0.77958466946E+02 0.  0.
          6    2    1    2  501    0  0.17968572240E+03 -0.28571476261E+02  0.46431944313E+02  0.25508630061E+03  0.17265516851E+03 0.  0.
         24    2    5    5    0    0  0.15957544465E+02 -0.24921389975E+02  0.25337874286E+02  0.89897653383E+02  0.81017660462E+02 0.  0.
          5    1    5    5  501    0  0.16372817794E+03 -0.36500862855E+01  0.21094070027E+02  0.16518864722E+03  0.47000000000E+01 0. -1.
        -11    1    6    6    0    0 -0.37082909447E+01  0.54090615199E+01 -0.26165498779E+02  0.26974853005E+02  0.00000000000E+00 0.  1.
         12    1    6    6    0    0  0.19665835410E+02 -0.30330451495E+02  0.51503373066E+02  0.62922800378E+02  0.00000000000E+00 0. -1.
         -5    1    3    3    0  503 -0.42497929365E+02 -0.36927171424E+02  0.65321332377E+02  0.86363513437E+02  0.47000000000E+01 0.  1.
         11    1    4    4    0    0 -0.82544056848E+02  0.79272008735E+02 -0.52752925731E+00  0.11444584299E+03  0.00000000000E+00 0. -1.
        -12    1    4    4    0    0 -0.54643736190E+02 -0.13773361050E+02 -0.30948196517E+01  0.56437764734E+02  0.00000000000E+00 0.  1.
</event>
<event>
12    1  0.8135779E-002  0.1935571E+03  0.7818608E-02  0.1157913E+00
         21   -1    0    0  503  502  0.00000000000E+00  0.00000000000E+00  0.18707212553E+03  0.18707212553E+03  0.00000000000E+00 0.  1.
         21   -1    0    0  501  503 -0.00000000000E+00 -0.00000000000E+00 -0.20534819849E+03  0.20534819849E+03  0.00000000000E+00 0. -1.
          6    2    1    2  501    0 -0.55119659136E+02 -0.36905332564E+02 -0.65023803667E+02  0.19329795121E+03  0.16951643726E+03 0.  0.
         24    2    3    3    0    0 -0.88842792942E+01  0.13898824296E+02  0.20870309537E+02  0.83213159401E+02  0.78846384457E+02 0.  0.
         -6    2    1    2    0  502  0.55119659136E+02  0.36905332564E+02  0.46747730705E+02  0.19912237281E+03  0.18183560881E+03 0.  0.
        -24    2    5    5    0    0 -0.18707115468E+02 -0.28592213289E+00  0.76025511149E+02  0.11129948000E+03  0.79105360006E+02 0.  0.
          5    1    3    3  501    0 -0.46235379842E+02 -0.50804156860E+02 -0.85894113205E+02  0.11008479180E+03  0.47000000000E+01 0. -1.
        -13    1    4    4    0    0  0.26652234092E+02  0.30450200360E+02  0.44481713797E+01  0.40710471781E+02  0.00000000000E+00 0.  1.
         14    1    4    4    0    0 -0.35536513386E+02 -0.16551376063E+02  0.16422138158E+02  0.42502687620E+02  0.00000000000E+00 0. -1.
         -5    1    5    5    0  502  0.73826774604E+02  0.37191254697E+02 -0.29277780444E+02  0.87822892813E+02  0.47000000000E+01 0.  1.
         11    1    6    6    0    0 -0.41261425049E+01 -0.19120449732E+02 -0.10048445775E+02  0.21990632379E+02  0.00000000000E+00 0. -1.
        -12    1    6    6    0    0 -0.14580972963E+02  0.18834527599E+02  0.86073956924E+02  0.89308847619E+02  0.00000000000E+00 0.  1.
</event>
<event>
12    1  0.8135779E-002  0.1790333E+03  0.7818608E-02  0.1169133E+00
         21   -1    0    0  501  502  0.00000000000E+00  0.00000000000E+00  0.23170527644E+02  0.23170527644E+02  0.00000000000E+00 0.  1.
         21   -1    0    0  502  503 -0.00000000000E+00 -0.00000000000E+00 -0.28269195664E+04  0.28269195664E+04  0.00000000000E+00 0.  1.
         -6    2    1    2    0  503  0.44830507723E+02  0.52756173640E+01 -0.24275782452E+04  0.24341711267E+04  0.17324933229E+03 0.  0.
        -24    2    3    3    0    0 -0.96808565188E+01  0.59970173209E+02 -0.11368429206E+04  0.11411194064E+04  0.77791599305E+02 0.  0.
          6    2    1    2  501    0 -0.44830507723E+02 -0.52756173640E+01 -0.37617079357E+03  0.41591896732E+03  0.17159986852E+03 0.  0.
         24    2    5    5    0    0 -0.23849009453E+02  0.31300047959E+02 -0.92726116278E+02  0.12931649411E+03  0.81093493908E+02 0.  0.
          5    1    5    5  501    0 -0.20981498270E+02 -0.36575665323E+02 -0.28344467729E+03  0.28660247321E+03  0.47000000000E+01 0. -1.
        -11    1    6    6    0    0 -0.33304826550E+02 -0.16075362797E+02 -0.20101290661E+02  0.42091455746E+02  0.00000000000E+00 0.  1.
         12    1    6    6    0    0  0.94558170973E+01  0.47375410757E+02 -0.72624825617E+02  0.87225038362E+02  0.00000000000E+00 0. -1.
         -5    1    3    3    0  503  0.54511364242E+02 -0.54694555845E+02 -0.12907353246E+04  0.12930517203E+04  0.47000000000E+01 0.  1.
         11    1    4    4    0    0  0.31615442457E+02  0.10895589353E+02 -0.31212380031E+03  0.31391004570E+03  0.00000000000E+00 0. -1.
        -12    1    4    4    0    0 -0.41296298976E+02  0.49074583856E+02 -0.82471912027E+03  0.82720936069E+03  0.00000000000E+00 0.  1.
</event>
<event>
12    1  0.8135779E-002  0.2268752E+03  0.7818608E-02  0.1129642E+00
         21   -1    0    0  503  502  0.00000000000E+00  0.00000000000E+00  0.66874031378E+03  0.66874031378E+03  0.00000000000E+00 0.  1.
         21   -1    0    0  501  503 -0.00000000000E+00 -0.00000000000E+00 -0.11284276593E+03  0.11284276593E+03  0.00000000000E+00 0.  1.
          6    2    1    2  501    0  0.10669654137E+03 -0.10133763542E+03  0.51379673839E+02  0.22840080655E+03  0.16695385367E+03 0.  0.
         24    2    3    3    0    0  0.55481458238E+02 -0.11820336107E+02 -0.22819888646E+02  0.10126309896E+03  0.80718989959E+02 0.  0.
         -6    2    1    2    0  502 -0.10669654137E+03  0.10133763542E+03  0.50451787401E+03  0.55318227316E+03  0.17268142300E+03 0.  0.
        -24    2    5    5    0    0 -0.34703856359E+02  0.68320067298E+01  0.33333436773E+03  0.34475928169E+03  0.80598558557E+02 0.  0.
          5    1    3    3  501    0  0.51215083133E+02 -0.89517299317E+02  0.74199562484E+02  0.12713770759E+03  0.47000000000E+01 0. -1.
        -13    1    4    4    0    0  0.16740291197E+02 -0.35318457485E+02 -0.36964711200E+02  0.53796102671E+02  0.00000000000E+00 0.  1.
         14    1    4    4    0    0  0.38741167041E+02  0.23498121378E+02  0.14144822554E+02  0.47466996293E+02  0.00000000000E+00 0. -1.
         -5    1    5    5    0  502 -0.71992685012E+02  0.94505628694E+02  0.17118350628E+03  0.20842299147E+03  0.47000000000E+01 0.  1.
         13    1    6    6    0    0  0.23158605295E+02 -0.96479902781E+01  0.63010454855E+02  0.67821251364E+02  0.00000000000E+00 0. -1.
        -14    1    6    6    0    0 -0.57862461655E+02  0.16479997008E+02  0.27032391287E+03  0.27693803033E+03  0.00000000000E+00 0.  1.
</event>
<event>
12    1  0.8135779E-002  0.2519541E+03  0.7818608E-02  0.1112556E+00
         21   -1    0    0  501  502  0.00000000000E+00  0.00000000000E+00  0.52931205621E+03  0.52931205621E+03  0.00000000000E+00 0. -1.
         21   -1    0    0  502  503 -0.00000000000E+00 -0.00000000000E+00 -0.18691122726E+03  0.18691122726E+03  0.00000000000E+00 0. -1.
         -6    2    1    2    0  503  0.22670093706E+02  0.17893948027E+03 -0.46137820399E+02  0.25314319763E+03  0.17152116280E+03 0.  0.
        -24    2    3    3    0    0  0.79899644397E+02  0.97234726222E+02 -0.25485695437E+02  0.15116531488E+03  0.79767703940E+02 0.  0.
          6    2    1    2  501    0 -0.22670093706E+02 -0.17893948027E+03  0.38853864934E+03  0.46308008584E+03  0.17591933697E+03 0.  0.
         24    2    5    5    0    0  0.42285397023E+02 -0.10978401593E+03  0.15286226491E+03  0.20897943216E+03  0.80404888376E+02 0.  0.
          5    1    5    5  501    0 -0.64955490728E+02 -0.69155464334E+02  0.23567638443E+03  0.25410065368E+03  0.47000000000E+01 0. -1.
        -11    1    6    6    0    0  0.31164858744E+02  0.51556649849E+00  0.26802345227E+02  0.41108149302E+02  0.00000000000E+00 0.  1.
         12    1    6    6    0    0  0.11120538278E+02 -0.11029958243E+03  0.12605991969E+03  0.16787128286E+03  0.00000000000E+00 0. -1.
         -5    1    3    3    0  503 -0.57229550691E+02  0.81704754047E+02 -0.20652124962E+02  0.10197788276E+03  0.47000000000E+01 0.  1.
         13    1    4    4    0    0  0.48336615224E+02  0.71507900746E+02 -0.53674678088E+02  0.10164044130E+03  0.00000000000E+00 0. -1.
        -14    1    4    4    0    0  0.31563029173E+02  0.25726825476E+02  0.28188982651E+02  0.49524873574E+02  0.00000000000E+00 0.  1.
</event>
<event>
12    1  0.8135779E-002  0.1743105E+03  0.7818608E-02  0.1177109E+00
         21   -1    0    0  503  502  0.00000000000E+00  0.00000000000E+00  0.18614787375E+02  0.18614787375E+02  0.00000000000E+00 0.  1.
         21   -1    0    0  501  503 -0.00000000000E+00 -0.00000000000E+00 -0.17279870375E+04  0.17279870375E+04  0.00000000000E+00 0.  1.
          6    2    1    2  501    0 -0.17857703515E+02 -0.31946199427E+02 -0.50957383797E+03  0.53420733623E+03  0.15611702184E+03 0.  0.
         24    2    3    3    0    0  0.39370326831E+02 -0.32126509891E+02 -0.23270965249E+03  0.25145135102E+03  0.80572106203E+02 0.  0.
         -6    2    1    2    0  502  0.17857703515E+02  0.31946199427E+02 -0.11997984122E+04  0.12123944886E+04  0.17042508338E+03 0.  0.
        -24    2    5    5    0    0 -0.50774150557E+02  0.47774212754E+02 -0.70180349563E+03  0.70942144335E+03  0.76747951405E+02 0.  0.
          5    1    3    3  501    0 -0.57228030346E+02  0.18031046408E+00 -0.27686418548E+03  0.28275598521E+03  0.47000000000E+01 0. -1.
        -13    1    4    4    0    0 -0.57857633957E+01 -0.46424246692E+02 -0.96527188296E+02  0.10726688128E+03  0.00000000000E+00 0.  1.
         14    1    4    4    0    0  0.45156090227E+02  0.14297736800E+02 -0.13618246419E+03  0.14418446974E+03  0.00000000000E+00 0. -1.
         -5    1    5    5    0  502  0.68631854072E+02 -0.15828013327E+02 -0.49799491652E+03  0.50297304528E+03  0.47000000000E+01 0.  1.
         11    1    6    6    0    0 -0.26141374923E+02  0.84399378119E+01 -0.54991204825E+03  0.55059773414E+03  0.00000000000E+00 0. -1.
        -12    1    6    6    0    0 -0.24632775634E+02  0.39334274943E+02 -0.15189144738E+03  0.15882370921E+03  0.00000000000E+00 0.  1.
</event>
<event>
12    1  0.8135779E-002  0.2061792E+03  0.7818608E-02  0.1145839E+00
         21   -1    0    0  501  502  0.00000000000E+00  0.00000000000E+00  0.14581609883E+03  0.14581609883E+03  0.00000000000E+00 0. -1.
         21   -1    0    0  502  503 -0.00000000000E+00 -0.00000000000E+00 -0.71208588542E+03  0.71208588542E+03  0.00000000000E+00 0. -1.
         -6    2    1    2    0  503 -0.59886828188E+02 -0.95912164852E+02 -0.61436158178E+03  0.64618828605E+03  0.16532867963E+03 0.  0.
        -24    2    3    3    0    0 -0.66601908604E+01 -0.10993802431E+03 -0.33364560795E+03  0.36008804555E+03  0.78824371301E+02 0.  0.
          6    2    1    2  501    0  0.59886828188E+02  0.95912164852E+02  0.48091795186E+02  0.21171369819E+03  0.17240734811E+03 0.  0.
         24    2    5    5    0    0 -0.28985553324E+02  0.20118311358E+02  0.28470516319E+02  0.93180609954E+02  0.81407290942E+02 0.  0.
          5    1    5    5  501    0  0.88872381512E+02  0.75793853494E+02  0.19621278867E+02  0.11853308824E+03  0.47000000000E+01 0. -1.
        -13    1    6    6    0    0 -0.25987988398E+02 -0.29279930544E+02  0.14613836006E+02  0.41788204992E+02  0.00000000000E+00 0.  1.
         14    1    6    6    0    0 -0.29975649262E+01  0.49398241902E+02  0.13856680313E+02  0.51392404962E+02  0.00000000000E+00 0. -1.
         -5    1    3    3    0  503 -0.53226637328E+02  0.14025859455E+02 -0.28071597382E+03  0.28610024050E+03  0.47000000000E+01 0.  1.
         13    1    4    4    0    0  0.22268012812E+02 -0.28804110535E+02 -0.40085052770E+02  0.54151201593E+02  0.00000000000E+00 0. -1.
        -14    1    4    4    0    0 -0.28928203672E+02 -0.81133913771E+02 -0.29356055518E+03  0.30593684396E+03  0.00000000000E+00 0.  1.
</event>
<event>
12    1  0.8135779E-002  0.1905960E+03  0.7818608E-02  0.1158068E+00
         21   -1    0    0  503  502  0.00000000000E+00  0.00000000000E+00  0.33992310515E+03  0.33992310515E+03  0.00000000000E+00 0. -1.
         21   -1    0    0  501  503 -0.00000000000E+00 -0.00000000000E+00 -0.17942696717E+03  0.17942696717E+03  0.00000000000E+00 0. -1.
          6    2    1    2  501    0  0.59074242553E+01 -0.82589004379E+02 -0.85210164759E+02  0.20877647843E+03  0.17167121035E+03 0.  0.
         24    2    3    3    0    0  0.30498922314E+02 -0.17734578279E+02  0.13360840703E+02  0.88156531993E+02  0.79676612250E+02 0.  0.
         -6    2    1    2    0  502 -0.59074242553E+01  0.82589004379E+02  0.24570630275E+03  0.31057359389E+03  0.17096353033E+03 0.  0.
        -24    2    5    5    0    0  0.79497344048E+01  0.68542733206E+02  0.26257953754E+03  0.28418960950E+03  0.83990571263E+02 0.  0.
          5    1    3    3  501    0 -0.24591498059E+02 -0.64854426100E+02 -0.98571005462E+02  0.12061994644E+03  0.47000000000E+01 0. -1.
        -13    1    4    4    0    0  0.57084860542E+02 -0.12436356653E+02  0.16896863766E+02  0.60818157445E+02  0.00000000000E+00 0.  1.
         14    1    4    4    0    0 -0.26585938227E+02 -0.52982216257E+01 -0.35360230634E+01  0.27338374548E+02  0.00000000000E+00 0. -1.
         -5    1    5    5    0  502 -0.13857158660E+02  0.14046271173E+02 -0.16873234788E+02  0.26383984389E+02  0.47000000000E+01 0.  1.
         13    1    6    6    0    0 -0.35658779717E+02  0.48531189781E+02  0.15948314259E+03  0.17047491816E+03  0.00000000000E+00 0. -1.
        -14    1    6    6    0    0  0.43608514122E+02  0.20011543424E+02  0.10309639494E+03  0.11371469133E+03  0.00000000000E+00 0.  1.
</event>
<event>
12    1  0.8135779E-002  0.2228199E+03  0.7818608E-02  0.1131984E+00
         21   -1    0    0  503  502  0.00000000000E+00  0.00000000000E+00  0.10678077195E+04  0.10678077195E+04  0.00000000000E+00 0.  1.
         21   -1    0    0  501  503 -0.00000000000E+00 -0.00000000000E+00 -0.73189134793E+02  0.73189134793E+02  0.00000000000E+00 0.  1.
          6    2    1    2  501    0 -0.13674292771E+03  0.64093386306E+01  0.15213196205E+03  0.26980144858E+03  0.17580949883E+03 0.  0.
         24    2    3    3    0    0 -0.99359200697E+02  0.22224003879E+02  0.22339092248E+02  0.13372821193E+03  0.83773757892E+02 0.  0.
         -6    2    1    2    0  502  0.13674292771E+03 -0.64093386306E+01  0.84248662268E+03  0.87119540573E+03  0.17452225553E+03 0.  0.
        -24    2    5    5    0    0  0.13088019056E+03  0.17110151636E+02  0.41276891082E+03  0.44076894280E+03  0.80477982245E+02 0.  0.
          5    1    3    3  501    0 -0.37383727013E+02 -0.15814665249E+02  0.12979286980E+03  0.13607323665E+03  0.47000000000E+01 0. -1.
        -11    1    4    4    0    0 -0.20244550489E+02  0.11156244200E+02 -0.30262263022E+02  0.38080285875E+02  0.00000000000E+00 0.  1.
         12    1    4    4    0    0 -0.79114650208E+02  0.11067759679E+02  0.52601355270E+02  0.95647926052E+02  0.00000000000E+00 0. -1.
         -5    1    5    5    0  502  0.58627371548E+01 -0.23519490267E+02  0.42971771186E+03  0.43042646293E+03  0.47000000000E+01 0.  1.
         11    1    6    6    0    0 -0.43935035641E+01 -0.54849745155E+00 -0.14534369955E+01  0.46600646049E+01  0.00000000000E+00 0. -1.
        -12    1    6    6    0    0  0.13527369412E+03  0.17658649087E+02  0.41422234781E+03  0.43610887819E+03  0.00000000000E+00 0.  1.
</event>
<event>
12    1  0.8135779E-002  0.2029210E+03  0.7818608E-02  0.1148041E+00
         21   -1    0    0  501  502  0.00000000000E+00  0.00000000000E+00  0.62518742425E+03  0.62518742425E+03  0.00000000000E+00 0. -1.
         21   -1    0    0  502  503 -0.00000000000E+00 -0.00000000000E+00 -0.66225815359E+02  0.66225815359E+02  0.00000000000E+00 0. -1.
         -6    2    1    2    0  503 -0.99642981952E+02  0.25664389316E+02  0.22481875089E+03  0.30048051427E+03  0.17075621209E+03 0.  0.
        -24    2    3    3    0    0 -0.13710040338E+03  0.29940278426E+02  0.18937492667E+03  0.24852191225E+03  0.78786655836E+02 0.  0.
          6    2    1    2  501    0  0.99642981952E+02 -0.25664389316E+02  0.33414285800E+03  0.39093272534E+03  0.17489871773E+03 0.  0.
         24    2    5    5    0    0 -0.13795972763E+02 -0.10900027710E+02  0.83655141419E+02  0.11551927437E+03  0.77700582987E+02 0.  0.
          5    1    5    5  501    0  0.11343895472E+03 -0.14764361606E+02  0.25048771658E+03  0.27541345097E+03  0.47000000000E+01 0. -1.
        -13    1    6    6    0    0  0.57670989871E+00  0.32590747228E+02  0.45113271765E+02  0.55656955437E+02  0.00000000000E+00 0.  1.
         14    1    6    6    0    0 -0.14372682662E+02 -0.43490774938E+02  0.38541869655E+02  0.59862318933E+02  0.00000000000E+00 0. -1.
         -5    1    3    3    0  503  0.37457421429E+02 -0.42758891102E+01  0.35443824221E+02  0.51958602014E+02  0.47000000000E+01 0.  1.
         13    1    4    4    0    0 -0.97526688146E+01  0.27328637449E+02  0.61659661495E+02  0.68146040453E+02  0.00000000000E+00 0. -1.
        -14    1    4    4    0    0 -0.12734773457E+03  0.26116409769E+01  0.12771526518E+03  0.18037587180E+03  0.00000000000E+00 0.  1.
</event>
<event>
12    1  0.8135779E-002  0.1777772E+03  0.7818608E-02  0.1170022E+00
         21   -1    0    0  501  502  0.00000000000E+00  0.00000000000E+00  0.15448850065E+04  0.15448850065E+04  0.00000000000E+00 0.  1.
         21   -1    0    0  502  503 -0.00000000000E+00 -0.00000000000E+00 -0.25132370292E+02  0.25132370292E+02  0.00000000000E+00 0.  1.
         -6    2    1    2    0  503  0.81154109377E+01  0.45143524038E+02  0.42082025826E+03  0.45683085845E+03  0.17175839370E+03 0.  0.
        -24    2    3    3    0    0  0.85889486765E+01  0.69995404040E+02  0.14599250024E+03  0.18084131741E+03  0.80103965774E+02 0.  0.
          6    2    1    2  501    0 -0.81154109377E+01 -0.45143524038E+02  0.10989323779E+04  0.11131865183E+04  0.17154607449E+03 0.  0.
         24    2    5    5    0    0 -0.37655440167E+02 -0.67890152584E+00  0.30618631084E+03  0.31863121323E+03  0.79733305558E+02 0.  0.
          5    1    5    5  501    0  0.29540029229E+02 -0.44464622512E+02  0.79274606708E+03  0.79455530509E+03  0.47000000000E+01 0. -1.
        -11    1    6    6    0    0 -0.13882730409E+02 -0.15740773967E+02  0.27803298030E+03  0.27882403107E+03  0.00000000000E+00 0.  1.
         12    1    6    6    0    0 -0.23772709758E+02  0.15061872442E+02  0.28153330543E+02  0.39807182158E+02  0.00000000000E+00 0. -1.
         -5    1    3    3    0  503 -0.47353773878E+00 -0.24851880001E+02  0.27482775803E+03  0.27598954103E+03  0.47000000000E+01 0.  1.
         13    1    4    4    0    0 -0.34767587401E+01 -0.11840981905E+02  0.61012231526E+02  0.62247803975E+02  0.00000000000E+00 0. -1.
        -14    1    4    4    0    0  0.12065707417E+02  0.81836385944E+02  0.84980268710E+02  0.11859351344E+03  0.00000000000E+00 0.  1.
</event>
<event>
12    1  0.8135779E-002  0.1741737E+03  0.7818608E-02  0.1173574E+00
         21   -1    0    0  501  502  0.00000000000E+00  0.00000000000E+00  0.86257820112E+02  0.86257820112E+02  0.00000000000E+00 0. -1.
         21   -1    0    0  502  503 -0.00000000000E+00 -0.00000000000E+00 -0.11213721407E+04  0.11213721407E+04  0.00000000000E+00 0. -1.
         -6    2    1    2    0  503  0.48885427973E+01 -0.30555482845E+02 -0.10178101335E+04  0.10325987656E+04  0.17136279469E+03 0.  0.
        -24    2    3    3    0    0 -0.57793567769E+02 -0.42709607442E+02 -0.68556803348E+03  0.69424440582E+03  0.82507935632E+02 0.  0.
          6    2    1    2  501    0 -0.48885427973E+01  0.30555482845E+02 -0.17304187094E+02  0.17503119526E+03  0.17140288515E+03 0.  0.
         24    2    5    5    0    0 -0.12003677439E+01  0.85620467279E+02 -0.22908481272E+02  0.11936025796E+03  0.79936020458E+02 0.  0.
          5    1    5    5  501    0 -0.36881750534E+01 -0.55064984435E+02  0.56042941778E+01  0.55670937294E+02  0.47000000000E+01 0. -1.
        -13    1    6    6    0    0  0.26013142095E+01  0.78090092830E+01 -0.38959639253E+02  0.39819605125E+02  0.00000000000E+00 0.  1.
         14    1    6    6    0    0 -0.38016819533E+01  0.77811457996E+02  0.16051157981E+02  0.79540652837E+02  0.00000000000E+00 0. -1.
         -5    1    3    3    0  503  0.62682110567E+02  0.12154124597E+02 -0.33224210006E+03  0.33835435978E+03  0.47000000000E+01 0.  1.
         11    1    4    4    0    0 -0.55240331827E+01  0.19673758487E+02 -0.27060809961E+03  0.27137854611E+03  0.00000000000E+00 0. -1.
        -12    1    4    4    0    0 -0.52269534587E+02 -0.62383365928E+02 -0.41495993387E+03  0.42286585971E+03  0.00000000000E+00 0.  1.
</event>
<event>
12    1  0.8135779E-002  0.1856245E+03  0.7818608E-02  0.1162574E+00
         21   -1    0    0  503  502  0.00000000000E+00  0.00000000000E+00  0.56254154277E+03  0.56254154277E+03  0.00000000000E+00 0.  1.
         21   -1    0    0  501  503 -0.00000000000E+00 -0.00000000000E+00 -0.10572507538E+03  0.10572507538E+03  0.00000000000E+00 0.  1.
          6    2    1    2  501    0 -0.78956172817E+01  0.68583274711E+02  0.11493084250E+02  0.18597999417E+03  0.17230920145E+03 0.  0.
         24    2    3    3    0    0  0.24368825196E+02 -0.28803594807E+02  0.24514686492E+02  0.82457780476E+02  0.69100137424E+02 0.  0.
         -6    2    1    2    0  502  0.78956172817E+01 -0.68583274711E+02  0.44532338314E+03  0.48228662399E+03  0.17181811827E+03 0.  0.
        -24    2    5    5    0    0 -0.26705629433E+02 -0.88043174945E+02  0.41420726197E+03  0.43162858427E+03  0.79188304649E+02 0.  0.
          5    1    3    3  501    0 -0.32264442477E+02  0.97386869518E+02 -0.13021602241E+02  0.10352221369E+03  0.47000000000E+01 0. -1.
        -11    1    4    4    0    0  0.21397740724E+02  0.18011878094E+02  0.21814276072E+02  0.35470462375E+02  0.00000000000E+00 0.  1.
         12    1    4    4    0    0  0.29710844715E+01 -0.46815472901E+02  0.27004104193E+01  0.46987318101E+02  0.00000000000E+00 0. -1.
         -5    1    5    5    0  502  0.34601246714E+02  0.19459900234E+02  0.31116121165E+02  0.50658039714E+02  0.47000000000E+01 0.  1.
         11    1    6    6    0    0 -0.10616618273E+02  0.23067385551E+01  0.17630565272E+03  0.17664007701E+03  0.00000000000E+00 0. -1.
        -12    1    6    6    0    0 -0.16089011160E+02 -0.90349913500E+02  0.23790160925E+03  0.25498850726E+03  0.00000000000E+00 0.  1.
</event>
<event>
12    1  0.8135779E-002  0.1757430E+03  0.7818608E-02  0.1173712E+00
         21   -1    0    0  503  502  0.00000000000E+00  0.00000000000E+00  0.28439767276E+03  0.28439767276E+03  0.00000000000E+00 0.  1.
         21   -1    0    0  501  503 -0.00000000000E+00 -0.00000000000E+00 -0.16167589140E+03  0.16167589140E+03  0.00000000000E+00 0.  1.
          6    2    1    2  501    0  0.77296479772E+01 -0.53031109786E+01 -0.70524952554E+02  0.18936572586E+03  0.17549284531E+03 0.  0.
         24    2    3    3    0    0  0.14914498565E+02 -0.31045077005E+02 -0.10707312885E+03  0.14384507029E+03  0.89668892319E+02 0.  0.
         -6    2    1    2    0  502 -0.77296479772E+01  0.53031109786E+01  0.19324673392E+03  0.25670783830E+03  0.16872090455E+03 0.  0.
        -24    2    5    5    0    0  0.46779204839E+02 -0.26814620495E+02  0.15508665074E+03  0.18267375387E+03  0.80065680761E+02 0.  0.
          5    1    3    3  501    0 -0.71848505881E+01  0.25741966026E+02  0.36548176301E+02  0.45520655573E+02  0.47000000000E+01 0. -1.
        -11    1    4    4    0    0 -0.19693132121E+02 -0.43386531248E+00 -0.93696202329E+02  0.95744378543E+02  0.00000000000E+00 0.  1.
         12    1    4    4    0    0  0.34607630686E+02 -0.30611211692E+02 -0.13376926526E+02  0.48100691744E+02  0.00000000000E+00 0. -1.
         -5    1    5    5    0  502 -0.54508852816E+02  0.32117731474E+02  0.38160083175E+02  0.74034084436E+02  0.47000000000E+01 0.  1.
         11    1    6    6    0    0  0.44024427159E+02 -0.30955929432E+02  0.38958970881E+02  0.66439605401E+02  0.00000000000E+00 0. -1.
        -12    1    6    6    0    0  0.27547776796E+01  0.41413089369E+01  0.11612767986E+03  0.11623414847E+03  0.00000000000E+00 0.  1.
</event>
<event>
12    1  0.8135779E-002  0.3353331E+03  0.7818608E-02  0.1068897E+00
         21   -1    0    0  501  502  0.00000000000E+00  0.00000000000E+00  0.54366881834E+03  0.54366881834E+03  0.00000000000E+00 0.  1.
         21   -1    0    0  502  503 -0.00000000000E+00 -0.00000000000E+00 -0.43309858252E+03  0.43309858252E+03  0.00000000000E+00 0.  1.
         -6    2    1    2    0  503 -0.20663990442E+03 -0.19829077875E+03 -0.29810460649E+03  0.44868099506E+03  0.17443908934E+03 0.  0.
        -24    2    3    3    0    0 -0.53079856568E+02 -0.11311557815E+03 -0.80777562392E+02  0.16923755323E+03  0.80645704421E+02 0.  0.
          6    2    1    2  501    0  0.20663990442E+03  0.19829077875E+03  0.40867484231E+03  0.52808640579E+03  0.17274502080E+03 0.  0.
         24    2    5    5    0    0  0.18822041280E+03  0.12742560768E+03  0.37866700032E+03  0.44881654568E+03  0.79896090369E+02 0.  0.
          5    1    5    5  501    0  0.18419491621E+02  0.70865171063E+02  0.30007841991E+02  0.79269860113E+02  0.47000000000E+01 0. -1.
        -13    1    6    6    0    0  0.10030517107E+03  0.11368127742E+03  0.25000042632E+03  0.29237779214E+03  0.00000000000E+00 0.  1.
         14    1    6    6    0    0  0.87915241724E+02  0.13744330261E+02  0.12866657400E+03  0.15643875353E+03  0.00000000000E+00 0. -1.
         -5    1    3    3    0  503 -0.15356004785E+03 -0.85175200594E+02 -0.21732704409E+03  0.27944344184E+03  0.47000000000E+01 0.  1.
         11    1    4    4    0    0 -0.17768862694E+02 -0.19362593662E+02  0.15317671384E+02  0.30418309805E+02  0.00000000000E+00 0. -1.
        -12    1    4    4    0    0 -0.35310993874E+02 -0.93752984491E+02 -0.96095233776E+02  0.13881924342E+03  0.00000000000E+00 0.  1.
</event>
<event>
12    1  0.8135779E-002  0.2055508E+03  0.7818608E-02  0.1145217E+00
         21   -1    0    0  503  502  0.00000000000E+00  0.00000000000E+00  0.23494554895E+03  0.23494554895E+03  0.00000000000E+00 0.  1.
         21   -1    0    0  501  503 -0.00000000000E+00 -0.00000000000E+00 -0.27663436729E+03  0.27663436729E+03  0.00000000000E+00 0.  1.
          6    2    1    2  501    0  0.48818855848E+02  0.10083410166E+03 -0.17240611672E+03  0.26798565961E+03  0.17187683941E+03 0.  0.
         24    2    3    3    0    0  0.97357231960E+02  0.62194109392E+02 -0.13628992405E+03  0.19604476490E+03  0.80697388978E+02 0.  0.
         -6    2    1    2    0  502 -0.48818855848E+02 -0.10083410166E+03  0.13071729838E+03  0.24359425664E+03  0.17233790363E+03 0.  0.
        -24    2    5    5    0    0 -0.37160983592E+02 -0.10319265784E+03  0.26642151860E+02  0.13873628176E+03  0.80673962887E+02 0.  0.
          5    1    3    3  501    0 -0.48538376112E+02  0.38639992273E+02 -0.36116192669E+02  0.71940894708E+02  0.47000000000E+01 0. -1.
        -13    1    4    4    0    0  0.28005436860E+02  0.38259139163E+02 -0.10702530181E+03  0.11705759886E+03  0.00000000000E+00 0.  1.
         14    1    4    4    0    0  0.69351795100E+02  0.23934970228E+02 -0.29264622237E+02  0.78987166035E+02  0.00000000000E+00 0. -1.
         -5    1    5    5    0  502 -0.11657872256E+02  0.23585561733E+01  0.10407514652E+03  0.10485797488E+03  0.47000000000E+01 0.  1.
         13    1    6    6    0    0 -0.50050240521E+02 -0.10860032448E+03  0.14943092880E+02  0.12050872615E+03  0.00000000000E+00 0. -1.
        -14    1    6    6    0    0  0.12889256929E+02  0.54076666387E+01  0.11699058980E+02  0.18227555614E+02  0.00000000000E+00 0.  1.
</event>
<event>
12    1  0.8135779E-002  0.2128116E+03  0.7818608E-02  0.1139670E+00
         21   -1    0    0  501  502  0.00000000000E+00  0.00000000000E+00  0.17413191434E+04  0.17413191434E+04  0.00000000000E+00 0. -1.
         21   -1    0    0  502  503 -0.00000000000E+00 -0.00000000000E+00 -0.43434914515E+02  0.43434914515E+02  0.00000000000E+00 0.  1.
         -6    2    1    2    0  503 -0.12548129824E+03 -0.38533285423E+01  0.28245323403E+03  0.35365038540E+03  0.17183818355E+03 0.  0.
        -24    2    3    3    0    0 -0.10662754899E+02  0.29682456973E+02  0.16249313238E+03  0.18417925867E+03  0.80766568953E+02 0.  0.
          6    2    1    2  501    0  0.12548129824E+03  0.38533285423E+01  0.14154309949E+04  0.14311036725E+04  0.16985998927E+03 0.  0.
         24    2    5    5    0    0  0.30237187341E+02  0.36054541997E+02  0.97201641704E+03  0.97640933934E+03  0.79655919148E+02 0.  0.
          5    1    5    5  501    0  0.95244110899E+02 -0.32201213455E+02  0.44341457784E+03  0.45469433321E+03  0.47000000000E+01 0. -1.
        -13    1    6    6    0    0 -0.24352679498E+02  0.70205918214E+00  0.39238241649E+03  0.39313802494E+03  0.00000000000E+00 0.  1.
         14    1    6    6    0    0  0.54589866839E+02  0.35352482815E+02  0.57963400055E+03  0.58327131440E+03  0.00000000000E+00 0. -1.
         -5    1    3    3    0  503 -0.11481854334E+03 -0.33535785516E+02  0.11996010166E+03  0.16947112673E+03  0.47000000000E+01 0.  1.
         11    1    4    4    0    0 -0.33641026187E+02 -0.27759526040E+01  0.12516305130E+03  0.12963492572E+03  0.00000000000E+00 0. -1.
        -12    1    4    4    0    0  0.22978271288E+02  0.32458409577E+02  0.37330081077E+02  0.54544332949E+02  0.00000000000E+00 0.  1.
</event>
<event>
12    1  0.8135779E-002  0.2472962E+03  0.7818608E-02  0.1115069E+00
         21   -1    0    0  501  502  0.00000000000E+00  0.00000000000E+00  0.42203653324E+03  0.42203653324E+03  0.00000000000E+00 0. -1.
         21   -1    0    0  502  503 -0.00000000000E+00 -0.00000000000E+00 -0.14551185419E+03  0.14551185419E+03  0.00000000000E+00 0. -1.
         -6    2    1    2    0  503 -0.60345656927E+02 -0.16642463322E+03  0.15891146870E+03  0.29395280768E+03  0.17267495882E+03 0.  0.
        -24    2    3    3    0    0 -0.37001144971E+02 -0.10397947355E+02  0.68887462075E+02  0.11225056578E+03  0.79859282798E+02 0.  0.
          6    2    1    2  501    0  0.60345656927E+02  0.16642463322E+03  0.11761321035E+03  0.27359557975E+03  0.17228730992E+03 0.  0.
         24    2    5    5    0    0  0.64815647939E+02  0.19292376099E+03  0.11028948934E+03  0.24534825277E+03  0.81310195598E+02 0.  0.
          5    1    5    5  501    0 -0.44699910114E+01 -0.26499127766E+02  0.73237210080E+01  0.28247326978E+02  0.47000000000E+01 0. -1.
        -13    1    6    6    0    0  0.63379615609E+02  0.63466791832E+02  0.44494530733E+02  0.10012378641E+03  0.00000000000E+00 0.  1.
         14    1    6    6    0    0  0.14360323302E+01  0.12945696916E+03  0.65794958607E+02  0.14522446636E+03  0.00000000000E+00 0. -1.
         -5    1    3    3    0  503 -0.23344511956E+02 -0.15602668587E+03  0.90024006621E+02  0.18170224189E+03  0.47000000000E+01 0.  1.
         11    1    4    4    0    0  0.13298004399E+02 -0.15340518492E+02  0.56750071534E+02  0.60272207922E+02  0.00000000000E+00 0. -1.
        -12    1    4    4    0    0 -0.50299149370E+02  0.49425711372E+01  0.12137390541E+02  0.51978357861E+02  0.00000000000E+00 0.  1.
</event>
<event>
12    1  0.8135779E-002  0.1899948E+03  0.7818608E-02  0.1158476E+00
         21   -1    0    0  501  502  0.00000000000E+00  0.00000000000E+00  0.56199497572E+03  0.56199497572E+03  0.00000000000E+00 0.  1.
         21   -1    0    0  502  503 -0.00000000000E+00 -0.00000000000E+00 -0.78842803032E+02  0.78842803032E+02  0.00000000000E+00 0.  1.
         -6    2    1    2    0  503  0.72822367273E+02 -0.37246169065E+02  0.37960854154E+03  0.42450051359E+03  0.17148663780E+03 0.  0.
        -24    2    3    3    0    0  0.65508910323E+02  0.32413879610E+02  0.14849103081E+03  0.18295672294E+03  0.77983968325E+02 0.  0.
          6    2    1    2  501    0 -0.72822367273E+02  0.37246169065E+02  0.10354363115E+03  0.21633726516E+03  0.17143556942E+03 0.  0.
         24    2    5    5    0    0  0.25949442591E+02  0.39190064581E+01  0.57654584301E+02  0.10234399864E+03  0.80383523095E+02 0.  0.
          5    1    5    5  501    0 -0.98771809864E+02  0.33327162607E+02  0.45889046847E+02  0.11399326652E+03  0.47000000000E+01 0. -1.
        -11    1    6    6    0    0 -0.16159148682E+02  0.58807002567E+01  0.57681043882E+02  0.60189729564E+02  0.00000000000E+00 0.  1.
         12    1    6    6    0    0  0.42108591273E+02 -0.19616937987E+01 -0.26459581166E-01  0.42154269080E+02  0.00000000000E+00 0. -1.
         -5    1    3    3    0  503  0.73134569500E+01 -0.69660048676E+02  0.23111751073E+03  0.24154379065E+03  0.47000000000E+01 0.  1.
         13    1    4    4    0    0 -0.60297293718E+01  0.34064001594E+01 -0.66938867245E+01  0.96316830214E+01  0.00000000000E+00 0. -1.
        -14    1    4    4    0    0  0.71538639694E+02  0.29007479451E+02  0.15518491753E+03  0.17332503992E+03  0.00000000000E+00 0.  1.
</event>
<event>
12    1  0.8135779E-002  0.2953671E+03  0.7818608E-02  0.1087677E+00
         21   -1    0    0  501  502  0.00000000000E+00  0.00000000000E+00  0.20760516956E+03  0.20760516956E+03  0.00000000000E+00 0.  1.
         21   -1    0    0  502  503 -0.00000000000E+00 -0.00000000000E+00 -0.56185350636E+03  0.56185350636E+03  0.00000000000E+00 0. -1.
         -6    2    1    2    0  503 -0.10698131953E+03  0.21401155714E+03 -0.37085123023E+03  0.47362531380E+03  0.17188471016E+03 0.  0.
        -24    2    3    3    0    0 -0.41498991495E+02  0.18237515485E+03 -0.33915785363E+03  0.39415609110E+03  0.73130780610E+02 0.  0.
          6    2    1    2  501    0  0.10698131953E+03 -0.21401155714E+03  0.16602893430E+02  0.29583336212E+03  0.17319287732E+03 0.  0.
         24    2    5    5    0    0  0.36395047408E+00 -0.15127583642E+03  0.18369758883E+02  0.17202606891E+03  0.79818601836E+02 0.  0.
          5    1    5    5  501    0  0.10661736906E+03 -0.62735720726E+02 -0.17668654537E+01  0.12380729322E+03  0.47000000000E+01 0. -1.
        -13    1    6    6    0    0 -0.37733376870E+02 -0.10188387820E+03  0.12869625380E+02  0.10940639663E+03  0.00000000000E+00 0.  1.
         14    1    6    6    0    0  0.38097327344E+02 -0.49391958220E+02  0.55001335030E+01  0.62619672277E+02  0.00000000000E+00 0. -1.
         -5    1    3    3    0  503 -0.65482328038E+02  0.31636402290E+02 -0.31693376598E+02  0.79469222693E+02  0.47000000000E+01 0.  1.
         13    1    4    4    0    0 -0.99439753250E+01  0.63813013735E+02 -0.19195262339E+03  0.20252603041E+03  0.00000000000E+00 0. -1.
        -14    1    4    4    0    0 -0.31555016170E+02  0.11856214112E+03 -0.14720523024E+03  0.19163006070E+03  0.00000000000E+00 0.  1.
</event>
<event>
12    1  0.8135779E-002  0.1910177E+03  0.7818608E-02  0.1157662E+00
         21   -1    0    0  503  502  0.00000000000E+00  0.00000000000E+00  0.10123360100E+04  0.10123360100E+04  0.00000000000E+00 0.  1.
         21   -1    0    0  501  503 -0.00000000000E+00 -0.00000000000E+00 -0.45365220649E+02  0.45365220649E+02  0.00000000000E+00 0.  1.
          6    2    1    2  501    0 -0.84207936319E+02  0.38212668191E+01  0.72394726311E+03  0.74859250680E+03  0.17083770911E+03 0.  0.
         24    2    3    3    0    0 -0.75790915394E+02  0.60285702086E+02  0.56015119337E+03  0.57506924855E+03  0.86929008182E+02 0.  0.
         -6    2    1    2    0  502  0.84207936319E+02 -0.38212668191E+01  0.24302352620E+03  0.30910872380E+03  0.17141233977E+03 0.  0.
        -24    2    5    5    0    0  0.39778551499E+02  0.12816824180E+02  0.24548234040E+03  0.26137056218E+03  0.79412764629E+02 0.  0.
          5    1    3    3  501    0 -0.84170209251E+01 -0.56464435267E+02  0.16379606974E+03  0.17352325825E+03  0.47000000000E+01 0. -1.
        -11    1    4    4    0    0 -0.59017206969E+02 -0.33318423486E+01  0.34688585398E+03  0.35188624239E+03  0.00000000000E+00 0.  1.
         12    1    4    4    0    0 -0.16773708426E+02  0.63617544435E+02  0.21326533939E+03  0.22318300617E+03  0.00000000000E+00 0. -1.
         -5    1    5    5    0  502  0.44429384820E+02 -0.16638090999E+02 -0.24588142035E+01  0.47738161620E+02  0.47000000000E+01 0.  1.
         13    1    6    6    0    0 -0.69419068216E+01  0.36615308039E+02  0.98240987186E+02  0.10507217718E+03  0.00000000000E+00 0. -1.
        -14    1    6    6    0    0  0.46720458321E+02 -0.23798483858E+02  0.14724135321E+03  0.15629838501E+03  0.00000000000E+00 0.  1.
</event>
<event>
12    1  0.8135779E-002  0.1965688E+03  0.7818608E-02  0.1152804E+00
         21   -1    0    0  501  502  0.00000000000E+00  0.00000000000E+00  0.22438892770E+03  0.22438892770E+03  0.00000000000E+00 0. -1.
         21   -1    0    0  502  503 -0.00000000000E+00 -0.00000000000E+00 -0.22681066601E+03  0.22681066601E+03  0.00000000000E+00 0.  1.
         -6    2    1    2    0  503 -0.94105895827E+02 -0.16630848457E+02 -0.11247486560E+03  0.22647274334E+03  0.17177544451E+03 0.  0.
        -24    2    3    3    0    0 -0.72250143573E+01 -0.61651966108E+01 -0.10004473250E+03  0.13796050892E+03  0.94519537867E+02 0.  0.
          6    2    1    2  501    0  0.94105895827E+02  0.16630848457E+02  0.11005312729E+03  0.22472685037E+03  0.17104958842E+03 0.  0.
         24    2    5    5    0    0 -0.16272388940E+01  0.46731691431E+02  0.23224731881E+02  0.91940728799E+02  0.75678336072E+02 0.  0.
          5    1    5    5  501    0  0.95733134721E+02 -0.30100842974E+02  0.86828395411E+02  0.13278612157E+03  0.47000000000E+01 0. -1.
        -13    1    6    6    0    0  0.98430368052E+01  0.23380620639E+02 -0.25961489520E+02  0.36297902599E+02  0.00000000000E+00 0.  1.
         14    1    6    6    0    0 -0.11470275699E+02  0.23351070793E+02  0.49186221401E+02  0.55642826200E+02  0.00000000000E+00 0. -1.
         -5    1    3    3    0  503 -0.86880881470E+02 -0.10465651846E+02 -0.12430133100E+02  0.88512234422E+02  0.47000000000E+01 0.  1.
         11    1    4    4    0    0  0.49409167653E+01 -0.38753523602E+02 -0.84329800866E+01  0.39967028951E+02  0.00000000000E+00 0. -1.
        -12    1    4    4    0    0 -0.12165931123E+02  0.32588326991E+02 -0.91611752413E+02  0.97993479968E+02  0.00000000000E+00 0.  1.
</event>
<event>
12    1  0.8135779E-002  0.2051077E+03  0.7818608E-02  0.1145871E+00
         21   -1    0    0  501  502  0.00000000000E+00  0.00000000000E+00  0.62228820792E+03  0.62228820792E+03  0.00000000000E+00 0. -1.
         21   -1    0    0  502  503 -0.00000000000E+00 -0.00000000000E+00 -0.81160842721E+02  0.81160842721E+02  0.00000000000E+00 0. -1.
         -6    2    1    2    0  503  0.10823464636E+03 -0.76282876498E+01  0.12270370356E+03  0.23745811927E+03  0.17192216290E+03 0.  0.
        -24    2    3    3    0    0  0.15523264004E+02 -0.25371215163E+02  0.21891376885E+01  0.84304397537E+02  0.78852830235E+02 0.  0.
          6    2    1    2  501    0 -0.10823464636E+03  0.76282876498E+01  0.41842366164E+03  0.46599093137E+03  0.17405820306E+03 0.  0.
         24    2    5    5    0    0 -0.24682135725E+02  0.39051003081E+02  0.10339215529E+03  0.13852284274E+03  0.79777512615E+02 0.  0.
          5    1    5    5  501    0 -0.83552510632E+02 -0.31422715431E+02  0.31503150635E+03  0.32746808863E+03  0.47000000000E+01 0. -1.
        -11    1    6    6    0    0 -0.18532477488E+01 -0.18000521576E+02 -0.17647832842E+00  0.18096531404E+02  0.00000000000E+00 0.  1.
         12    1    6    6    0    0 -0.22828887976E+02  0.57051524658E+02  0.10356863362E+03  0.12042631133E+03  0.00000000000E+00 0. -1.
         -5    1    3    3    0  503  0.92711382353E+02  0.17742927513E+02  0.12051456587E+03  0.15315372174E+03  0.47000000000E+01 0.  1.
         11    1    4    4    0    0  0.31783311050E+02 -0.24896956472E+02 -0.28603395676E+02  0.49479203177E+02  0.00000000000E+00 0. -1.
        -12    1    4    4    0    0 -0.16260047046E+02 -0.47425869094E+00  0.30792533364E+02  0.34825194360E+02  0.00000000000E+00 0.  1.
</event>
<event>
12    1  0.8135779E-002  0.1811826E+03  0.7818608E-02  0.1167256E+00
         21   -1    0    0  501  502  0.00000000000E+00  0.00000000000E+00  0.74074744911E+03  0.74074744911E+03  0.00000000000E+00 0.  1.
         21   -1    0    0  502  503 -0.00000000000E+00 -0.00000000000E+00 -0.63952322355E+02  0.63952322355E+02  0.00000000000E+00 0.  1.
         -6    2    1    2    0  503 -0.41791536103E+02 -0.24750986078E+02  0.11051029769E+03  0.21013637266E+03  0.17200472498E+03 0.  0.
        -24    2    3    3    0    0 -0.48603899678E+01  0.43159919961E+02  0.23821774386E+02  0.93891842520E+02  0.79760886876E+02 0.  0.
          6    2    1    2  501    0  0.41791536103E+02  0.24750986078E+02  0.56628482907E+03  0.59456339881E+03  0.17455080570E+03 0.  0.
         24    2    5    5    0    0  0.49990301369E+02 -0.42844960457E+02  0.24417687001E+03  0.26530353331E+03  0.80180422004E+02 0.  0.
          5    1    5    5  501    0 -0.81987652660E+01  0.67595946535E+02  0.32210795906E+03  0.32925986550E+03  0.47000000000E+01 0. -1.
        -13    1    6    6    0    0  0.55260989007E+02  0.23435954621E+00  0.17611627139E+03  0.18458269929E+03  0.00000000000E+00 0.  1.
         14    1    6    6    0    0 -0.52706876383E+01 -0.43079320003E+02  0.68060598620E+02  0.80720834019E+02  0.00000000000E+00 0. -1.
         -5    1    3    3    0  503 -0.36931146135E+02 -0.67910906040E+02  0.86688523303E+02  0.11624453014E+03  0.47000000000E+01 0.  1.
         11    1    4    4    0    0 -0.27445937658E+02  0.53658679632E+02  0.12566926968E+01  0.60283602002E+02  0.00000000000E+00 0. -1.
        -12    1    4    4    0    0  0.22585547690E+02 -0.10498759671E+02  0.22565081689E+02  0.33608240518E+02  0.00000000000E+00 0.  1.
</event>
<event>
12    1  0.8135779E-002  0.2374329E+03  0.7818608E-02  0.1122372E+00
         21   -1    0    0  503  502  0.00000000000E+00  0.00000000000E+00  0.38289278606E+03  0.38289278606E+03  0.00000000000E+00 0. -1.
         21   -1    0    0  501  503 -0.00000000000E+00 -0.00000000000E+00 -0.66715175171E+03  0.66715175171E+03  0.00000000000E+00 0.  1.
          6    2    1    2  501    0 -0.79190154224E+02 -0.14020458240E+03 -0.60665601797E+03  0.64965190680E+03  0.16759376604E+03 0.  0.
         24    2    3    3    0    0  0.21441020616E+02 -0.68191138376E+02 -0.24883913949E+03  0.27101279367E+03  0.80107853982E+02 0.  0.
         -6    2    1    2    0  502  0.79190154224E+02  0.14020458240E+03  0.32239705232E+03  0.40039263098E+03  0.17448780515E+03 0.  0.
        -24    2    5    5    0    0 -0.16401954473E+01  0.43234234211E+01  0.11921210028E+03  0.14289806884E+03  0.78657173830E+02 0.  0.
          5    1    3    3  501    0 -0.10063117484E+03 -0.72013444026E+02 -0.35781687847E+03  0.37863911313E+03  0.47000000000E+01 0. -1.
        -11    1    4    4    0    0  0.29324330766E+00 -0.81881306094E+02 -0.19838789247E+03  0.21462150442E+03  0.00000000000E+00 0.  1.
         12    1    4    4    0    0  0.21147777308E+02  0.13690167717E+02 -0.50451247019E+02  0.56391289247E+02  0.00000000000E+00 0. -1.
         -5    1    5    5    0  502  0.80830349671E+02  0.13588115898E+03  0.20318495204E+03  0.25749456214E+03  0.47000000000E+01 0.  1.
         13    1    6    6    0    0  0.21081304111E+02  0.17023042918E+02  0.11291070554E+03  0.11611646222E+03  0.00000000000E+00 0. -1.
        -14    1    6    6    0    0 -0.22721499559E+02 -0.12699619497E+02  0.63013947372E+01  0.26781606621E+02  0.00000000000E+00 0.  1.
</event>
<event>
12    1  0.8135779E-002  0.2565172E+03  0.7818608E-02  0.1109399E+00
         21   -1    0    0  501  502  0.00000000000E+00  0.00000000000E+00  0.64942456376E+03  0.64942456376E+03  0.00000000000E+00 0.  1.
         21   -1    0    0  502  503 -0.00000000000E+00 -0.00000000000E+00 -0.41170730389E+03  0.41170730389E+03  0.00000000000E+00 0. -1.
         -6    2    1    2    0  503 -0.17919658257E+03 -0.62854803341E+02 -0.34214733146E+03  0.42706246876E+03  0.17104214184E+03 0.  0.
        -24    2    3    3    0    0 -0.18899823619E+03 -0.84301082864E+02 -0.33608553816E+03  0.40226628645E+03  0.77702447836E+02 0.  0.
          6    2    1    2  501    0  0.17919658257E+03  0.62854803341E+02  0.57986459133E+03  0.63406939890E+03  0.17244975161E+03 0.  0.
         24    2    5    5    0    0  0.65043224905E+02  0.44095231916E+02  0.14026076962E+03  0.17947450160E+03  0.79768431393E+02 0.  0.
          5    1    5    5  501    0  0.11415335766E+03  0.18759571425E+02  0.43960382170E+03  0.45459489729E+03  0.47000000000E+01 0. -1.
        -13    1    6    6    0    0  0.75758661834E+02  0.31516609556E+02  0.14077496320E+03  0.16294251068E+03  0.00000000000E+00 0.  1.
         14    1    6    6    0    0 -0.10715436929E+02  0.12578622359E+02 -0.51419357739E+00  0.16531990929E+02  0.00000000000E+00 0. -1.
         -5    1    3    3    0  503  0.98016536192E+01  0.21446279523E+02 -0.60617933068E+01  0.24796182310E+02  0.47000000000E+01 0.  1.
         11    1    4    4    0    0 -0.26477875472E+02 -0.45143491727E+02 -0.10165292059E+03  0.11433428619E+03  0.00000000000E+00 0. -1.
        -12    1    4    4    0    0 -0.16252036072E+03 -0.39157591136E+02 -0.23443261757E+03  0.28793200025E+03  0.00000000000E+00 0.  1.
</event>
<event>
12    1  0.8135779E-002  0.2288290E+03  0.7818608E-02  0.1127544E+00
         21   -1    0    0  503  502  0.00000000000E+00  0.00000000000E+00  0.13056883541E+03  0.13056883541E+03  0.00000000000E+00 0. -1.
         21   -1    0    0  501  503 -0.00000000000E+00 -0.00000000000E+00 -0.40848680730E+03  0.40848680730E+03  0.00000000000E+00 0.  1.
          6    2    1    2  501    0 -0.13223889771E+03 -0.70865238690E+02 -0.10059495057E+03  0.24956270534E+03  0.17220102118E+03 0.  0.
         24    2    3    3    0    0 -0.60348801220E+02 -0.36027832984E+02 -0.12400937875E+03  0.16618311398E+03  0.85431368922E+02 0.  0.
         -6    2    1    2    0  502  0.13223889771E+03  0.70865238690E+02 -0.17732302132E+03  0.28949293737E+03  0.17278222933E+03 0.  0.
        -24    2    5    5    0    0  0.47398117159E+02  0.93353854293E+02 -0.68722562925E+02  0.14977949693E+03  0.82155848379E+02 0.  0.
          5    1    3    3  501    0 -0.71890096487E+02 -0.34837405706E+02  0.23414428176E+02  0.83379591364E+02  0.47000000000E+01 0. -1.
        -11    1    4    4    0    0  0.47582670280E+01  0.18572474034E+02 -0.49819387373E+02  0.53381169480E+02  0.00000000000E+00 0.  1.
         12    1    4    4    0    0 -0.65107068248E+02 -0.54600307019E+02 -0.74189991376E+02  0.11280194450E+03  0.00000000000E+00 0. -1.
         -5    1    5    5    0  502  0.84840780548E+02 -0.22488615603E+02 -0.10860045840E+03  0.13971344044E+03  0.47000000000E+01 0.  1.
         13    1    6    6    0    0  0.35899486195E+02  0.29452380600E+02  0.10240071037E+02  0.47550761160E+02  0.00000000000E+00 0. -1.
        -14    1    6    6    0    0  0.11498630964E+02  0.63901473693E+02 -0.78962633961E+02  0.10222873577E+03  0.00000000000E+00 0.  1.
</event>
<event>
12    1  0.8135779E-002  0.1906502E+03  0.7818608E-02  0.1160253E+00
         21   -1    0    0  501  502  0.00000000000E+00  0.00000000000E+00  0.47900327172E+03  0.47900327172E+03  0.00000000000E+00 0.  1.
         21   -1    0    0  502  503 -0.00000000000E+00 -0.00000000000E+00 -0.96287857632E+02  0.96287857632E+02  0.00000000000E+00 0. -1.
         -6    2    1    2    0  503 -0.97859864940E+01 -0.49465604814E+02  0.50431616779E+02  0.19720765930E+03  0.18386109247E+03 0.  0.
        -24    2    3    3    0    0 -0.20706463174E+02 -0.10473470864E+03  0.33483472431E+02  0.13818850779E+03  0.81097496560E+02 0.  0.
          6    2    1    2  501    0  0.97859864940E+01  0.49465604814E+02  0.33228379731E+03  0.37808347005E+03  0.17318191817E+03 0.  0.
         24    2    5    5    0    0 -0.11382987675E+02  0.10556472325E+02  0.32155857536E+03  0.33226680884E+03  0.82221063926E+02 0.  0.
          5    1    5    5  501    0  0.21168974169E+02  0.38909132489E+02  0.10725221946E+02  0.45816661208E+02  0.47000000000E+01 0. -1.
        -13    1    6    6    0    0 -0.96017511312E+01  0.89903190825E-02 -0.88811336706E+00  0.96427408429E+01  0.00000000000E+00 0.  1.
         14    1    6    6    0    0 -0.17812365438E+01  0.10547482006E+02  0.32244668873E+03  0.32262406800E+03  0.00000000000E+00 0. -1.
         -5    1    3    3    0  503  0.10920476680E+02  0.55269103823E+02  0.16948144348E+02  0.59019151512E+02  0.47000000000E+01 0.  1.
         13    1    4    4    0    0 -0.20707913102E+02 -0.46551785391E+02  0.56082996474E+02  0.75770633373E+02  0.00000000000E+00 0. -1.
        -14    1    4    4    0    0  0.14499280041E-02 -0.58182923247E+02 -0.22599524044E+02  0.62417874416E+02  0.00000000000E+00 0.  1.
</event>
<event>
12    1  0.8135779E-002  0.1973128E+03  0.7818608E-02  0.1152201E+00
         21   -1    0    0  501  502  0.00000000000E+00  0.00000000000E+00  0.20146856814E+03  0.20146856814E+03  0.00000000000E+00 0.  1.
         21   -1    0    0  502  503 -0.00000000000E+00 -0.00000000000E+00 -0.19245340636E+03  0.19245340636E+03  0.00000000000E+00 0.  1.
         -6    2    1    2    0  503  0.81016235102E+02 -0.52195358467E+02  0.35148820632E+01  0.19653252892E+03  0.17124454658E+03 0.  0.
        -24    2    3    3    0    0  0.46961226115E+01 -0.71149688492E+02  0.34018430749E+02  0.11205423183E+03  0.79464240386E+02 0.  0.
          6    2    1    2  501    0 -0.81016235102E+02  0.52195358467E+02  0.55002797230E+01  0.19738944558E+03  0.17217535931E+03 0.  0.
         24    2    5    5    0    0 -0.11924942401E+03  0.40426837363E+02  0.27067086848E+02  0.15170036600E+03  0.80159962266E+02 0.  0.
          5    1    5    5  501    0  0.38233188903E+02  0.11768521104E+02 -0.21566807125E+02  0.45689079574E+02  0.47000000000E+01 0. -1.
        -11    1    6    6    0    0 -0.24889428560E+02  0.24064010215E+02  0.42371934744E+02  0.54716917819E+02  0.00000000000E+00 0.  1.
         12    1    6    6    0    0 -0.94359995445E+02  0.16362827148E+02 -0.15304847895E+02  0.96983448185E+02  0.00000000000E+00 0. -1.
         -5    1    3    3    0  503  0.76320112490E+02  0.18954330025E+02 -0.30503548686E+02  0.84478297093E+02  0.47000000000E+01 0.  1.
         11    1    4    4    0    0 -0.28612561033E+02 -0.36606850396E+02  0.42916482711E+02  0.63250016862E+02  0.00000000000E+00 0. -1.
        -12    1    4    4    0    0  0.33308683644E+02 -0.34542838096E+02 -0.88980519620E+01  0.48804214967E+02  0.00000000000E+00 0.  1.
</event>
<event>
12    1  0.8135779E-002  0.1970848E+03  0.7818608E-02  0.1152625E+00
         21   -1    0    0  501  502  0.00000000000E+00  0.00000000000E+00  0.40549780553E+03  0.40549780553E+03  0.00000000000E+00 0.  1.
         21   -1    0    0  502  503 -0.00000000000E+00 -0.00000000000E+00 -0.29531365273E+03  0.29531365273E+03  0.00000000000E+00 0.  1.
         -6    2    1    2    0  503 -0.64974770587E+02 -0.68071188242E+02 -0.23366541656E+03  0.30448466585E+03  0.17104378784E+03 0.  0.
        -24    2    3    3    0    0  0.24966703664E+02 -0.18600756438E+02 -0.72621111837E+02  0.11345024357E+03  0.81411347177E+02 0.  0.
          6    2    1    2  501    0  0.64974770587E+02  0.68071188242E+02  0.34384956936E+03  0.39632679242E+03  0.17316752743E+03 0.  0.
         24    2    5    5    0    0 -0.28856809983E+02  0.53386012694E+02  0.16568121155E+03  0.19437116953E+03  0.81529785039E+02 0.  0.
          5    1    5    5  501    0  0.93831580570E+02  0.14685175549E+02  0.17816835781E+03  0.20195562289E+03  0.47000000000E+01 0. -1.
        -11    1    6    6    0    0 -0.69448550369E+01 -0.21652320024E+02  0.47693600193E+02  0.52836857148E+02  0.00000000000E+00 0.  1.
         12    1    6    6    0    0 -0.21911954946E+02  0.75038332718E+02  0.11798761136E+03  0.14153431238E+03  0.00000000000E+00 0. -1.
         -5    1    3    3    0  503 -0.89941474251E+02 -0.49470431804E+02 -0.16104430472E+03  0.19103442228E+03  0.47000000000E+01 0.  1.
         11    1    4    4    0    0 -0.10795035631E+02  0.30202195800E+01  0.13606775410E+02  0.17629488298E+02  0.00000000000E+00 0. -1.
        -12    1    4    4    0    0  0.35761739294E+02 -0.21620976018E+02 -0.86227887247E+02  0.95820755270E+02  0.00000000000E+00 0.  1.
</event>
<event>
12    1  0.8135779E-002  0.2289293E+03  0.7818608E-02  0.1127464E+00
         21   -1    0    0  503  502  0.00000000000E+00  0.00000000000E+00  0.70533080485E+03  0.70533080485E+03  0.00000000000E+00 0. -1.
         21   -1    0    0  501  503 -0.00000000000E+00 -0.00000000000E+00 -0.76353582052E+02  0.76353582052E+02  0.00000000000E+00 0.  1.
          6    2    1    2  501    0 -0.43564414654E+01 -0.15067204554E+03  0.24826120377E+03  0.33743974650E+03  0.17178740736E+03 0.  0.
         24    2    3    3    0    0  0.41806347908E+02 -0.15764065378E+03  0.20696804909E+03  0.27493551266E+03  0.78456461372E+02 0.  0.
         -6    2    1    2    0  502  0.43564414654E+01  0.15067204554E+03  0.38071601902E+03  0.44424464040E+03  0.17230081107E+03 0.  0.
        -24    2    5    5    0    0 -0.40946154890E+02  0.14647437099E+03  0.23112733491E+03  0.28781954611E+03  0.79302693687E+02 0.  0.
          5    1    3    3  501    0 -0.46162789373E+02  0.69686082375E+01  0.41293154684E+02  0.62504233834E+02  0.47000000000E+01 0. -1.
        -11    1    4    4    0    0  0.28883780180E+02 -0.30657924889E+02  0.15621727566E+02  0.44924597808E+02  0.00000000000E+00 0.  1.
         12    1    4    4    0    0  0.12922567727E+02 -0.12698272889E+03  0.19134632152E+03  0.23001091486E+03  0.00000000000E+00 0. -1.
         -5    1    5    5    0  502  0.45302596355E+02  0.41976745513E+01  0.14958868411E+03  0.15642509429E+03  0.47000000000E+01 0.  1.
         11    1    6    6    0    0  0.11907032537E+02  0.76190778143E+01  0.57919615538E+02  0.59619708441E+02  0.00000000000E+00 0. -1.
        -12    1    6    6    0    0 -0.52853187427E+02  0.13885529318E+03  0.17320771937E+03  0.22819983767E+03  0.00000000000E+00 0.  1.
</event>
<event>
12    1  0.8135779E-002  0.1843889E+03  0.7818608E-02  0.1163858E+00
         21   -1    0    0  501  502  0.00000000000E+00  0.00000000000E+00  0.18448755710E+03  0.18448755710E+03  0.00000000000E+00 0. -1.
         21   -1    0    0  502  503 -0.00000000000E+00 -0.00000000000E+00 -0.25218510765E+03  0.25218510765E+03  0.00000000000E+00 0. -1.
         -6    2    1    2    0  503  0.46790240112E+02  0.46732863754E+02 -0.14803783023E+03  0.23646238693E+03  0.17212197457E+03 0.  0.
        -24    2    3    3    0    0  0.69721858109E+02 -0.25570971570E+02 -0.84708304775E+02  0.13753603806E+03  0.78902805921E+02 0.  0.
          6    2    1    2  501    0 -0.46790240112E+02 -0.46732863754E+02  0.80340279673E+02  0.20021027782E+03  0.17104475345E+03 0.  0.
         24    2    5    5    0    0  0.20882356851E+02  0.22414820009E+02  0.25340528507E+02  0.88818872507E+02  0.79423880191E+02 0.  0.
          5    1    5    5  501    0 -0.67672596963E+02 -0.69147683762E+02  0.54999751166E+02  0.11139140531E+03  0.47000000000E+01 0. -1.
        -13    1    6    6    0    0  0.23362918597E+02 -0.25545563205E+02  0.21449591304E+00  0.34618604439E+02  0.00000000000E+00 0.  1.
         14    1    6    6    0    0 -0.24805617460E+01  0.47960383214E+02  0.25126032594E+02  0.54200268067E+02  0.00000000000E+00 0. -1.
         -5    1    3    3    0  503 -0.22931617997E+02  0.72303835323E+02 -0.63329525456E+02  0.98926348871E+02  0.47000000000E+01 0.  1.
         11    1    4    4    0    0  0.50952209438E+02  0.19812189386E+02 -0.24690433516E+02  0.59985564948E+02  0.00000000000E+00 0. -1.
        -12    1    4    4    0    0  0.18769648671E+02 -0.45383160955E+02 -0.60017871259E+02  0.77550473112E+02  0.00000000000E+00 0.  1.
</event>
<event>
12    1  0.8135779E-002  0.2026387E+03  0.7818608E-02  0.1147744E+00
         21   -1    0    0  503  502  0.00000000000E+00  0.00000000000E+00  0.53070306493E+03  0.53070306493E+03  0.00000000000E+00 0.  1.
         21   -1    0    0  501  503 -0.00000000000E+00 -0.00000000000E+00 -0.68678840559E+03  0.68678840559E+03  0.00000000000E+00 0.  1.
          6    2    1    2  501    0 -0.10232574093E+03  0.33242077964E+02 -0.65163415246E+03  0.68211208375E+03  0.17051168038E+03 0.  0.
         24    2    3    3    0    0 -0.14823209158E+02 -0.10438679310E+02 -0.45505140372E+03  0.46249521572E+03  0.80630955476E+02 0.  0.
         -6    2    1    2    0  502  0.10232574093E+03 -0.33242077964E+02  0.49554881179E+03  0.53537938676E+03  0.17171741291E+03 0.  0.
        -24    2    5    5    0    0  0.11681049099E+03 -0.33782933889E+02  0.49900215351E+03  0.51975517228E+03  0.79726485447E+02 0.  0.
          5    1    3    3  501    0 -0.87502531774E+02  0.43680757274E+02 -0.19658274874E+03  0.21961686803E+03  0.47000000000E+01 0. -1.
        -11    1    4    4    0    0 -0.45010156479E+02 -0.19041346156E+02 -0.22038630523E+03  0.22574013950E+03  0.00000000000E+00 0.  1.
         12    1    4    4    0    0  0.30186947321E+02  0.86026668463E+01 -0.23466509850E+03  0.23675507622E+03  0.00000000000E+00 0. -1.
         -5    1    5    5    0  502 -0.14484750055E+02  0.54085592437E+00 -0.34533417104E+01  0.15624214484E+02  0.47000000000E+01 0.  1.
         13    1    6    6    0    0  0.55435614615E+02 -0.57076708028E+01  0.94879298409E+02  0.11003529498E+03  0.00000000000E+00 0. -1.
        -14    1    6    6    0    0  0.61374876371E+02 -0.28075263086E+02  0.40412285510E+03  0.40971987730E+03  0.00000000000E+00 0.  1.
</event>
<event>
12    1  0.8135779E-002  0.2469395E+03  0.7818608E-02  0.1115435E+00
         21   -1    0    0  501  502  0.00000000000E+00  0.00000000000E+00  0.28311233527E+03  0.28311233527E+03  0.00000000000E+00 0. -1.
         21   -1    0    0  502  503 -0.00000000000E+00 -0.00000000000E+00 -0.29542356710E+03  0.29542356710E+03  0.00000000000E+00 0. -1.
         -6    2    1    2    0  503 -0.17442289605E+03  0.25146962682E+02 -0.15764393919E+03  0.29296881857E+03  0.17298381627E+03 0.  0.
        -24    2    3    3    0    0 -0.52763181997E+02 -0.40948737286E+02 -0.36934443542E+02  0.10922279843E+03  0.78132669976E+02 0.  0.
          6    2    1    2  501    0  0.17442289605E+03 -0.25146962682E+02  0.14533270735E+03  0.28556708380E+03  0.17138041639E+03 0.  0.
         24    2    5    5    0    0  0.16219589648E+03  0.34008297748E+02  0.11924889713E+03  0.21960270317E+03  0.80876292110E+02 0.  0.
          5    1    5    5  501    0  0.12226999575E+02 -0.59155260430E+02  0.26083810227E+02  0.65964380624E+02  0.47000000000E+01 0. -1.
        -11    1    6    6    0    0  0.14995813894E+02  0.11127648383E+02 -0.11043716221E+02  0.21694761138E+02  0.00000000000E+00 0.  1.
         12    1    6    6    0    0  0.14720008258E+03  0.22880649366E+02  0.13029261335E+03  0.19790794204E+03  0.00000000000E+00 0. -1.
         -5    1    3    3    0  503 -0.12165971405E+03  0.66095699967E+02 -0.12070949564E+03  0.18374602014E+03  0.47000000000E+01 0.  1.
         11    1    4    4    0    0 -0.30644066466E+02  0.85065249208E+00 -0.51331472004E+02  0.59788815319E+02  0.00000000000E+00 0. -1.
        -12    1    4    4    0    0 -0.22119115532E+02 -0.41799389778E+02  0.14397028462E+02  0.49433983111E+02  0.00000000000E+00 0.  1.
</event>
<event>
12    1  0.8135779E-002  0.1856751E+03  0.7818608E-02  0.1162786E+00
         21   -1    0    0  501  502  0.00000000000E+00  0.00000000000E+00  0.16455961226E+03  0.16455961226E+03  0.00000000000E+00 0. -1.
         21   -1    0    0  502  503 -0.00000000000E+00 -0.00000000000E+00 -0.23862408015E+03  0.23862408015E+03  0.00000000000E+00 0. -1.
         -6    2    1    2    0  503 -0.28825631880E+02  0.61314612715E+02 -0.10969628164E+03  0.21565834842E+03  0.17287235248E+03 0.  0.
        -24    2    3    3    0    0 -0.32688860614E+01 -0.33779366736E+02 -0.53275212286E+02  0.10207384573E+03  0.80181609515E+02 0.  0.
          6    2    1    2  501    0  0.28825631880E+02 -0.61314612715E+02  0.35631813750E+02  0.18752534399E+03  0.17118916350E+03 0.  0.
         24    2    5    5    0    0 -0.42685417326E+02 -0.53012746117E+02 -0.31313594045E+01  0.10562647500E+03  0.80714005642E+02 0.  0.
          5    1    5    5  501    0  0.71511049206E+02 -0.83018665973E+01  0.38763173154E+02  0.81898868982E+02  0.47000000000E+01 0. -1.
        -13    1    6    6    0    0 -0.55611009667E+01  0.12393836223E+01 -0.32951866013E+02  0.33440804259E+02  0.00000000000E+00 0.  1.
         14    1    6    6    0    0 -0.37124316359E+02 -0.54252129740E+02  0.29820506609E+02  0.72185670745E+02  0.00000000000E+00 0. -1.
         -5    1    3    3    0  503 -0.25556745818E+02  0.95093979451E+02 -0.56421069358E+02  0.11358450269E+03  0.47000000000E+01 0.  1.
         13    1    4    4    0    0 -0.64468489439E-01  0.23991708317E+02 -0.32926252308E+02  0.40739959686E+02  0.00000000000E+00 0. -1.
        -14    1    4    4    0    0 -0.32044175720E+01 -0.57771075054E+02 -0.20348959979E+02  0.61333886042E+02  0.00000000000E+00 0.  1.
</event>
<event>
12    1  0.8135779E-002  0.1798461E+03  0.7818608E-02  0.1167993E+00
         21   -1    0    0  501  502  0.00000000000E+00  0.00000000000E+00  0.48645548664E+03  0.48645548664E+03  0.00000000000E+00 0. -1.
         21   -1    0    0  502  503 -0.00000000000E+00 -0.00000000000E+00 -0.66783448355E+02  0.66783448355E+02  0.00000000000E+00 0. -1.
         -6    2    1    2    0  503  0.51736215960E+02  0.83621517283E+01  0.22992045665E+03  0.29180006520E+03  0.17186419069E+03 0.  0.
        -24    2    3    3    0    0  0.94825020980E+01 -0.50540147527E+02  0.85225613233E+02  0.12989408969E+03  0.83455647075E+02 0.  0.
          6    2    1    2  501    0 -0.51736215960E+02 -0.83621517283E+01  0.18975158163E+03  0.26143886979E+03  0.17204086225E+03 0.  0.
         24    2    5    5    0    0 -0.27101170469E+02 -0.53483746524E+02  0.18421748791E+03  0.20952008729E+03  0.79797240196E+02 0.  0.
          5    1    5    5  501    0 -0.24635045491E+02  0.45121594796E+02  0.55340937215E+01  0.51918782503E+02  0.47000000000E+01 0. -1.
        -11    1    6    6    0    0 -0.53734825588E+02 -0.36957495230E+02  0.97402980728E+02  0.11722042735E+03  0.00000000000E+00 0.  1.
         12    1    6    6    0    0  0.26633655118E+02 -0.16526251294E+02  0.86814507180E+02  0.92299659933E+02  0.00000000000E+00 0. -1.
         -5    1    3    3    0  503  0.42253713862E+02  0.58902299255E+02  0.14469484342E+03  0.16190597551E+03  0.47000000000E+01 0.  1.
         11    1    4    4    0    0  0.25364625721E+00 -0.13338129762E+02  0.90255254619E+02  0.91235853853E+02  0.00000000000E+00 0. -1.
        -12    1    4    4    0    0  0.92288558408E+01 -0.37202017765E+02 -0.50296413864E+01  0.38658235841E+02  0.00000000000E+00 0.  1.
</event>
<event>
12    1  0.8135779E-002  0.3050466E+03  0.7818608E-02  0.1083151E+00
         21   -1    0    0  501  502  0.00000000000E+00  0.00000000000E+00  0.49916959035E+03  0.49916959035E+03  0.00000000000E+00 0.  1.
         21   -1    0    0  502  503 -0.00000000000E+00 -0.00000000000E+00 -0.23721810248E+03  0.23721810248E+03  0.00000000000E+00 0. -1.
         -6    2    1    2    0  503 -0.22890708860E+03 -0.92648162686E+02 -0.43305422484E+02  0.30483790417E+03  0.17340314571E+03 0.  0.
        -24    2    3    3    0    0 -0.21102727419E+03 -0.61526872451E+02 -0.83452239286E+02  0.25078164303E+03  0.87230096583E+02 0.  0.
          6    2    1    2  501    0  0.22890708860E+03  0.92648162686E+02  0.30525691035E+03  0.43154978867E+03  0.17908462112E+03 0.  0.
         24    2    5    5    0    0  0.16039582268E+03 -0.12557263437E+02  0.16970400631E+03  0.24672918636E+03  0.78685048423E+02 0.  0.
          5    1    5    5  501    0  0.68511265921E+02  0.10520542612E+03  0.13555290404E+03  0.18482060231E+03  0.47000000000E+01 0. -1.
        -11    1    6    6    0    0  0.29616519070E+02 -0.34250930358E+02  0.31076308853E+02  0.54918133654E+02  0.00000000000E+00 0.  1.
         12    1    6    6    0    0  0.13077930361E+03  0.21693666920E+02  0.13862769746E+03  0.19181105271E+03  0.00000000000E+00 0. -1.
         -5    1    3    3    0  503 -0.17879814404E+02 -0.31121290236E+02  0.40146816802E+02  0.54056261140E+02  0.47000000000E+01 0.  1.
         13    1    4    4    0    0  0.84888704229E+01 -0.33102043727E+01 -0.97206749557E+00  0.91631484361E+01  0.00000000000E+00 0. -1.
        -14    1    4    4    0    0 -0.21951614462E+03 -0.58216668078E+02 -0.82480171791E+02  0.24161849459E+03  0.00000000000E+00 0.  1.
</event>
<event>
12    1  0.8135779E-002  0.1951531E+03  0.7818608E-02  0.1155142E+00
         21   -1    0    0  503  502  0.00000000000E+00  0.00000000000E+00  0.66181195569E+02  0.66181195569E+02  0.00000000000E+00 0. -1.
         21   -1    0    0  501  503 -0.00000000000E+00 -0.00000000000E+00 -0.11031275558E+04  0.11031275558E+04  0.00000000000E+00 0.  1.
          6    2    1    2  501    0  0.24192145662E+02  0.95860813772E+02 -0.92523534519E+03  0.94444415268E+03  0.16167794539E+03 0.  0.
         24    2    3    3    0    0  0.49225777063E+02  0.11350700233E+03 -0.85603746317E+03  0.86862523982E+03  0.80016574547E+02 0.  0.
         -6    2    1    2    0  502 -0.24192145662E+02 -0.95860813772E+02 -0.11171101504E+03  0.22486459868E+03  0.16825629656E+03 0.  0.
        -24    2    5    5    0    0 -0.24036958089E+02 -0.12474595540E+03 -0.53037032033E+02  0.15929706272E+03  0.80145484485E+02 0.  0.
          5    1    3    3  501    0 -0.25033631401E+02 -0.17646188556E+02 -0.69197882021E+02  0.75818912864E+02  0.47000000000E+01 0. -1.
        -11    1    4    4    0    0  0.61022455727E+02  0.55289107398E+02 -0.60925227724E+03  0.61479180445E+03  0.00000000000E+00 0.  1.
         12    1    4    4    0    0 -0.11796678665E+02  0.58217894929E+02 -0.24678518593E+03  0.25383343537E+03  0.00000000000E+00 0. -1.
         -5    1    5    5    0  502 -0.15518757310E+00  0.28885141625E+02 -0.58673983007E+02  0.65567535960E+02  0.47000000000E+01 0.  1.
         11    1    6    6    0    0  0.24716400357E+02 -0.69509744583E+02 -0.11335150994E+02  0.74639069439E+02  0.00000000000E+00 0. -1.
        -12    1    6    6    0    0 -0.48753358446E+02 -0.55236210813E+02 -0.41701881039E+02  0.84657993285E+02  0.00000000000E+00 0.  1.
</event>
<event>
12    1  0.8135779E-002  0.2225413E+03  0.7818608E-02  0.1133118E+00
         21   -1    0    0  501  502  0.00000000000E+00  0.00000000000E+00  0.66003203789E+03  0.66003203789E+03  0.00000000000E+00 0. -1.
         21   -1    0    0  502  503 -0.00000000000E+00 -0.00000000000E+00 -0.73756206306E+02  0.73756206306E+02  0.00000000000E+00 0.  1.
         -6    2    1    2    0  503 -0.11839469557E+03 -0.57922625883E+02  0.25273613392E+03  0.33282273513E+03  0.17182283056E+03 0.  0.
        -24    2    3    3    0    0 -0.10398988483E+02 -0.17100320536E+01  0.16128395339E+03  0.18047930804E+03  0.80306935186E+02 0.  0.
          6    2    1    2  501    0  0.11839469557E+03  0.57922625883E+02  0.33353969766E+03  0.40096550906E+03  0.17931055467E+03 0.  0.
         24    2    5    5    0    0  0.11922485046E+03 -0.17199373784E+02  0.24616305300E+03  0.28563653602E+03  0.80508376089E+02 0.  0.
          5    1    5    5  501    0 -0.83015489799E+00  0.75121999667E+02  0.87376644657E+02  0.11532897304E+03  0.47000000000E+01 0. -1.
        -13    1    6    6    0    0 -0.91406713665E+01 -0.10684023058E+02  0.42898899500E+02  0.45144388356E+02  0.00000000000E+00 0.  1.
         14    1    6    6    0    0  0.12836552183E+03 -0.65153507252E+01  0.20326415350E+03  0.24049214767E+03  0.00000000000E+00 0. -1.
         -5    1    3    3    0  503 -0.10799570708E+03 -0.56212593829E+02  0.91452180534E+02  0.15234342709E+03  0.47000000000E+01 0.  1.
         11    1    4    4    0    0  0.19604159913E+02 -0.31876230881E+02  0.89901015738E+02  0.97378692802E+02  0.00000000000E+00 0. -1.
        -12    1    4    4    0    0 -0.30003148396E+02  0.30166198828E+02  0.71382937650E+02  0.83100615238E+02  0.00000000000E+00 0.  1.
</event>
<event>
12    1  0.8135779E-002  0.2134979E+03  0.7818608E-02  0.1138985E+00
         21   -1    0    0  501  502  0.00000000000E+00  0.00000000000E+00  0.47553118930E+03  0.47553118930E+03  0.00000000000E+00 0.  1.
         21   -1    0    0  502  503 -0.00000000000E+00 -0.00000000000E+00 -0.20799732085E+03  0.20799732085E+03  0.00000000000E+00 0.  1.
         -6    2    1    2    0  503  0.84694401330E+02 -0.93153383113E+02 -0.11771128553E+03  0.24307965688E+03  0.17140909674E+03 0.  0.
        -24    2    3    3    0    0  0.90385765655E+02 -0.99224164979E+02 -0.36319145631E+02  0.16112835147E+03  0.81414026797E+02 0.  0.
          6    2    1    2  501    0 -0.84694401330E+02  0.93153383113E+02  0.38524515398E+03  0.44044885327E+03  0.17242583705E+03 0.  0.
         24    2    5    5    0    0 -0.12394353091E+03  0.60686386767E+02  0.26387457387E+03  0.30873891538E+03  0.81517425982E+02 0.  0.
          5    1    5    5  501    0  0.39249129580E+02  0.32466996347E+02  0.12137058011E+03  0.13170993790E+03  0.47000000000E+01 0. -1.
        -11    1    6    6    0    0 -0.52557530856E+02  0.32935772172E+02  0.19875224658E+03  0.20820546260E+03  0.00000000000E+00 0.  1.
         12    1    6    6    0    0 -0.71386000054E+02  0.27750614595E+02  0.65122327291E+02  0.10053345277E+03  0.00000000000E+00 0. -1.
         -5    1    3    3    0  503 -0.56913643251E+01  0.60707818654E+01 -0.81392139901E+02  0.81951305408E+02  0.47000000000E+01 0.  1.
         13    1    4    4    0    0  0.48589004681E+02 -0.10310748286E+03 -0.34591755904E+02  0.11911605255E+03  0.00000000000E+00 0. -1.
        -14    1    4    4    0    0  0.41796760974E+02  0.38833178804E+01 -0.17273897274E+01  0.42012298925E+02  0.00000000000E+00 0.  1.
</event>
<event>
12    1  0.8135779E-002  0.1762270E+03  0.7818608E-02  0.1171595E+00
         21   -1    0    0  501  502  0.00000000000E+00  0.00000000000E+00  0.97772190781E+03  0.97772190781E+03  0.00000000000E+00 0. -1.
         21   -1    0    0  502  503 -0.00000000000E+00 -0.00000000000E+00 -0.39562251497E+02  0.39562251497E+02  0.00000000000E+00 0. -1.
         -6    2    1    2    0  503  0.28024306628E+02  0.21510635197E+02  0.24269774077E+03  0.29993025571E+03  0.17264963286E+03 0.  0.
        -24    2    3    3    0    0  0.77193036589E+02 -0.13544532952E+02  0.12400418475E+03  0.16667606606E+03  0.79130612850E+02 0.  0.
          6    2    1    2  501    0 -0.28024306628E+02 -0.21510635197E+02  0.69546191554E+03  0.71735390359E+03  0.17228255235E+03 0.  0.
         24    2    5    5    0    0  0.34204609973E+02 -0.53588759893E+02  0.33085669827E+03  0.34605820121E+03  0.79046905728E+02 0.  0.
          5    1    5    5  501    0 -0.62228916601E+02  0.32078124697E+02  0.36460521727E+03  0.37129570238E+03  0.47000000000E+01 0. -1.
        -11    1    6    6    0    0  0.24240147489E+02  0.16311685835E+02  0.12708796621E+03  0.13040324766E+03  0.00000000000E+00 0.  1.
         12    1    6    6    0    0  0.99644624844E+01 -0.69900445728E+02  0.20376873206E+03  0.21565495355E+03  0.00000000000E+00 0. -1.
         -5    1    3    3    0  503 -0.49168729960E+02  0.35055168149E+02  0.11869355602E+03  0.13325418965E+03  0.47000000000E+01 0.  1.
         11    1    4    4    0    0  0.11990523324E+02  0.30366011991E+02  0.39893296890E+02  0.51549417752E+02  0.00000000000E+00 0. -1.
        -12    1    4    4    0    0  0.65202513265E+02 -0.43910544943E+02  0.84110887859E+02  0.11512664830E+03  0.00000000000E+00 0.  1.
</event>
<event>
12    1  0.8135779E-002  0.2029716E+03  0.7818608E-02  0.1147455E+00
         21   -1    0    0  503  502  0.00000000000E+00  0.00000000000E+00  0.12268153063E+03  0.12268153063E+03  0.00000000000E+00 0. -1.
         21   -1    0    0  501  503 -0.00000000000E+00 -0.00000000000E+00 -0.70172730681E+03  0.70172730681E+03  0.00000000000E+00 0. -1.
          6    2    1    2  501    0  0.29331849341E+02  0.10143449239E+03 -0.58815524678E+03  0.62219294066E+03  0.17334401477E+03 0.  0.
         24    2    3    3    0    0  0.86824809144E+02  0.71491534436E+02 -0.41849866242E+03  0.44051336620E+03  0.79128429629E+02 0.  0.
         -6    2    1    2    0  502 -0.29331849341E+02 -0.10143449239E+03  0.91094705963E+01  0.20221589678E+03  0.17221780634E+03 0.  0.
        -24    2    5    5    0    0 -0.29733901562E+02 -0.42858040677E+02 -0.59519722085E+02  0.11186425911E+03  0.79057565074E+02 0.  0.
          5    1    3    3  501    0 -0.57492959804E+02  0.29942957958E+02 -0.16965658437E+03  0.18167957446E+03  0.47000000000E+01 0. -1.
        -11    1    4    4    0    0 -0.99126661952E+01 -0.75770305085E+01 -0.33411161397E+02  0.35664801252E+02  0.00000000000E+00 0.  1.
         12    1    4    4    0    0  0.96737475340E+02  0.79068564945E+02 -0.38508750102E+03  0.40484856495E+03  0.00000000000E+00 0. -1.
         -5    1    5    5    0  502  0.40205222152E+00 -0.58576451717E+02  0.68629192682E+02  0.90351637671E+02  0.47000000000E+01 0.  1.
         11    1    6    6    0    0 -0.46209129032E+02 -0.47082125837E+01 -0.51840761034E+02  0.69605426342E+02  0.00000000000E+00 0. -1.
        -12    1    6    6    0    0  0.16475227470E+02 -0.38149828093E+02 -0.76789610513E+01  0.42258832764E+02  0.00000000000E+00 0.  1.
</event>
<event>
12    1  0.8135779E-002  0.2431462E+03  0.7818608E-02  0.1117974E+00
         21   -1    0    0  501  502  0.00000000000E+00  0.00000000000E+00  0.27293449843E+03  0.27293449843E+03  0.00000000000E+00 0.  1.
         21   -1    0    0  502  503 -0.00000000000E+00 -0.00000000000E+00 -0.21552247959E+03  0.21552247959E+03  0.00000000000E+00 0. -1.
         -6    2    1    2    0  503  0.48865575402E+02 -0.16541584233E+03  0.38163103574E+02  0.24612296349E+03  0.17137632663E+03 0.  0.
        -24    2    3    3    0    0 -0.93894951554E+01 -0.13236349861E+03  0.71700206257E+02  0.17107006263E+03  0.80720433397E+02 0.  0.
          6    2    1    2  501    0 -0.48865575402E+02  0.16541584233E+03  0.19248915259E+02  0.24233401453E+03  0.16913015256E+03 0.  0.
         24    2    5    5    0    0  0.15092876915E+02  0.72361583381E+02  0.55891530456E+02  0.12352934298E+03  0.81680118258E+02 0.  0.
          5    1    5    5  501    0 -0.63958452317E+02  0.93054258950E+02 -0.36642615197E+02  0.11880467154E+03  0.47000000000E+01 0. -1.
        -13    1    6    6    0    0 -0.89956881785E+00  0.54281762045E+02 -0.83271346713E+01  0.54924130277E+02  0.00000000000E+00 0.  1.
         14    1    6    6    0    0  0.15992445732E+02  0.18079821335E+02  0.64218665127E+02  0.68605212708E+02  0.00000000000E+00 0. -1.
         -5    1    3    3    0  503  0.58255070558E+02 -0.33052343721E+02 -0.33537102683E+02  0.75052900860E+02  0.47000000000E+01 0.  1.
         11    1    4    4    0    0  0.31041385120E+02 -0.71853446053E+02  0.17171606786E+02  0.80133322528E+02  0.00000000000E+00 0. -1.
        -12    1    4    4    0    0 -0.40430880275E+02 -0.60510052557E+02  0.54528599471E+02  0.90936740103E+02  0.00000000000E+00 0.  1.
</event>
<event>
12    1  0.8135779E-002  0.1999392E+03  0.7818608E-02  0.1150521E+00
         21   -1    0    0  503  502  0.00000000000E+00  0.00000000000E+00  0.29359830032E+03  0.29359830032E+03  0.00000000000E+00 0. -1.
         21   -1    0    0  501  503 -0.00000000000E+00 -0.00000000000E+00 -0.13936316983E+03  0.13936316983E+03  0.00000000000E+00 0. -1.
          6    2    1    2  501    0 -0.23133826048E+02  0.97977907822E+02  0.34625833583E+02  0.20291530982E+03  0.17274498626E+03 0.  0.
         24    2    3    3    0    0  0.44495511979E+02  0.68854158834E+02  0.54102093907E+02  0.12660453186E+03  0.79880693200E+02 0.  0.
         -6    2    1    2    0  502  0.23133826048E+02 -0.97977907822E+02  0.11960929691E+03  0.23004616033E+03  0.16876020754E+03 0.  0.
        -24    2    5    5    0    0 -0.19320576296E+02 -0.16874003779E+01  0.22923994213E+02  0.87062329572E+02  0.81720301831E+02 0.  0.
          5    1    3    3  501    0 -0.67629338027E+02  0.29123748988E+02 -0.19476260324E+02  0.76310777963E+02  0.47000000000E+01 0. -1.
        -11    1    4    4    0    0  0.24736489997E+02  0.58750107163E+01 -0.16219863156E+02  0.30157812406E+02  0.00000000000E+00 0.  1.
         12    1    4    4    0    0  0.19759021982E+02  0.62979148118E+02  0.70321957063E+02  0.96446719449E+02  0.00000000000E+00 0. -1.
         -5    1    5    5    0  502  0.42454402344E+02 -0.96290507444E+02  0.96685302692E+02  0.14298383076E+03  0.47000000000E+01 0.  1.
         11    1    6    6    0    0  0.19862537587E+02 -0.26200052442E+02 -0.47079442038E+01  0.33213369085E+02  0.00000000000E+00 0. -1.
        -12    1    6    6    0    0 -0.39183113883E+02  0.24512652064E+02  0.27631938417E+02  0.53848960487E+02  0.00000000000E+00 0.  1.
</event>
<event>
12    1  0.8135779E-002  0.2201726E+03  0.7818608E-02  0.1133880E+00
         21   -1    0    0  501  502  0.00000000000E+00  0.00000000000E+00  0.86037429654E+03  0.86037429654E+03  0.00000000000E+00 0.  1.
         21   -1    0    0  502  503 -0.00000000000E+00 -0.00000000000E+00 -0.56604295657E+02  0.56604295657E+02  0.00000000000E+00 0. -1.
         -6    2    1    2    0  503  0.10357511227E+03 -0.90990516742E+02  0.44141697926E+03  0.49297898667E+03  0.17079886912E+03 0.  0.
        -24    2    3    3    0    0  0.51417723434E+02 -0.12214306423E+03  0.35489295459E+03  0.38715190473E+03  0.79842831209E+02 0.  0.
          6    2    1    2  501    0 -0.10357511227E+03  0.90990516742E+02  0.36235302162E+03  0.42399960553E+03  0.17166500865E+03 0.  0.
         24    2    5    5    0    0 -0.23655256205E+02  0.56179879256E+02  0.76256162127E+02  0.12488011956E+03  0.77873564320E+02 0.  0.
          5    1    5    5  501    0 -0.79919856069E+02  0.34810637487E+02  0.28609685949E+03  0.29911948597E+03  0.47000000000E+01 0. -1.
        -11    1    6    6    0    0 -0.82774854442E+01 -0.88468055970E+01  0.52629251734E+02  0.54005748514E+02  0.00000000000E+00 0.  1.
         12    1    6    6    0    0 -0.15377770761E+02  0.65026684853E+02  0.23626910393E+02  0.70874371046E+02  0.00000000000E+00 0. -1.
         -5    1    3    3    0  503  0.52157388841E+02  0.31152547484E+02  0.86524024670E+02  0.10582708193E+03  0.47000000000E+01 0.  1.
         13    1    4    4    0    0  0.39787022481E+02 -0.66014172879E+02  0.10201722391E+03  0.12786083119E+03  0.00000000000E+00 0. -1.
        -14    1    4    4    0    0  0.11630700952E+02 -0.56128891348E+02  0.25287573069E+03  0.25929107354E+03  0.00000000000E+00 0.  1.
</event>
<event>
12    1  0.8135779E-002  0.2624906E+03  0.7818608E-02  0.1105656E+00
         21   -1    0    0  501  502  0.00000000000E+00  0.00000000000E+00  0.72042340733E+03  0.72042340733E+03  0.00000000000E+00 0. -1.
         21   -1    0    0  502  503 -0.00000000000E+00 -0.00000000000E+00 -0.10663049843E+03  0.10663049843E+03  0.00000000000E+00 0. -1.
         -6    2    1    2    0  503 -0.19836694253E+03 -0.79652129428E+01  0.43966690609E+03  0.51206281415E+03  0.17172201029E+03 0.  0.
        -24    2    3    3    0    0 -0.40789728838E+02 -0.26320507866E+02  0.11174878502E+03  0.14775541750E+03  0.83590079164E+02 0.  0.
          6    2    1    2  501    0  0.19836694253E+03  0.79652129428E+01  0.17412600281E+03  0.31499109161E+03  0.17171672730E+03 0.  0.
         24    2    5    5    0    0  0.16050132393E+03  0.67322665260E+02  0.11866466900E+03  0.22524053860E+03  0.79743214887E+02 0.  0.
          5    1    5    5  501    0  0.37865618603E+02 -0.59357452317E+02  0.55461333810E+02  0.89750553010E+02  0.47000000000E+01 0. -1.
        -11    1    6    6    0    0  0.37765583319E+02  0.67424705334E+01 -0.75026200450E+01  0.39089506263E+02  0.00000000000E+00 0.  1.
         12    1    6    6    0    0  0.12273574061E+03  0.60580194726E+02  0.12616728905E+03  0.18615103234E+03  0.00000000000E+00 0. -1.
         -5    1    3    3    0  503 -0.15757721369E+03  0.18355294923E+02  0.32791812107E+03  0.36430739665E+03  0.47000000000E+01 0.  1.
         11    1    4    4    0    0 -0.32115315968E+02  0.23759985203E+02  0.24740403446E+02  0.46989551809E+02  0.00000000000E+00 0. -1.
        -12    1    4    4    0    0 -0.86744128702E+01 -0.50080493069E+02  0.87008381575E+02  0.10076586569E+03  0.00000000000E+00 0.  1.
</event>
<event>
12    1  0.8135779E-002  0.1762873E+03  0.7818608E-02  0.1172035E+00
         21   -1    0    0  501  502  0.00000000000E+00  0.00000000000E+00  0.19212866466E+03  0.19212866466E+03  0.00000000000E+00 0.  1.
         21   -1    0    0  502  503 -0.00000000000E+00 -0.00000000000E+00 -0.31779805583E+03  0.31779805583E+03  0.00000000000E+00 0.  1.
         -6    2    1    2    0  503 -0.10014508952E+02 -0.29636961150E+02 -0.24251012935E+03  0.29843449150E+03  0.17109454412E+03 0.  0.
        -24    2    3    3    0    0 -0.43400773590E+02 -0.67867266659E+02 -0.21278095546E+03  0.23942506255E+03  0.74558919892E+02 0.  0.
          6    2    1    2  501    0  0.10014508952E+02  0.29636961150E+02  0.11684073817E+03  0.21149222899E+03  0.17348937999E+03 0.  0.
         24    2    5    5    0    0  0.72745476142E+02  0.20694957919E+02  0.95043038730E+02  0.14431810177E+03  0.77938114592E+02 0.  0.
          5    1    5    5  501    0 -0.62730967189E+02  0.89420032304E+01  0.21797699440E+02  0.67174127215E+02  0.47000000000E+01 0. -1.
        -13    1    6    6    0    0  0.21662195366E+02  0.36070178683E+02  0.77457374849E+02  0.88147339250E+02  0.00000000000E+00 0.  1.
         14    1    6    6    0    0  0.51083280776E+02 -0.15375220764E+02  0.17585663880E+02  0.56170762524E+02  0.00000000000E+00 0. -1.
         -5    1    3    3    0  503  0.33386264638E+02  0.38230305509E+02 -0.29729173884E+02  0.59009428955E+02  0.47000000000E+01 0.  1.
         13    1    4    4    0    0 -0.84439609809E+01 -0.54521463529E+02 -0.57453328192E+02  0.79654098342E+02  0.00000000000E+00 0. -1.
        -14    1    4    4    0    0 -0.34956812609E+02 -0.13345803130E+02 -0.15532762727E+03  0.15977096420E+03  0.00000000000E+00 0.  1.
</event>
<event>
12    1  0.8135779E-002  0.2063329E+03  0.7818608E-02  0.1145161E+00
         21   -1    0    0  503  502  0.00000000000E+00  0.00000000000E+00  0.83889051817E+03  0.83889051817E+03  0.00000000000E+00 0.  1.
         21   -1    0    0  501  503 -0.00000000000E+00 -0.00000000000E+00 -0.88642338209E+02  0.88642338209E+02  0.00000000000E+00 0.  1.
          6    2    1    2  501    0 -0.11266415571E+03 -0.15680122567E+02  0.70433120835E+02  0.21802313787E+03  0.17214582746E+03 0.  0.
         24    2    3    3    0    0 -0.49384183801E+02 -0.58048791664E+02  0.82442031155E+02  0.14078478669E+03  0.84942379523E+02 0.  0.
         -6    2    1    2    0  502  0.11266415571E+03  0.15680122567E+02  0.67981505913E+03  0.70950971851E+03  0.16827491737E+03 0.  0.
        -24    2    5    5    0    0  0.21078419087E+01  0.24839854143E+02  0.19082107440E+03  0.20806799078E+03  0.79108438248E+02 0.  0.
          5    1    3    3  501    0 -0.63279971912E+02  0.42368669097E+02 -0.12008910320E+02  0.77238351182E+02  0.47000000000E+01 0. -1.
        -13    1    4    4    0    0 -0.66947225211E+02 -0.17772144969E+02  0.41617238958E+02  0.80807021222E+02  0.00000000000E+00 0.  1.
         14    1    4    4    0    0  0.17563041410E+02 -0.40276646696E+02  0.40824792198E+02  0.59977765469E+02  0.00000000000E+00 0. -1.
         -5    1    5    5    0  502  0.11055631380E+03 -0.91597315757E+01  0.48899398473E+03  0.50144172773E+03  0.47000000000E+01 0.  1.
         11    1    6    6    0    0  0.32383131437E+02  0.29156617298E+02  0.62747388447E+02  0.76393784373E+02  0.00000000000E+00 0. -1.
        -12    1    6    6    0    0 -0.30275289528E+02 -0.43167631545E+01  0.12807368595E+03  0.13167420641E+03  0.00000000000E+00 0.  1.
</event>
<event>
12    1  0.8135779E-002  0.1905604E+03  0.7818608E-02  0.1158010E+00
         21   -1    0    0  501  502  0.00000000000E+00  0.00000000000E+00  0.25468928695E+04  0.25468928695E+04  0.00000000000E+00 0.  1.
         21   -1    0    0  502  503 -0.00000000000E+00 -0.00000000000E+00 -0.18892331121E+02  0.18892331121E+02  0.00000000000E+00 0.  1.
         -6    2    1    2    0  503 -0.74993103080E+02 -0.32953003347E+02  0.62681241679E+03  0.65507079504E+03  0.17179660864E+03 0.  0.
        -24    2    3    3    0    0  0.20040258960E+02  0.79519564975E+01  0.33964222326E+03  0.34979491049E+03  0.80838072657E+02 0.  0.
          6    2    1    2  501    0  0.74993103080E+02  0.32953003347E+02  0.19011881216E+04  0.19107144055E+04  0.17205638628E+03 0.  0.
         24    2    5    5    0    0  0.59652214930E+02 -0.44589498160E+02  0.91637923530E+03  0.92272715116E+03  0.78280792598E+02 0.  0.
          5    1    5    5  501    0  0.15340888151E+02  0.77542501508E+02  0.98480888626E+03  0.98798725439E+03  0.47000000000E+01 0. -1.
        -11    1    6    6    0    0  0.20856370182E+02  0.22416797108E+02  0.26268927816E+03  0.26446768769E+03  0.00000000000E+00 0.  1.
         12    1    6    6    0    0  0.38795844748E+02 -0.67006295269E+02  0.65368995714E+03  0.65825946347E+03  0.00000000000E+00 0. -1.
         -5    1    3    3    0  503 -0.95033362040E+02 -0.40904959845E+02  0.28717019353E+03  0.30527588456E+03  0.47000000000E+01 0.  1.
         13    1    4    4    0    0 -0.26470982029E+02  0.13065283189E+02  0.20799529747E+03  0.21007964748E+03  0.00000000000E+00 0. -1.
        -14    1    4    4    0    0  0.46511240989E+02 -0.51133266919E+01  0.13164692579E+03  0.13971526301E+03  0.00000000000E+00 0.  1.
</event>
<event>
12    1  0.8135779E-002  0.1821196E+03  0.7818608E-02  0.1165823E+00
         21   -1    0    0  503  502  0.00000000000E+00  0.00000000000E+00  0.62247148888E+02  0.62247148888E+02  0.00000000000E+00 0. -1.
         21   -1    0    0  501  503 -0.00000000000E+00 -0.00000000000E+00 -0.63120602814E+03  0.63120602814E+03  0.00000000000E+00 0.  1.
          6    2    1    2  501    0  0.27634171328E+02  0.52014530820E+02 -0.42199017110E+03  0.45961207645E+03  0.17233222992E+03 0.  0.
         24    2    3    3    0    0  0.13347004161E+02 -0.27638319523E+02 -0.30848774679E+03  0.32013594932E+03  0.79876885912E+02 0.  0.
         -6    2    1    2    0  502 -0.27634171328E+02 -0.52014530820E+02 -0.14696870815E+03  0.23384110058E+03  0.17208341089E+03 0.  0.
        -24    2    5    5    0    0 -0.61591712907E+02 -0.31360118275E+02 -0.28586501851E+02  0.10887648096E+03  0.79119554483E+02 0.  0.
          5    1    3    3  501    0  0.14287167168E+02  0.79652850344E+02 -0.11350242431E+03  0.13947612713E+03  0.47000000000E+01 0. -1.
        -11    1    4    4    0    0  0.17115412194E+02  0.21004584187E+02 -0.19112800595E+03  0.19303897158E+03  0.00000000000E+00 0.  1.
         12    1    4    4    0    0 -0.37684080332E+01 -0.48642903711E+02 -0.11735974084E+03  0.12709697774E+03  0.00000000000E+00 0. -1.
         -5    1    5    5    0  502  0.33957541578E+02 -0.20654412546E+02 -0.11838220630E+03  0.12496461961E+03  0.47000000000E+01 0.  1.
         13    1    6    6    0    0  0.14138708574E+02  0.11980319005E+01  0.10494889303E+02  0.17648826082E+02  0.00000000000E+00 0. -1.
        -14    1    6    6    0    0 -0.75730421481E+02 -0.32558150175E+02 -0.39081391154E+02  0.91227654881E+02  0.00000000000E+00 0.  1.
</event>
<event>
12    1  0.8135779E-002  0.1743092E+03  0.7818608E-02  0.1175097E+00
         21   -1    0    0  503  502  0.00000000000E+00  0.00000000000E+00  0.84313849395E+03  0.84313849395E+03  0.00000000000E+00 0.  1.
         21   -1    0    0  501  503 -0.00000000000E+00 -0.00000000000E+00 -0.12089107826E+03  0.12089107826E+03  0.00000000000E+00 0.  1.
          6    2    1    2  501    0  0.59330962294E+01  0.30205832315E+01 -0.43871020187E+02  0.17974524288E+03  0.17418197488E+03 0.  0.
         24    2    3    3    0    0  0.25865666137E+02 -0.68658075257E+00 -0.94050879396E+02  0.12542067498E+03  0.78837007296E+02 0.  0.
         -6    2    1    2    0  502 -0.59330962294E+01 -0.30205832315E+01  0.76611843588E+03  0.78428432933E+03  0.16769056589E+03 0.  0.
        -24    2    5    5    0    0 -0.51848529255E+02 -0.22584560363E+02  0.30277343191E+03  0.31823534167E+03  0.80022804684E+02 0.  0.
          5    1    3    3  501    0 -0.19932569907E+02  0.37071639841E+01  0.50179859209E+02  0.54324567905E+02  0.47000000000E+01 0. -1.
        -11    1    4    4    0    0 -0.18120774915E+02  0.23259302863E+01 -0.75342932093E+02  0.77526317155E+02  0.00000000000E+00 0.  1.
         12    1    4    4    0    0  0.43986441051E+02 -0.30125110389E+01 -0.18707947302E+02  0.47894357824E+02  0.00000000000E+00 0. -1.
         -5    1    5    5    0  502  0.45915433025E+02  0.19563977131E+02  0.46334500397E+03  0.46604898766E+03  0.47000000000E+01 0.  1.
         13    1    6    6    0    0 -0.15443737842E+02 -0.49481195376E+02  0.14008242890E+03  0.14936527247E+03  0.00000000000E+00 0. -1.
        -14    1    6    6    0    0 -0.36404791413E+02  0.26896635013E+02  0.16269100301E+03  0.16887006920E+03  0.00000000000E+00 0.  1.
</event>
<event>
12    1  0.8135779E-002  0.1725419E+03  0.7818608E-02  0.1178339E+00
         21   -1    0    0  501  502  0.00000000000E+00  0.00000000000E+00  0.34220916326E+02  0.34220916326E+02  0.00000000000E+00 0.  1.
         21   -1    0    0  502  503 -0.00000000000E+00 -0.00000000000E+00 -0.12180598279E+04  0.12180598279E+04  0.00000000000E+00 0.  1.
         -6    2    1    2    0  503  0.17853131072E+02 -0.10552299404E+01 -0.93949552896E+03  0.95315802836E+03  0.15980779168E+03 0.  0.
        -24    2    3    3    0    0 -0.21000000977E+01  0.28359037317E+02 -0.27916607197E+03  0.29185597306E+03  0.80234458158E+02 0.  0.
          6    2    1    2  501    0 -0.17853131072E+02  0.10552299404E+01 -0.24434338261E+03  0.29912271586E+03  0.17161253661E+03 0.  0.
         24    2    5    5    0    0  0.15981197768E+02 -0.39161199797E+02 -0.63174876146E+02  0.11042655596E+03  0.80087208928E+02 0.  0.
          5    1    5    5  501    0 -0.33834328840E+02  0.40216429738E+02 -0.18116850646E+03  0.18869615990E+03  0.47000000000E+01 0. -1.
        -13    1    6    6    0    0  0.10831166013E+02  0.95974998115E+01  0.13253377337E+02  0.19623408742E+02  0.00000000000E+00 0.  1.
         14    1    6    6    0    0  0.51500317549E+01 -0.48758699609E+02 -0.76428253483E+02  0.90803147220E+02  0.00000000000E+00 0. -1.
         -5    1    3    3    0  503  0.19953131170E+02 -0.29414267258E+02 -0.66032945700E+03  0.66130205530E+03  0.47000000000E+01 0.  1.
         11    1    4    4    0    0 -0.33959393812E+02  0.38827397724E+02 -0.16741090545E+03  0.17517767696E+03  0.00000000000E+00 0. -1.
        -12    1    4    4    0    0  0.31859393714E+02 -0.10468360406E+02 -0.11175516652E+03  0.11667829611E+03  0.00000000000E+00 0.  1.
</event>
<event>
12    1  0.8135779E-002  0.2012505E+03  0.7818608E-02  0.1148850E+00
         21   -1    0    0  501  502  0.00000000000E+00  0.00000000000E+00  0.68145345224E+03  0.68145345224E+03  0.00000000000E+00 0. -1.
         21   -1    0    0  502  503 -0.00000000000E+00 -0.00000000000E+00 -0.61617131593E+02  0.61617131593E+02  0.00000000000E+00 0. -1.
         -6    2    1    2    0  503 -0.60418652021E+02 -0.82863235978E+02  0.38283451186E+03  0.43214998515E+03  0.17226321952E+03 0.  0.
        -24    2    3    3    0    0  0.34199441395E+02 -0.42492504520E+02  0.20346784088E+03  0.22532428021E+03  0.79979086328E+02 0.  0.
          6    2    1    2  501    0  0.60418652021E+02  0.82863235978E+02  0.23700180878E+03  0.31092059868E+03  0.17316186628E+03 0.  0.
         24    2    5    5    0    0  0.27172514126E+02  0.61806876961E+02  0.45259099670E+02  0.11512470384E+03  0.81528374008E+02 0.  0.
          5    1    5    5  501    0  0.33246137895E+02  0.21056359016E+02  0.19174270911E+03  0.19579589484E+03  0.47000000000E+01 0. -1.
        -13    1    6    6    0    0 -0.11634176221E+02  0.44060607204E+02  0.54928417618E+02  0.71371018106E+02  0.00000000000E+00 0.  1.
         14    1    6    6    0    0  0.38806690347E+02  0.17746269757E+02 -0.96693179480E+01  0.43753685737E+02  0.00000000000E+00 0. -1.
         -5    1    3    3    0  503 -0.94618093416E+02 -0.40370731457E+02  0.17936667099E+03  0.20682570493E+03  0.47000000000E+01 0.  1.
         11    1    4    4    0    0 -0.25436824624E+02 -0.21854209235E+02  0.64425941115E+02  0.72631538582E+02  0.00000000000E+00 0. -1.
        -12    1    4    4    0    0  0.59636266020E+02 -0.20638295285E+02  0.13904189976E+03  0.15269274163E+03  0.00000000000E+00 0.  1.
</event>
<event>
12    1  0.8135779E-002  0.1784464E+03  0.7818608E-02  0.1169465E+00
         21   -1    0    0  501  502  0.00000000000E+00  0.00000000000E+00  0.22212445635E+03  0.22212445635E+03  0.00000000000E+00 0.  1.
         21   -1    0    0  502  503 -0.00000000000E+00 -0.00000000000E+00 -0.14572298613E+03  0.14572298613E+03  0.00000000000E+00 0.  1.
         -6    2    1    2    0  503 -0.10056990190E+02 -0.45099821794E+02  0.12518286754E+02  0.17888493890E+03  0.17236002113E+03 0.  0.
        -24    2    3    3    0    0  0.46028575601E+02 -0.57055830399E+02 -0.38792544631E+02  0.10179130590E+03  0.59013649971E+02 0.  0.
          6    2    1    2  501    0  0.10056990190E+02  0.45099821794E+02  0.63883183464E+02  0.18896250358E+03  0.17172836007E+03 0.  0.
         24    2    5    5    0    0 -0.31180792319E+02  0.67839174806E+02  0.83460806802E+02  0.13774721077E+03  0.80213417552E+02 0.  0.
          5    1    5    5  501    0  0.41237782509E+02 -0.22739353012E+02 -0.19577623338E+02  0.51215292806E+02  0.47000000000E+01 0. -1.
        -13    1    6    6    0    0  0.22328654122E+02  0.16314637825E+01  0.29207659215E+02  0.36801057400E+02  0.00000000000E+00 0.  1.
         14    1    6    6    0    0 -0.53509446441E+02  0.66207711024E+02  0.54253147588E+02  0.10094615337E+03  0.00000000000E+00 0. -1.
         -5    1    3    3    0  503 -0.56085565791E+02  0.11956008605E+02  0.51310831385E+02  0.77093633001E+02  0.47000000000E+01 0.  1.
         11    1    4    4    0    0  0.51329084237E+02 -0.28783090265E+02 -0.42774591139E+02  0.72751679162E+02  0.00000000000E+00 0. -1.
        -12    1    4    4    0    0 -0.53005086363E+01 -0.28272740135E+02  0.39820465075E+01  0.29039626735E+02  0.00000000000E+00 0.  1.
</event>
<event>
12    1  0.8135779E-002  0.2101477E+03  0.7818608E-02  0.1141565E+00
         21   -1    0    0  503  502  0.00000000000E+00  0.00000000000E+00  0.13302067324E+03  0.13302067324E+03  0.00000000000E+00 0. -1.
         21   -1    0    0  501  503 -0.00000000000E+00 -0.00000000000E+00 -0.34613161809E+03  0.34613161809E+03  0.00000000000E+00 0.  1.
          6    2    1    2  501    0  0.11895189427E+03 -0.82604286295E+01 -0.15638744386E+03  0.26148367180E+03  0.17233365948E+03 0.  0.
         24    2    3    3    0    0 -0.69746158802E+01 -0.17088157338E+02 -0.81444232112E+02  0.11460280259E+03  0.78485597594E+02 0.  0.
         -6    2    1    2    0  502 -0.11895189427E+03  0.82604286295E+01 -0.56723500988E+02  0.21766861952E+03  0.17304416930E+03 0.  0.
        -24    2    5    5    0    0 -0.12991941046E+03  0.39926409944E+02 -0.71123781375E+01  0.15761552389E+03  0.79491483967E+02 0.  0.
          5    1    3    3  501    0  0.12592651015E+03  0.88277287088E+01 -0.74943211752E+02  0.14688086921E+03  0.47000000000E+01 0. -1.
        -11    1    4    4    0    0 -0.40299029777E+01 -0.42011430391E+02 -0.78770202497E+02  0.89364115857E+02  0.00000000000E+00 0.  1.
         12    1    4    4    0    0 -0.29447129025E+01  0.24923273053E+02 -0.26740296153E+01  0.25238686735E+02  0.00000000000E+00 0. -1.
         -5    1    5    5    0  502  0.10967516192E+02 -0.31665981315E+02 -0.49611122851E+02  0.60053095629E+02  0.47000000000E+01 0.  1.
         11    1    6    6    0    0 -0.27185669484E+02 -0.18165205833E+02  0.17457131184E+02  0.37064629466E+02  0.00000000000E+00 0. -1.
        -12    1    6    6    0    0 -0.10273374098E+03  0.58091615777E+02 -0.24569509321E+02  0.12055089443E+03  0.00000000000E+00 0.  1.
</event>
<event>
12    1  0.8135779E-002  0.2055340E+03  0.7818608E-02  0.1145303E+00
         21   -1    0    0  503  502  0.00000000000E+00  0.00000000000E+00  0.46298770804E+03  0.46298770804E+03  0.00000000000E+00 0. -1.
         21   -1    0    0  501  503 -0.00000000000E+00 -0.00000000000E+00 -0.46095525327E+03  0.46095525327E+03  0.00000000000E+00 0. -1.
          6    2    1    2  501    0  0.93402474940E+02  0.61771114669E+02 -0.41289747398E+03  0.46122506681E+03  0.17235006614E+03 0.  0.
         24    2    3    3    0    0  0.53891053127E+02  0.90188655642E+02 -0.38081963694E+03  0.40274612429E+03  0.78374776162E+02 0.  0.
         -6    2    1    2    0  502 -0.93402474940E+02 -0.61771114669E+02  0.41492992876E+03  0.46271789451E+03  0.17146810546E+03 0.  0.
        -24    2    5    5    0    0 -0.10358955274E+03 -0.43410306981E+02  0.41998344620E+03  0.44061531883E+03  0.71697377333E+02 0.  0.
          5    1    3    3  501    0  0.39511421813E+02 -0.28417540973E+02 -0.32077837046E+02  0.58478942520E+02  0.47000000000E+01 0. -1.
        -13    1    4    4    0    0 -0.13180350720E+02  0.19548380830E+02 -0.27395353304E+02  0.36143688534E+02  0.00000000000E+00 0.  1.
         14    1    4    4    0    0  0.67071403847E+02  0.70640274813E+02 -0.35342428363E+03  0.36660243575E+03  0.00000000000E+00 0. -1.
         -5    1    5    5    0  502  0.10187077797E+02 -0.18360807688E+02 -0.50535174469E+01  0.22102575678E+02  0.47000000000E+01 0.  1.
         13    1    6    6    0    0 -0.48293739804E+02 -0.22781358356E+02  0.32069794072E+03  0.32511297232E+03  0.00000000000E+00 0. -1.
        -14    1    6    6    0    0 -0.55295812934E+02 -0.20628948625E+02  0.99285505485E+02  0.11550234651E+03  0.00000000000E+00 0.  1.
</event>
<event>
12    1  0.8135779E-002  0.2076857E+03  0.7818608E-02  0.1144806E+00
         21   -1    0    0  501  502  0.00000000000E+00  0.00000000000E+00  0.13987944601E+02  0.13987944601E+02  0.00000000000E+00 0. -1.
         21   -1    0    0  502  503 -0.00000000000E+00 -0.00000000000E+00 -0.37941029908E+04  0.37941029908E+04  0.00000000000E+00 0.  1.
         -6    2    1    2    0  503 -0.78215348983E+02  0.89002673702E+02 -0.27950377421E+04  0.28027431825E+04  0.17057036739E+03 0.  0.
        -24    2    3    3    0    0 -0.10254311571E+03  0.15878050611E+02 -0.16451278953E+04  0.16502442468E+04  0.78058179309E+02 0.  0.
          6    2    1    2  501    0  0.78215348983E+02 -0.89002673702E+02 -0.98507730405E+03  0.10053477529E+04  0.16219646291E+03 0.  0.
         24    2    5    5    0    0  0.11358460607E+03 -0.88107203262E+02 -0.83625733458E+03  0.85230769433E+03  0.80235492061E+02 0.  0.
          5    1    5    5  501    0 -0.35369257085E+02 -0.89547043999E+00 -0.14881996947E+03  0.15304005857E+03  0.47000000000E+01 0. -1.
        -13    1    6    6    0    0  0.84306922557E+02 -0.51360441719E+02 -0.72274560198E+03  0.72945648078E+03  0.00000000000E+00 0.  1.
         14    1    6    6    0    0  0.29277683511E+02 -0.36746761542E+02 -0.11351173259E+03  0.12285121355E+03  0.00000000000E+00 0. -1.
         -5    1    3    3    0  503  0.24327766728E+02  0.73124623091E+02 -0.11499098469E+04  0.11524989357E+04  0.47000000000E+01 0.  1.
         11    1    4    4    0    0 -0.65418589392E+02 -0.23906234764E+02 -0.67297395742E+03  0.67656858283E+03  0.00000000000E+00 0. -1.
        -12    1    4    4    0    0 -0.37124526319E+02  0.39784285376E+02 -0.97215393783E+03  0.97367566400E+03  0.00000000000E+00 0.  1.
</event>
<event>
12    1  0.8135779E-002  0.2176365E+03  0.7818608E-02  0.1135842E+00
         21   -1    0    0  501  502  0.00000000000E+00  0.00000000000E+00  0.35551681844E+03  0.35551681844E+03  0.00000000000E+00 0. -1.
         21   -1    0    0  502  503 -0.00000000000E+00 -0.00000000000E+00 -0.24386776426E+03  0.24386776426E+03  0.00000000000E+00 0. -1.
         -6    2    1    2    0  503  0.22542776987E+02  0.13087860727E+03 -0.14664465272E+03  0.26162535292E+03  0.17118932350E+03 0.  0.
        -24    2    3    3    0    0  0.20221372181E+02  0.20162936198E+02 -0.12015941307E+03  0.14766524296E+03  0.80940049057E+02 0.  0.
          6    2    1    2  501    0 -0.22542776987E+02 -0.13087860727E+03  0.25829370689E+03  0.33775922978E+03  0.17241888426E+03 0.  0.
         24    2    5    5    0    0 -0.13313698497E+02 -0.37596706092E+02  0.21675508780E+03  0.23512280422E+03  0.81909694776E+02 0.  0.
          5    1    5    5  501    0 -0.92290784901E+01 -0.93281901179E+02  0.41538619089E+02  0.10263642557E+03  0.47000000000E+01 0. -1.
        -11    1    6    6    0    0 -0.10514172846E+02  0.19863798967E+02  0.19849343199E+02  0.29985242461E+02  0.00000000000E+00 0.  1.
         12    1    6    6    0    0 -0.27995256509E+01 -0.57460505059E+02  0.19690574460E+03  0.20513756176E+03  0.00000000000E+00 0. -1.
         -5    1    3    3    0  503  0.23214048062E+01  0.11071567107E+03 -0.26485239654E+02  0.11396010996E+03  0.47000000000E+01 0.  1.
         13    1    4    4    0    0  0.37104498212E+02  0.41301644011E+02 -0.98252181343E+02  0.11285415688E+03  0.00000000000E+00 0. -1.
        -14    1    4    4    0    0 -0.16883126031E+02 -0.21138707814E+02 -0.21907231723E+02  0.34811086085E+02  0.00000000000E+00 0.  1.
</event>
<event>
12    1  0.8135779E-002  0.1886257E+03  0.7818608E-02  0.1159783E+00
         21   -1    0    0  503  502  0.00000000000E+00  0.00000000000E+00  0.71431198943E+03  0.71431198943E+03  0.00000000000E+00 0.  1.
         21   -1    0    0  501  503 -0.00000000000E+00 -0.00000000000E+00 -0.89069343254E+02  0.89069343254E+02  0.00000000000E+00 0.  1.
          6    2    1    2  501    0 -0.69101597837E+02  0.34311558735E+02  0.45478419100E+02  0.19370418652E+03  0.17175771129E+03 0.  0.
         24    2    3    3    0    0 -0.42382918026E+02 -0.12717762176E+02  0.83938738194E+02  0.12716900019E+03  0.84665161805E+02 0.  0.
         -6    2    1    2    0  502  0.69101597837E+02 -0.34311558735E+02  0.57976422707E+03  0.60967714616E+03  0.17212597035E+03 0.  0.
        -24    2    5    5    0    0  0.78217177098E+02 -0.72373161582E+02  0.31077265101E+03  0.33781258909E+03  0.78625081378E+02 0.  0.
          5    1    3    3  501    0 -0.26718679811E+02  0.47029320911E+02 -0.38460319094E+02  0.66535186337E+02  0.47000000000E+01 0. -1.
        -11    1    4    4    0    0 -0.29270605708E+02 -0.29388201596E+02  0.92474136733E+00  0.41488430896E+02  0.00000000000E+00 0.  1.
         12    1    4    4    0    0 -0.13112312318E+02  0.16670439420E+02  0.83013996826E+02  0.85680569290E+02  0.00000000000E+00 0. -1.
         -5    1    5    5    0  502 -0.91155792612E+01  0.38061602848E+02  0.26899157606E+03  0.27186455707E+03  0.47000000000E+01 0.  1.
         11    1    6    6    0    0  0.90447871221E+01 -0.89128304540E+01 -0.48488402955E+00  0.12707550248E+02  0.00000000000E+00 0. -1.
        -12    1    6    6    0    0  0.69172389976E+02 -0.63460331128E+02  0.31125753504E+03  0.32510503884E+03  0.00000000000E+00 0.  1.
</event>
<event>
12    1  0.8135779E-002  0.2907412E+03  0.7818608E-02  0.1090084E+00
         21   -1    0    0  501  502  0.00000000000E+00  0.00000000000E+00  0.10658155956E+03  0.10658155956E+03  0.00000000000E+00 0. -1.
         21   -1    0    0  502  503 -0.00000000000E+00 -0.00000000000E+00 -0.98655060558E+03  0.98655060558E+03  0.00000000000E+00 0. -1.
         -6    2    1    2    0  503 -0.23331594905E+03  0.21812680931E+02 -0.68414927907E+03  0.74336442140E+03  0.17209968572E+03 0.  0.
        -24    2    3    3    0    0 -0.22680056414E+03 -0.13287316873E+01 -0.67614226898E+03  0.71759278139E+03  0.79566139589E+02 0.  0.
          6    2    1    2  501    0  0.23331594905E+03 -0.21812680931E+02 -0.19581976695E+03  0.34976774375E+03  0.17052849705E+03 0.  0.
         24    2    5    5    0    0  0.10538625195E+03  0.41906582346E+02 -0.50434723522E+02  0.14584360892E+03  0.76578542567E+02 0.  0.
          5    1    5    5  501    0  0.12792969710E+03 -0.63719263277E+02 -0.14538504343E+03  0.20392413483E+03  0.47000000000E+01 0. -1.
        -11    1    6    6    0    0  0.82602634382E+02  0.38351606247E+02 -0.70583355141E+02  0.11522174678E+03  0.00000000000E+00 0.  1.
         12    1    6    6    0    0  0.22783617570E+02  0.35549760990E+01  0.20148631619E+02  0.30621862137E+02  0.00000000000E+00 0. -1.
         -5    1    3    3    0  503 -0.65153849069E+01  0.23141412618E+02 -0.80070100835E+01  0.25771640012E+02  0.47000000000E+01 0.  1.
         13    1    4    4    0    0 -0.17398612921E+03  0.33160980845E+02 -0.50986652615E+03  0.53975429438E+03  0.00000000000E+00 0. -1.
        -14    1    4    4    0    0 -0.52814434930E+02 -0.34489712532E+02 -0.16627574283E+03  0.17783848700E+03  0.00000000000E+00 0.  1.
</event>
<event>
12    1  0.8135779E-002  0.1951806E+03  0.7818608E-02  0.1154017E+00
         21   -1    0    0  503  502  0.00000000000E+00  0.00000000000E+00  0.79315426045E+03  0.79315426045E+03  0.00000000000E+00 0.  1.
         21   -1    0    0  501  503 -0.00000000000E+00 -0.00000000000E+00 -0.47871415022E+02  0.47871415022E+02  0.00000000000E+00 0. -1.
          6    2    1    2  501    0 -0.57326819665E+02  0.72019328855E+02  0.36705161377E+03  0.41540337882E+03  0.17134740145E+03 0.  0.
         24    2    3    3    0    0 -0.98861575398E+02  0.66013279988E+02  0.22129635691E+03  0.26365393579E+03  0.80062201147E+02 0.  0.
         -6    2    1    2    0  502  0.57326819665E+02 -0.72019328855E+02  0.37823123165E+03  0.42562229665E+03  0.17211137912E+03 0.  0.
        -24    2    5    5    0    0 -0.25355966203E+02 -0.17646153713E+02  0.24482046457E+03  0.25944947087E+03  0.80141476769E+02 0.  0.
          5    1    3    3  501    0  0.41534755734E+02  0.60060488668E+01  0.14575525686E+03  0.15174944303E+03  0.47000000000E+01 0. -1.
        -13    1    4    4    0    0  0.68345758957E+01 -0.59548487535E+01  0.44778781424E+02  0.45687097929E+02  0.00000000000E+00 0.  1.
         14    1    4    4    0    0 -0.10569615129E+03  0.71968128741E+02  0.17651757548E+03  0.21796683786E+03  0.00000000000E+00 0. -1.
         -5    1    5    5    0  502  0.82682785867E+02 -0.54373175142E+02  0.13341076709E+03  0.16617282578E+03  0.47000000000E+01 0.  1.
         13    1    6    6    0    0 -0.37852764642E+02 -0.33359734529E+02  0.88721897501E+02  0.10206507128E+03  0.00000000000E+00 0. -1.
        -14    1    6    6    0    0  0.12496798439E+02  0.15713580816E+02  0.15609856707E+03  0.15738439959E+03  0.00000000000E+00 0.  1.
</event>
<event>
12    1  0.8135779E-002  0.1868331E+03  0.7818608E-02  0.1161618E+00
         21   -1    0    0  501  502  0.00000000000E+00  0.00000000000E+00  0.46316728045E+03  0.46316728045E+03  0.00000000000E+00 0.  1.
         21   -1    0    0  502  503 -0.00000000000E+00 -0.00000000000E+00 -0.76137696061E+02  0.76137696061E+02  0.00000000000E+00 0.  1.
         -6    2    1    2    0  503 -0.69536399319E+02 -0.20830425980E+02  0.22854302008E+03  0.29519233222E+03  0.17215511464E+03 0.  0.
        -24    2    3    3    0    0 -0.54810934224E+02  0.14568082869E+02  0.23686900383E+03  0.25567897047E+03  0.77771096284E+02 0.  0.
          6    2    1    2  501    0  0.69536399319E+02  0.20830425980E+02  0.15848656431E+03  0.24411264429E+03  0.17089111902E+03 0.  0.
         24    2    5    5    0    0 -0.22807516460E+02 -0.12380688048E+02  0.11254420911E+03  0.13565451008E+03  0.71151126877E+02 0.  0.
          5    1    5    5  501    0  0.92343915779E+02  0.33211114028E+02  0.45942355201E+02  0.10845813422E+03  0.47000000000E+01 0. -1.
        -13    1    6    6    0    0  0.22510013351E+02  0.61743111323E+01  0.19113530680E+02  0.30168690295E+02  0.00000000000E+00 0.  1.
         14    1    6    6    0    0 -0.45317529812E+02 -0.18554999181E+02  0.93430678432E+02  0.10548581978E+03  0.00000000000E+00 0. -1.
         -5    1    3    3    0  503 -0.14725465095E+02 -0.35398508849E+02 -0.83259837528E+01  0.39513361746E+02  0.47000000000E+01 0.  1.
         11    1    4    4    0    0  0.91302245801E+01 -0.70233732998E+01  0.25008522280E+01  0.11787410032E+02  0.00000000000E+00 0. -1.
        -12    1    4    4    0    0 -0.63941158804E+02  0.21591456168E+02  0.23436815160E+03  0.24389156044E+03  0.00000000000E+00 0.  1.
</event>
<event>
12    1  0.8135779E-002  0.2098032E+03  0.7818608E-02  0.1141813E+00
         21   -1    0    0  503  502  0.00000000000E+00  0.00000000000E+00  0.10228594494E+03  0.10228594494E+03  0.00000000000E+00 0.  1.
         21   -1    0    0  501  503 -0.00000000000E+00 -0.00000000000E+00 -0.46616420137E+03  0.46616420137E+03  0.00000000000E+00 0. -1.
          6    2    1    2  501    0 -0.10217490018E+03 -0.64106561954E+02 -0.26157858624E+03  0.33503507944E+03  0.17110168369E+03 0.  0.
         24    2    3    3    0    0  0.14787996088E+02 -0.36885767140E+02 -0.14369637516E+03  0.16669139389E+03  0.74552853183E+02 0.  0.
         -6    2    1    2    0  502  0.10217490018E+03  0.64106561954E+02 -0.10229967019E+03  0.23341506688E+03  0.17166248691E+03 0.  0.
        -24    2    5    5    0    0  0.39986018055E+01  0.22068453405E+01 -0.78957111516E+02  0.11493669111E+03  0.83398792080E+02 0.  0.
          5    1    3    3  501    0 -0.11696289627E+03 -0.27220794815E+02 -0.11788221109E+03  0.16834368555E+03  0.47000000000E+01 0. -1.
        -13    1    4    4    0    0  0.68483199676E+01 -0.51316810807E+01 -0.13147398426E+03  0.13175219989E+03  0.00000000000E+00 0.  1.
         14    1    4    4    0    0  0.79396761205E+01 -0.31754086059E+02 -0.12222390893E+02  0.34939194002E+02  0.00000000000E+00 0. -1.
         -5    1    5    5    0  502  0.98176298378E+02  0.61899716614E+02 -0.23342558669E+02  0.11847837577E+03  0.47000000000E+01 0.  1.
         11    1    6    6    0    0 -0.69111460541E+01 -0.37541248407E+02 -0.55953134203E+02  0.67733761883E+02  0.00000000000E+00 0. -1.
        -12    1    6    6    0    0  0.10909747860E+02  0.39748093747E+02 -0.23003977313E+02  0.47202929222E+02  0.00000000000E+00 0.  1.
</event>
<event>
12    1  0.8135779E-002  0.2271223E+03  0.7818608E-02  0.1128844E+00
         21   -1    0    0  503  502  0.00000000000E+00  0.00000000000E+00  0.17500599197E+04  0.17500599197E+04  0.00000000000E+00 0. -1.
         21   -1    0    0  501  503 -0.00000000000E+00 -0.00000000000E+00 -0.40015407226E+02  0.40015407226E+02  0.00000000000E+00 0. -1.
          6    2    1    2  501    0 -0.98521106557E+02  0.11253914164E+03  0.39186971690E+03  0.45247697443E+03  0.16971172771E+03 0.  0.
         24    2    3    3    0    0 -0.19859470624E+02 -0.71011318328E+01  0.16319777109E+03  0.18263554542E+03  0.79230078362E+02 0.  0.
         -6    2    1    2    0  502  0.98521106557E+02 -0.11253914164E+03  0.13181747955E+04  0.13375983525E+04  0.17091838428E+03 0.  0.
        -24    2    5    5    0    0  0.43239328925E+01 -0.43370118708E+02  0.85612782690E+03  0.86097800828E+03  0.80178620358E+02 0.  0.
          5    1    3    3  501    0 -0.78661635934E+02  0.11964027347E+03  0.22867194581E+03  0.26984142900E+03  0.47000000000E+01 0. -1.
        -13    1    4    4    0    0 -0.24171183104E+02  0.21801683346E+02  0.14408854347E+03  0.14771955811E+03  0.00000000000E+00 0.  1.
         14    1    4    4    0    0  0.43117124802E+01 -0.28902815179E+02  0.19109227617E+02  0.34915987311E+02  0.00000000000E+00 0. -1.
         -5    1    5    5    0  502  0.94197173665E+02 -0.69169022932E+02  0.46204696864E+03  0.47662034419E+03  0.47000000000E+01 0.  1.
         11    1    6    6    0    0  0.33979830089E+02 -0.39661104962E+02  0.70447340510E+03  0.70640668923E+03  0.00000000000E+00 0. -1.
        -12    1    6    6    0    0 -0.29655897197E+02 -0.37090137462E+01  0.15165442180E+03  0.15457131905E+03  0.00000000000E+00 0.  1.
</event>
<event>
12    1  0.8135779E-002  0.1753318E+03  0.7818608E-02  0.1172790E+00
         21   -1    0    0  503  502  0.00000000000E+00  0.00000000000E+00  0.37861444904E+03  0.37861444904E+03  0.00000000000E+00 0. -1.
         21   -1    0    0  501  503 -0.00000000000E+00 -0.00000000000E+00 -0.10805679751E+03  0.10805679751E+03  0.00000000000E+00 0. -1.
          6    2    1    2  501    0 -0.12360354563E+02 -0.23753990339E+02  0.25776779467E+03  0.31087357870E+03  0.17170065679E+03 0.  0.
         24    2    3    3    0    0 -0.34236773570E+01  0.16127649557E+01  0.26927381609E+03  0.28124563577E+03  0.81094987699E+02 0.  0.
         -6    2    1    2    0  502  0.12360354563E+02  0.23753990339E+02  0.12789856862E+02  0.17579766785E+03  0.17327495249E+03 0.  0.
        -24    2    5    5    0    0 -0.40240258328E+02  0.17232068375E+02 -0.43756813602E+02  0.98151187673E+02  0.76175943277E+02 0.  0.
          5    1    3    3  501    0 -0.89366772059E+01 -0.25366755294E+02 -0.11506021415E+02  0.29627942933E+02  0.47000000000E+01 0. -1.
        -11    1    4    4    0    0 -0.36358070711E+01  0.16895466116E+02  0.71927647817E+01  0.18719287741E+02  0.00000000000E+00 0.  1.
         12    1    4    4    0    0  0.21212971408E+00 -0.15282701161E+02  0.26208105131E+03  0.26252634803E+03  0.00000000000E+00 0. -1.
         -5    1    5    5    0  502  0.52600612891E+02  0.65219219642E+01  0.56546670464E+02  0.77646480172E+02  0.47000000000E+01 0.  1.
         11    1    6    6    0    0 -0.43130550905E+02 -0.17479994700E+02 -0.62351071427E+01  0.46953926323E+02  0.00000000000E+00 0. -1.
        -12    1    6    6    0    0  0.28902925768E+01  0.34712063075E+02 -0.37521706459E+02  0.51197261350E+02  0.00000000000E+00 0.  1.
</event>
<event>
12    1  0.8135779E-002  0.2047763E+03  0.7818608E-02  0.1147921E+00
         21   -1    0    0  503  502  0.00000000000E+00  0.00000000000E+00  0.29549441352E+03  0.29549441352E+03  0.00000000000E+00 0.  1.
         21   -1    0    0  501  503 -0.00000000000E+00 -0.00000000000E+00 -0.24707009098E+03  0.24707009098E+03  0.00000000000E+00 0.  1.
          6    2    1    2  501    0  0.80576123326E+02 -0.44835416020E+02 -0.15887513465E+03  0.25117747159E+03  0.17130699823E+03 0.  0.
         24    2    3    3    0    0  0.23090467963E+02 -0.19134532841E+02 -0.84034704922E+01  0.87993686597E+02  0.82298058950E+02 0.  0.
         -6    2    1    2    0  502 -0.80576123326E+02  0.44835416020E+02  0.20729945719E+03  0.29138703291E+03  0.18284039985E+03 0.  0.
        -24    2    5    5    0    0 -0.27686091142E+02  0.97517197455E+02  0.12935243522E+03  0.18335669535E+03  0.81311141860E+02 0.  0.
          5    1    3    3  501    0  0.57485655363E+02 -0.25700883178E+02 -0.15047166416E+03  0.16318378499E+03  0.47000000000E+01 0. -1.
        -11    1    4    4    0    0  0.15409975287E+02 -0.51486089231E+02 -0.18824556208E+00  0.53743094059E+02  0.00000000000E+00 0.  1.
         12    1    4    4    0    0  0.76804926757E+01  0.32351556390E+02 -0.82152249301E+01  0.34250592538E+02  0.00000000000E+00 0. -1.
         -5    1    5    5    0  502 -0.52890032183E+02 -0.52681781435E+02  0.77947021965E+02  0.10803033756E+03  0.47000000000E+01 0.  1.
         13    1    6    6    0    0 -0.35627007066E+02  0.66557186903E+02  0.34010837912E+02  0.82800240678E+02  0.00000000000E+00 0. -1.
        -14    1    6    6    0    0  0.79409159234E+01  0.30960010552E+02  0.95341597310E+02  0.10055645467E+03  0.00000000000E+00 0.  1.
</event>
<event>
12    1  0.8135779E-002  0.1959876E+03  0.7818608E-02  0.1153266E+00
         21   -1    0    0  503  502  0.00000000000E+00  0.00000000000E+00  0.73227963006E+02  0.73227963006E+02  0.00000000000E+00 0.  1.
         21   -1    0    0  501  503 -0.00000000000E+00 -0.00000000000E+00 -0.88223995369E+03  0.88223995369E+03  0.00000000000E+00 0. -1.
          6    2    1    2  501    0 -0.30417809940E+02 -0.86859821586E+02 -0.70948180066E+03  0.73605404843E+03  0.17303544430E+03 0.  0.
         24    2    3    3    0    0 -0.27133658026E+02  0.72856536011E+01 -0.18819726556E+03  0.20630522806E+03  0.79713990085E+02 0.  0.
         -6    2    1    2    0  502  0.30417809940E+02  0.86859821586E+02 -0.99530190030E+02  0.21941386827E+03  0.17252917172E+03 0.  0.
        -24    2    5    5    0    0  0.18523169126E+02 -0.21188567386E+02 -0.40912521223E+02  0.95825608566E+02  0.81955168732E+02 0.  0.
          5    1    3    3  501    0 -0.32841519140E+01 -0.94145475187E+02 -0.52128453510E+03  0.52974882037E+03  0.47000000000E+01 0. -1.
        -13    1    4    4    0    0  0.19720238086E+02 -0.10763649561E+02 -0.11728085823E+03  0.11941333112E+03  0.00000000000E+00 0.  1.
         14    1    4    4    0    0 -0.46853896112E+02  0.18049303162E+02 -0.70916407326E+02  0.86891896939E+02  0.00000000000E+00 0. -1.
         -5    1    5    5    0  502  0.11894640814E+02  0.10804838897E+03 -0.58617668808E+02  0.12358825970E+03  0.47000000000E+01 0.  1.
         11    1    6    6    0    0  0.33916795435E+02 -0.31948930599E+02  0.43731805805E+01  0.46799656915E+02  0.00000000000E+00 0. -1.
        -12    1    6    6    0    0 -0.15393626309E+02  0.10760363214E+02 -0.45285701803E+02  0.49025951650E+02  0.00000000000E+00 0.  1.
</event>
<event>
12    1  0.8135779E-002  0.2246419E+03  0.7818608E-02  0.1130895E+00
         21   -1    0    0  503  502  0.00000000000E+00  0.00000000000E+00  0.17352226484E+03  0.17352226484E+03  0.00000000000E+00 0. -1.
         21   -1    0    0  501  503 -0.00000000000E+00 -0.00000000000E+00 -0.42546386157E+03  0.42546386157E+03  0.00000000000E+00 0. -1.
          6    2    1    2  501    0  0.14340417377E+03 -0.87691932100E+01 -0.29676935878E+03  0.37220430161E+03  0.17269144165E+03 0.  0.
         24    2    3    3    0    0  0.21553952227E+02 -0.42218176064E+02 -0.16418153715E+03  0.18898876900E+03  0.80710782547E+02 0.  0.
         -6    2    1    2    0  502 -0.14340417377E+03  0.87691932100E+01  0.44827762061E+02  0.22678182480E+03  0.16964319026E+03 0.  0.
        -24    2    5    5    0    0 -0.26147575885E+02 -0.20864674168E+02 -0.23917557517E+02  0.87586692673E+02  0.77332715088E+02 0.  0.
          5    1    3    3  501    0  0.12185022155E+03  0.33448982854E+02 -0.13258782164E+03  0.18321553261E+03  0.47000000000E+01 0. -1.
        -13    1    4    4    0    0  0.41045422915E+02 -0.23043462455E+02 -0.39814471782E+02  0.61651602310E+02  0.00000000000E+00 0.  1.
         14    1    4    4    0    0 -0.19491470688E+02 -0.19174713609E+02 -0.12436706537E+03  0.12733716669E+03  0.00000000000E+00 0. -1.
         -5    1    5    5    0  502 -0.11725659789E+03  0.29633867378E+02  0.68745319578E+02  0.13919513213E+03  0.47000000000E+01 0.  1.
         11    1    6    6    0    0 -0.44407377397E+01 -0.38206066353E+02  0.13692200721E+02  0.40827686910E+02  0.00000000000E+00 0. -1.
        -12    1    6    6    0    0 -0.21706838146E+02  0.17341392185E+02 -0.37609758238E+02  0.46759005763E+02  0.00000000000E+00 0.  1.
</event>
<event>
12    1  0.8135779E-002  0.2295620E+03  0.7818608E-02  0.1127232E+00
         21   -1    0    0  503  502  0.00000000000E+00  0.00000000000E+00  0.21597551783E+03  0.21597551783E+03  0.00000000000E+00 0. -1.
         21   -1    0    0  501  503 -0.00000000000E+00 -0.00000000000E+00 -0.45312187687E+03  0.45312187687E+03  0.00000000000E+00 0. -1.
          6    2    1    2  501    0  0.28820336706E+02  0.14981272522E+03 -0.34654577222E+03  0.41480041541E+03  0.16938402502E+03 0.  0.
         24    2    3    3    0    0  0.40672912856E+02  0.13839821263E+03 -0.16716637670E+03  0.23460654149E+03  0.79292374867E+02 0.  0.
         -6    2    1    2    0  502 -0.28820336706E+02 -0.14981272522E+03  0.10939941318E+03  0.25429697930E+03  0.17153500409E+03 0.  0.
        -24    2    5    5    0    0  0.13166380255E+02 -0.10933149831E+03  0.13200254076E+03  0.19157054540E+03  0.84545094513E+02 0.  0.
          5    1    3    3  501    0 -0.11852576151E+02  0.11414512595E+02 -0.17937939553E+03  0.18019387392E+03  0.47000000000E+01 0. -1.
        -13    1    4    4    0    0  0.34975672251E+02  0.24922741717E+02 -0.16741857355E+02  0.46094798967E+02  0.00000000000E+00 0.  1.
         14    1    4    4    0    0  0.56972406050E+01  0.11347547091E+03 -0.15042451934E+03  0.18851174252E+03  0.00000000000E+00 0. -1.
         -5    1    5    5    0  502 -0.41986716961E+02 -0.40481226911E+02 -0.22603127572E+02  0.62726433896E+02  0.47000000000E+01 0.  1.
         13    1    6    6    0    0 -0.11907824936E+02 -0.11215754659E+03  0.11541015579E+03  0.16137104948E+03  0.00000000000E+00 0. -1.
        -14    1    6    6    0    0  0.25074205191E+02  0.28260482765E+01  0.16592384969E+02  0.30199495919E+02  0.00000000000E+00 0.  1.
</event>
<event>
12    1  0.8135779E-002  0.2121165E+03  0.7818608E-02  0.1140014E+00
         21   -1    0    0  503  502  0.00000000000E+00  0.00000000000E+00  0.34855455104E+03  0.34855455104E+03  0.00000000000E+00 0. -1.
         21   -1    0    0  501  503 -0.00000000000E+00 -0.00000000000E+00 -0.13065183391E+03  0.13065183391E+03  0.00000000000E+00 0. -1.
          6    2    1    2  501    0 -0.10751110421E+03  0.54349006279E+02  0.79776492181E+02  0.22608139831E+03  0.17388518610E+03 0.  0.
         24    2    3    3    0    0 -0.10379191522E+03  0.79670973804E+02  0.12756480514E+02  0.15418698706E+03  0.80564715921E+02 0.  0.
         -6    2    1    2    0  502  0.10751110421E+03 -0.54349006279E+02  0.13812622496E+03  0.25312498664E+03  0.17458795155E+03 0.  0.
        -24    2    5    5    0    0  0.79649932616E+02  0.31999571616E+02  0.81973297771E+02  0.14631879291E+03  0.85565666370E+02 0.  0.
          5    1    3    3  501    0 -0.37191889954E+01 -0.25321967525E+02  0.67020011667E+02  0.71894411257E+02  0.47000000000E+01 0. -1.
        -11    1    4    4    0    0 -0.28346891196E+02 -0.12413414193E+02 -0.10911184060E+02  0.32813000929E+02  0.00000000000E+00 0.  1.
         12    1    4    4    0    0 -0.75445024022E+02  0.92084387997E+02  0.23667664574E+02  0.12137398613E+03  0.00000000000E+00 0. -1.
         -5    1    5    5    0  502  0.27861171596E+02 -0.86348577895E+02  0.56152927186E+02  0.10680619373E+03  0.47000000000E+01 0.  1.
         13    1    6    6    0    0  0.71144424231E+02 -0.15378077533E+02  0.54152978949E+02  0.90722431056E+02  0.00000000000E+00 0. -1.
        -14    1    6    6    0    0  0.85055083853E+01  0.47377649149E+02  0.27820318822E+02  0.55596361852E+02  0.00000000000E+00 0.  1.
</event>
<event>
12    1  0.8135779E-002  0.2774440E+03  0.7818608E-02  0.1097116E+00
         21   -1    0    0  501  502  0.00000000000E+00  0.00000000000E+00  0.39294460811E+03  0.39294460811E+03  0.00000000000E+00 0.  1.
         21   -1    0    0  502  503 -0.00000000000E+00 -0.00000000000E+00 -0.21212581338E+03  0.21212581338E+03  0.00000000000E+00 0.  1.
         -6    2    1    2    0  503 -0.21661258832E+03  0.24936138338E+02  0.64445053860E+01  0.27751881613E+03  0.17155855340E+03 0.  0.
        -24    2    3    3    0    0 -0.18515210760E+03  0.62907460975E+02 -0.32792257348E+02  0.21432707031E+03  0.81376343813E+02 0.  0.
          6    2    1    2  501    0  0.21661258832E+03 -0.24936138338E+02  0.17437428934E+03  0.32755160535E+03  0.17129167223E+03 0.  0.
         24    2    5    5    0    0  0.27811737719E+02 -0.23303134819E+01  0.73294897079E+02  0.11215448828E+03  0.80172091076E+02 0.  0.
          5    1    5    5  501    0  0.18880085060E+03 -0.22605824856E+02  0.10107939226E+03  0.21539711707E+03  0.47000000000E+01 0. -1.
        -11    1    6    6    0    0  0.51366720036E+02 -0.13365136710E+02  0.28220044589E+02  0.60112708499E+02  0.00000000000E+00 0.  1.
         12    1    6    6    0    0 -0.23554982317E+02  0.11034823228E+02  0.45074852489E+02  0.52041779779E+02  0.00000000000E+00 0. -1.
         -5    1    3    3    0  503 -0.31460480720E+02 -0.37971322638E+02  0.39236762734E+02  0.63191745820E+02  0.47000000000E+01 0.  1.
         13    1    4    4    0    0 -0.13665104221E+02 -0.17232514216E+02 -0.80879767949E+01  0.23433096001E+02  0.00000000000E+00 0. -1.
        -14    1    4    4    0    0 -0.17148700337E+03  0.80139975191E+02 -0.24704280553E+02  0.19089397431E+03  0.00000000000E+00 0.  1.
</event>
<event>
12    1  0.8135779E-002  0.2058111E+03  0.7818608E-02  0.1145511E+00
         21   -1    0    0  501  502  0.00000000000E+00  0.00000000000E+00  0.25152630439E+03  0.25152630439E+03  0.00000000000E+00 0.  1.
         21   -1    0    0  502  503 -0.00000000000E+00 -0.00000000000E+00 -0.37607315238E+03  0.37607315238E+03  0.00000000000E+00 0.  1.
         -6    2    1    2    0  503  0.11269659788E+03  0.43444154074E+01 -0.29656665121E+03  0.35936630980E+03  0.16873935194E+03 0.  0.
        -24    2    3    3    0    0  0.92023460268E+02 -0.24217704633E+02 -0.96333934276E+02  0.15599865198E+03  0.77463140060E+02 0.  0.
          6    2    1    2  501    0 -0.11269659788E+03 -0.43444154074E+01  0.17201980321E+03  0.26823314697E+03  0.17215926149E+03 0.  0.
         24    2    5    5    0    0 -0.11687667974E+03  0.11381368452E+02  0.19391354303E+03  0.24055284340E+03  0.80458153630E+02 0.  0.
          5    1    5    5  501    0  0.41800818584E+01 -0.15725783859E+02 -0.21893739816E+02  0.27680303565E+02  0.47000000000E+01 0. -1.
        -11    1    6    6    0    0 -0.95780513774E+02 -0.25572562177E+02  0.12468907409E+03  0.15929603872E+03  0.00000000000E+00 0.  1.
         12    1    6    6    0    0 -0.21096165961E+02  0.36953930629E+02  0.69224468937E+02  0.81256804679E+02  0.00000000000E+00 0. -1.
         -5    1    3    3    0  503  0.20673137609E+02  0.28562120040E+02 -0.20023271693E+03  0.20336765782E+03  0.47000000000E+01 0.  1.
         11    1    4    4    0    0 -0.87210371468E+01 -0.20012674340E+02 -0.15684347251E+02  0.26880520305E+02  0.00000000000E+00 0. -1.
        -12    1    4    4    0    0  0.10074449742E+03 -0.42050302929E+01 -0.80649587025E+02  0.12911813167E+03  0.00000000000E+00 0.  1.
</event>
<event>
12    1  0.8135779E-002  0.2156644E+03  0.7818608E-02  0.1137216E+00
         21   -1    0    0  501  502  0.00000000000E+00  0.00000000000E+00  0.38742219984E+02  0.38742219984E+02  0.00000000000E+00 0. -1.
         21   -1    0    0  502  503 -0.00000000000E+00 -0.00000000000E+00 -0.16718854295E+04  0.16718854295E+04  0.00000000000E+00 0. -1.
         -6    2    1    2    0  503 -0.69315259320E+02 -0.10753918089E+03 -0.12719532049E+04  0.12901069987E+04  0.17361403201E+03 0.  0.
        -24    2    3    3    0    0 -0.59644498022E+02 -0.13867800445E+03 -0.11835521399E+04  0.11957672497E+04  0.79212325338E+02 0.  0.
          6    2    1    2  501    0  0.69315259320E+02  0.10753918089E+03 -0.36119000461E+03  0.42052065075E+03  0.17323428551E+03 0.  0.
         24    2    5    5    0    0 -0.21149863989E+02  0.83535375855E+02 -0.24391268761E+03  0.27040009828E+03  0.78723174520E+02 0.  0.
          5    1    5    5  501    0  0.90465123308E+02  0.24003805033E+02 -0.11727731699E+03  0.15012055246E+03  0.47000000000E+01 0. -1.
        -13    1    6    6    0    0 -0.16213627254E+02  0.55212557575E+01 -0.13641126568E+03  0.13748236024E+03  0.00000000000E+00 0.  1.
         14    1    6    6    0    0 -0.49362367344E+01  0.78014120097E+02 -0.10750142194E+03  0.13291773804E+03  0.00000000000E+00 0. -1.
         -5    1    3    3    0  503 -0.96707612973E+01  0.31138823562E+02 -0.88401064981E+02  0.94339749028E+02  0.47000000000E+01 0.  1.
         13    1    4    4    0    0 -0.37090951357E+02 -0.88947256995E+01 -0.22585302465E+03  0.22905118110E+03  0.00000000000E+00 0. -1.
        -14    1    4    4    0    0 -0.22553546665E+02 -0.12978327875E+03 -0.95769911524E+03  0.96671606858E+03  0.00000000000E+00 0.  1.
</event>
<event>
12    1  0.8135779E-002  0.2171723E+03  0.7818608E-02  0.1136035E+00
         21   -1    0    0  501  502  0.00000000000E+00  0.00000000000E+00  0.16555971826E+03  0.16555971826E+03  0.00000000000E+00 0. -1.
         21   -1    0    0  502  503 -0.00000000000E+00 -0.00000000000E+00 -0.28776310504E+03  0.28776310504E+03  0.00000000000E+00 0. -1.
         -6    2    1    2    0  503  0.15861918173E+01  0.13212574558E+03 -0.84514141591E+02  0.23303745519E+03  0.17234873583E+03 0.  0.
        -24    2    3    3    0    0 -0.67164665447E+01 -0.36443378235E+01 -0.18848759543E+02  0.81920010525E+02  0.79355026728E+02 0.  0.
          6    2    1    2  501    0 -0.15861918173E+01 -0.13212574558E+03 -0.37689245189E+02  0.22028536811E+03  0.17217849910E+03 0.  0.
         24    2    5    5    0    0 -0.53031684448E+02 -0.91531474888E+02  0.18292103513E+02  0.13396888691E+03  0.80141694258E+02 0.  0.
          5    1    5    5  501    0  0.51445492630E+02 -0.40594270690E+02 -0.55981348701E+02  0.86316481203E+02  0.47000000000E+01 0. -1.
        -13    1    6    6    0    0 -0.33257188090E+02 -0.69748752383E+02 -0.25361322258E+02  0.81327275163E+02  0.00000000000E+00 0.  1.
         14    1    6    6    0    0 -0.19774496357E+02 -0.21782722505E+02  0.43653425771E+02  0.52641611748E+02  0.00000000000E+00 0. -1.
         -5    1    3    3    0  503  0.83026583620E+01  0.13577008340E+03 -0.65665382049E+02  0.15111744467E+03  0.47000000000E+01 0.  1.
         11    1    4    4    0    0 -0.59894196728E+01  0.10280747800E+02 -0.48081562101E+02  0.49531843670E+02  0.00000000000E+00 0. -1.
        -12    1    4    4    0    0 -0.72704687194E+00 -0.13925085624E+02  0.29232802558E+02  0.32388166854E+02  0.00000000000E+00 0.  1.
</event>
<event>
12    1  0.8135779E-002  0.2478628E+03  0.7818608E-02  0.1114933E+00
         21   -1    0    0  501  502  0.00000000000E+00  0.00000000000E+00  0.19119148071E+03  0.19119148071E+03  0.00000000000E+00 0.  1.
         21   -1    0    0  502  503 -0.00000000000E+00 -0.00000000000E+00 -0.37554299395E+03  0.37554299395E+03  0.00000000000E+00 0.  1.
         -6    2    1    2    0  503 -0.60979107631E+02 -0.16799735868E+03 -0.20224735107E+03  0.31990618826E+03  0.17173937865E+03 0.  0.
        -24    2    3    3    0    0  0.17998392882E+02 -0.45811352007E+02 -0.12475532718E+03  0.15500024664E+03  0.77708189267E+02 0.  0.
          6    2    1    2  501    0  0.60979107631E+02  0.16799735868E+03  0.17895837839E+02  0.24682828640E+03  0.16929966882E+03 0.  0.
         24    2    5    5    0    0 -0.30345380303E+02  0.59946315936E+02  0.13022179533E+02  0.10519131213E+03  0.79882614429E+02 0.  0.
          5    1    5    5  501    0  0.91324487934E+02  0.10805104275E+03  0.48736583061E+01  0.14163697427E+03  0.47000000000E+01 0. -1.
        -13    1    6    6    0    0 -0.12175635810E+02  0.45156781054E+02 -0.30449761247E+02  0.55808323237E+02  0.00000000000E+00 0.  1.
         14    1    6    6    0    0 -0.18169744493E+02  0.14789534882E+02  0.43471940780E+02  0.49382988894E+02  0.00000000000E+00 0. -1.
         -5    1    3    3    0  503 -0.78977500512E+02 -0.12218600668E+03 -0.77492023892E+02  0.16490594162E+03  0.47000000000E+01 0.  1.
         11    1    4    4    0    0  0.14834359306E+02 -0.66816338361E+02 -0.78805863630E+02  0.10437837626E+03  0.00000000000E+00 0. -1.
        -12    1    4    4    0    0  0.31640335753E+01  0.21004986354E+02 -0.45949463548E+02  0.50621870378E+02  0.00000000000E+00 0.  1.
</event>
<event>
12    1  0.8135779E-002  0.2698926E+03  0.7818608E-02  0.1101533E+00
         21   -1    0    0  503  502  0.00000000000E+00  0.00000000000E+00  0.53943249537E+03  0.53943249537E+03  0.00000000000E+00 0.  1.
         21   -1    0    0  501  503 -0.00000000000E+00 -0.00000000000E+00 -0.27641583097E+03  0.27641583097E+03  0.00000000000E+00 0.  1.
          6    2    1    2  501    0 -0.12690654497E+03  0.16294237781E+03 -0.16107885666E+03  0.31315652770E+03  0.17165407987E+03 0.  0.
         24    2    3    3    0    0 -0.35048581232E+02  0.13933425118E+03 -0.14053874639E+03  0.21600090370E+03  0.79137946429E+02 0.  0.
         -6    2    1    2    0  502  0.12690654497E+03 -0.16294237781E+03  0.42409552105E+03  0.50269179864E+03  0.17374275179E+03 0.  0.
        -24    2    5    5    0    0  0.13143162455E+03 -0.13797939889E+03  0.23709589077E+03  0.31392056570E+03  0.77582689400E+02 0.  0.
          5    1    3    3  501    0 -0.91857963738E+02  0.23608126632E+02 -0.20540110271E+02  0.97155624001E+02  0.47000000000E+01 0. -1.
        -11    1    4    4    0    0 -0.40503503335E+02  0.14341187967E+03 -0.14494771864E+03  0.20788781146E+03  0.00000000000E+00 0.  1.
         12    1    4    4    0    0  0.54549221031E+01 -0.40776284942E+01  0.44089722582E+01  0.81130922379E+01  0.00000000000E+00 0. -1.
         -5    1    5    5    0  502 -0.45250795845E+01 -0.24962978918E+02  0.18699963028E+03  0.18877123294E+03  0.47000000000E+01 0.  1.
         13    1    6    6    0    0 -0.93501107773E+00  0.83336803911E+01  0.82551355737E+01  0.11767401494E+02  0.00000000000E+00 0. -1.
        -14    1    6    6    0    0  0.13236663563E+03 -0.14631307928E+03  0.22884075520E+03  0.30215316420E+03  0.00000000000E+00 0.  1.
</event>
<event>
12    1  0.8135779E-002  0.1986752E+03  0.7818608E-02  0.1151525E+00
         21   -1    0    0  503  502  0.00000000000E+00  0.00000000000E+00  0.89600208941E+02  0.89600208941E+02  0.00000000000E+00 0. -1.
         21   -1    0    0  501  503 -0.00000000000E+00 -0.00000000000E+00 -0.59319645276E+03  0.59319645276E+03  0.00000000000E+00 0.  1.
          6    2    1    2  501    0 -0.89372116656E+02 -0.94726759628E+01 -0.43026110727E+03  0.47391608262E+03  0.17718556972E+03 0.  0.
         24    2    3    3    0    0 -0.12349709158E+03 -0.40114952350E+02 -0.34139262915E+03  0.37380035250E+03  0.79479778916E+02 0.  0.
         -6    2    1    2    0  502  0.89372116656E+02  0.94726759628E+01 -0.73335136549E+02  0.20888057908E+03  0.17371225414E+03 0.  0.
        -24    2    5    5    0    0  0.50418895774E+01 -0.47322458968E+02 -0.28927247783E+02  0.97833628936E+02  0.80435051521E+02 0.  0.
          5    1    3    3  501    0  0.34124974928E+02  0.30642276387E+02 -0.88868478120E+02  0.10011573013E+03  0.47000000000E+01 0. -1.
        -13    1    4    4    0    0 -0.31576632816E+02  0.24422753850E+02 -0.91309749344E+02  0.99654528100E+02  0.00000000000E+00 0.  1.
         14    1    4    4    0    0 -0.91920458768E+02 -0.64537706200E+02 -0.25008287981E+03  0.27414582439E+03  0.00000000000E+00 0. -1.
         -5    1    5    5    0  502  0.84330227078E+02  0.56795134930E+02 -0.44407888766E+02  0.11104695014E+03  0.47000000000E+01 0.  1.
         11    1    6    6    0    0  0.38416680117E+02 -0.81481713909E+01 -0.10071058452E+01  0.39284198737E+02  0.00000000000E+00 0. -1.
        -12    1    6    6    0    0 -0.33374790540E+02 -0.39174287577E+02 -0.27920141938E+02  0.58549430199E+02  0.00000000000E+00 0.  1.
</event>
<event>
12    1  0.8135779E-002  0.1899293E+03  0.7818608E-02  0.1158734E+00
         21   -1    0    0  503  502  0.00000000000E+00  0.00000000000E+00  0.14598302779E+03  0.14598302779E+03  0.00000000000E+00 0. -1.
         21   -1    0    0  501  503 -0.00000000000E+00 -0.00000000000E+00 -0.29450513616E+03  0.29450513616E+03  0.00000000000E+00 0. -1.
          6    2    1    2  501    0  0.48390854303E+02 -0.57911450667E+02  0.15358554234E+02  0.18962959731E+03  0.17328614511E+03 0.  0.
         24    2    3    3    0    0  0.44709348167E+02 -0.62839744790E+02 -0.51531642263E+02  0.12229290629E+03  0.79701226056E+02 0.  0.
         -6    2    1    2    0  502 -0.48390854303E+02  0.57911450667E+02 -0.16388066260E+03  0.25085856664E+03  0.17429210534E+03 0.  0.
        -24    2    5    5    0    0 -0.61247238313E+02  0.34207661003E+02 -0.18722787663E+03  0.21488164825E+03  0.78730278127E+02 0.  0.
          5    1    3    3  501    0  0.36815061363E+01  0.49282941230E+01  0.66890196497E+02  0.67336691022E+02  0.47000000000E+01 0. -1.
        -13    1    4    4    0    0  0.52726304401E+02 -0.71855153324E+01 -0.15178475309E+02  0.55336072494E+02  0.00000000000E+00 0.  1.
         14    1    4    4    0    0 -0.80169562347E+01 -0.55654229457E+02 -0.36353166954E+02  0.66956833791E+02  0.00000000000E+00 0. -1.
         -5    1    5    5    0  502  0.12856384010E+02  0.23703789663E+02  0.23347214028E+02  0.35976918393E+02  0.47000000000E+01 0.  1.
         11    1    6    6    0    0 -0.18629281473E+02  0.54965103907E+02 -0.10156983472E+03  0.11698138356E+03  0.00000000000E+00 0. -1.
        -12    1    6    6    0    0 -0.42617956840E+02 -0.20757442904E+02 -0.85658041913E+02  0.97900264686E+02  0.00000000000E+00 0.  1.
</event>
<event>
12    1  0.8135779E-002  0.2719033E+03  0.7818608E-02  0.1100374E+00
         21   -1    0    0  501  502  0.00000000000E+00  0.00000000000E+00  0.22617802425E+04  0.22617802425E+04  0.00000000000E+00 0.  1.
         21   -1    0    0  502  503 -0.00000000000E+00 -0.00000000000E+00 -0.51299159845E+02  0.51299159845E+02  0.00000000000E+00 0.  1.
         -6    2    1    2    0  503 -0.11141783592E+03  0.17859413189E+03  0.40741912825E+03  0.48981807842E+03  0.17210928439E+03 0.  0.
        -24    2    3    3    0    0 -0.46307857437E+02  0.98460899675E+02  0.11552804093E+03  0.18016804845E+03  0.85292619938E+02 0.  0.
          6    2    1    2  501    0  0.11141783592E+03 -0.17859413189E+03  0.18030619544E+04  0.18232613239E+04  0.17011656533E+03 0.  0.
         24    2    5    5    0    0  0.38694929988E+02 -0.14017031606E+03  0.81225804378E+03  0.82903826547E+03  0.79976876702E+02 0.  0.
          5    1    5    5  501    0  0.72722905928E+02 -0.38423815827E+02  0.99080391059E+03  0.99422305843E+03  0.47000000000E+01 0. -1.
        -13    1    6    6    0    0 -0.21110110502E-01 -0.70314414800E+02  0.56106608285E+03  0.56545492013E+03  0.00000000000E+00 0.  1.
         14    1    6    6    0    0  0.38716040099E+02 -0.69855901261E+02  0.25119196094E+03  0.26358334534E+03  0.00000000000E+00 0. -1.
         -5    1    3    3    0  503 -0.65109978479E+02  0.80133232214E+02  0.29189108732E+03  0.30965002997E+03  0.47000000000E+01 0.  1.
         11    1    4    4    0    0 -0.30208818294E+02 -0.33541524485E+01  0.48416483675E+02  0.57166239450E+02  0.00000000000E+00 0. -1.
        -12    1    4    4    0    0 -0.16099039143E+02  0.10181505212E+03  0.67111557260E+02  0.12300180900E+03  0.00000000000E+00 0.  1.
</event>
<event>
12    1  0.8135779E-002  0.1908650E+03  0.7818608E-02  0.1157995E+00
         21   -1    0    0  503  502  0.00000000000E+00  0.00000000000E+00  0.14026436704E+03  0.14026436704E+03  0.00000000000E+00 0.  1.
         21   -1    0    0  501  503 -0.00000000000E+00 -0.00000000000E+00 -0.29771701586E+03  0.29771701586E+03  0.00000000000E+00 0.  1.
          6    2    1    2  501    0 -0.77914082196E+02 -0.33414662644E+02 -0.15912336826E+03  0.24849485296E+03  0.17100380621E+03 0.  0.
         24    2    3    3    0    0 -0.36552163409E+02 -0.56483572742E+02 -0.26795017553E+02  0.10786816510E+03  0.79944439685E+02 0.  0.
         -6    2    1    2    0  502  0.77914082196E+02  0.33414662644E+02  0.16707194419E+01  0.18948652993E+03  0.16945562793E+03 0.  0.
        -24    2    5    5    0    0  0.10325332178E+02  0.50802196131E+02 -0.44829380727E+02  0.10549298991E+03  0.80197393522E+02 0.  0.
          5    1    3    3  501    0 -0.41361918786E+02  0.23068910098E+02 -0.13232835071E+03  0.14062668787E+03  0.47000000000E+01 0. -1.
        -13    1    4    4    0    0 -0.41452047569E+02  0.14520847582E+01 -0.27421277314E+02  0.49722301308E+02  0.00000000000E+00 0.  1.
         14    1    4    4    0    0  0.48998841595E+01 -0.57935657500E+02  0.62625976100E+00  0.58145863792E+02  0.00000000000E+00 0. -1.
         -5    1    5    5    0  502  0.67588750017E+02 -0.17387533487E+02  0.46500100168E+02  0.83993540021E+02  0.47000000000E+01 0.  1.
         13    1    6    6    0    0 -0.38333941710E+01  0.36001367423E+01  0.21909420677E+02  0.22531724520E+02  0.00000000000E+00 0. -1.
        -14    1    6    6    0    0  0.14158726349E+02  0.47202059389E+02 -0.66738801404E+02  0.82961265391E+02  0.00000000000E+00 0.  1.
</event>
<event>
12    1  0.8135779E-002  0.1761281E+03  0.7818608E-02  0.1171980E+00
         21   -1    0    0  501  502  0.00000000000E+00  0.00000000000E+00  0.31875310211E+03  0.31875310211E+03  0.00000000000E+00 0.  1.
         21   -1    0    0  502  503 -0.00000000000E+00 -0.00000000000E+00 -0.22890158102E+03  0.22890158102E+03  0.00000000000E+00 0.  1.
         -6    2    1    2    0  503  0.17163807372E+02  0.31023512855E+02 -0.16325552689E+03  0.24015298732E+03  0.17252256556E+03 0.  0.
        -24    2    3    3    0    0 -0.96024633540E+01  0.77221729437E+02 -0.68044825301E+02  0.13089239900E+03  0.80295199526E+02 0.  0.
          6    2    1    2  501    0 -0.17163807372E+02 -0.31023512855E+02  0.25310704798E+03  0.30750169580E+03  0.17098848076E+03 0.  0.
         24    2    5    5    0    0 -0.31604362858E+02  0.44479341509E+02  0.12199089762E+03  0.15544004533E+03  0.79388796549E+02 0.  0.
          5    1    5    5  501    0  0.14440555486E+02 -0.75502854364E+02  0.13111615036E+03  0.15206165048E+03  0.47000000000E+01 0. -1.
        -13    1    6    6    0    0 -0.55399907181E+02  0.29665673186E+02  0.10583825766E+03  0.12308914926E+03  0.00000000000E+00 0.  1.
         14    1    6    6    0    0  0.23795544324E+02  0.14813668323E+02  0.16152639961E+02  0.32350896070E+02  0.00000000000E+00 0. -1.
         -5    1    3    3    0  503  0.26766270726E+02 -0.46198216582E+02 -0.95210701586E+02  0.10926058832E+03  0.47000000000E+01 0.  1.
         13    1    4    4    0    0 -0.44379902618E+02  0.34121249320E+02 -0.28316948194E+02  0.62735037790E+02  0.00000000000E+00 0. -1.
        -14    1    4    4    0    0  0.34777439264E+02  0.43100480117E+02 -0.39727877107E+02  0.68157361213E+02  0.00000000000E+00 0.  1.
</event>
<event>
12    1  0.8135779E-002  0.1987692E+03  0.7818608E-02  0.1151035E+00
         21   -1    0    0  501  502  0.00000000000E+00  0.00000000000E+00  0.80570554220E+02  0.80570554220E+02  0.00000000000E+00 0. -1.
         21   -1    0    0  502  503 -0.00000000000E+00 -0.00000000000E+00 -0.65375188848E+03  0.65375188848E+03  0.00000000000E+00 0.  1.
         -6    2    1    2    0  503  0.40881367293E+02  0.88735286035E+02 -0.47241870442E+03  0.51253159924E+03  0.17310104202E+03 0.  0.
        -24    2    3    3    0    0  0.50670910976E+02 -0.13107351459E+02 -0.22747294665E+03  0.24703532388E+03  0.80889838088E+02 0.  0.
          6    2    1    2  501    0 -0.40881367293E+02 -0.88735286035E+02 -0.10076262984E+03  0.22179084346E+03  0.17173477660E+03 0.  0.
         24    2    5    5    0    0 -0.36956382216E+02  0.94051048076E+01 -0.27271371660E+02  0.99030927973E+02  0.87230538231E+02 0.  0.
          5    1    5    5  501    0 -0.39249850763E+01 -0.98140390843E+02 -0.73491258179E+02  0.12275991549E+03  0.47000000000E+01 0. -1.
        -13    1    6    6    0    0  0.11141587282E+02  0.34281358745E+02 -0.26733778719E+02  0.44878073145E+02  0.00000000000E+00 0.  1.
         14    1    6    6    0    0 -0.48097969499E+02 -0.24876253938E+02 -0.53759294087E+00  0.54152854828E+02  0.00000000000E+00 0. -1.
         -5    1    3    3    0  503 -0.97895436833E+01  0.10184263749E+03 -0.24494575777E+03  0.26549627535E+03  0.47000000000E+01 0.  1.
         13    1    4    4    0    0 -0.99997560095E+01 -0.21512380050E+01  0.11058420737E+01  0.10288140352E+02  0.00000000000E+00 0. -1.
        -14    1    4    4    0    0  0.60670666986E+02 -0.10956113454E+02 -0.22857878873E+03  0.23674718353E+03  0.00000000000E+00 0.  1.
</event>
<event>
12    1  0.8135779E-002  0.2022752E+03  0.7818608E-02  0.1148060E+00
         21   -1    0    0  503  502  0.00000000000E+00  0.00000000000E+00  0.99079384449E+03  0.99079384449E+03  0.00000000000E+00 0. -1.
         21   -1    0    0  501  503 -0.00000000000E+00 -0.00000000000E+00 -0.42095023195E+02  0.42095023195E+02  0.00000000000E+00 0.  1.
          6    2    1    2  501    0  0.99795506467E+02 -0.35946931708E+02  0.39514713273E+03  0.44391047874E+03  0.17223220261E+03 0.  0.
         24    2    3    3    0    0 -0.25125807618E+01 -0.51048079338E+02  0.13837730654E+03  0.16705704637E+03  0.78406366514E+02 0.  0.
         -6    2    1    2    0  502 -0.99795506467E+02  0.35946931708E+02  0.55355168856E+03  0.58897838895E+03  0.17095246627E+03 0.  0.
        -24    2    5    5    0    0  0.12505183538E+02  0.74093441937E+01  0.29752529811E+03  0.30791355393E+03  0.77962655670E+02 0.  0.
          5    1    3    3  501    0  0.10230808723E+03  0.15101147630E+02  0.25676982619E+03  0.27685343237E+03  0.47000000000E+01 0. -1.
        -13    1    4    4    0    0  0.28261351232E+02 -0.13448026115E+02  0.15507274181E+02  0.34928912556E+02  0.00000000000E+00 0.  1.
         14    1    4    4    0    0 -0.30773931994E+02 -0.37600053224E+02  0.12287003236E+03  0.13212813381E+03  0.00000000000E+00 0. -1.
         -5    1    5    5    0  502 -0.11230069000E+03  0.28537587514E+02  0.25602639045E+03  0.28106483502E+03  0.47000000000E+01 0.  1.
         13    1    6    6    0    0  0.30284435543E+02 -0.26747029936E+02  0.13697052648E+03  0.14280572737E+03  0.00000000000E+00 0. -1.
        -14    1    6    6    0    0 -0.17779252005E+02  0.34156374130E+02  0.16055477164E+03  0.16510782656E+03  0.00000000000E+00 0.  1.
</event>
<event>
12    1  0.8135779E-002  0.1895067E+03  0.7818608E-02  0.1159552E+00
         21   -1    0    0  501  502  0.00000000000E+00  0.00000000000E+00  0.10710245290E+04  0.10710245290E+04  0.00000000000E+00 0. -1.
         21   -1    0    0  502  503 -0.00000000000E+00 -0.00000000000E+00 -0.34944675743E+02  0.34944675743E+02  0.00000000000E+00 0. -1.
         -6    2    1    2    0  503  0.68306531642E+02 -0.38223384723E+02  0.65107084937E+03  0.67808999396E+03  0.17258615122E+03 0.  0.
        -24    2    3    3    0    0  0.54555343537E+02  0.37445690854E+02  0.45730704587E+03  0.46956803895E+03  0.83581958133E+02 0.  0.
          6    2    1    2  501    0 -0.68306531642E+02  0.38223384723E+02  0.38500900385E+03  0.42787921075E+03  0.16947529774E+03 0.  0.
         24    2    5    5    0    0 -0.10742673762E+03  0.76486250405E+01  0.24551468412E+03  0.27973751614E+03  0.79853693714E+02 0.  0.
          5    1    5    5  501    0  0.39120205973E+02  0.30574759682E+02  0.13949431973E+03  0.14814169461E+03  0.47000000000E+01 0. -1.
        -13    1    6    6    0    0 -0.51825207246E+02 -0.48157938468E+01  0.20042819569E+03  0.20707608651E+03  0.00000000000E+00 0.  1.
         14    1    6    6    0    0 -0.55601530370E+02  0.12464418887E+02  0.45086488433E+02  0.72661429637E+02  0.00000000000E+00 0. -1.
         -5    1    3    3    0  503  0.13751188105E+02 -0.75669075577E+02  0.19376380350E+03  0.20852195501E+03  0.47000000000E+01 0.  1.
         13    1    4    4    0    0  0.22683361281E+02  0.37147525190E+02  0.41131239895E+03  0.41360894942E+03  0.00000000000E+00 0. -1.
        -14    1    4    4    0    0  0.31871982256E+02  0.29816566443E+00  0.45994646915E+02  0.55959089526E+02  0.00000000000E+00 0.  1.
</event>
<event>
12    1  0.8135779E-002  0.1930749E+03  0.7818608E-02  0.1157945E+00
         21   -1    0    0  501  502  0.00000000000E+00  0.00000000000E+00  0.28064458225E+03  0.28064458225E+03  0.00000000000E+00 0.  1.
         21   -1    0    0  502  503 -0.00000000000E+00 -0.00000000000E+00 -0.12732694757E+03  0.12732694757E+03  0.00000000000E+00 0.  1.
         -6    2    1    2    0  503  0.93712911804E+01  0.62575153144E+02  0.94167677591E+02  0.20603928741E+03  0.17199176017E+03 0.  0.
        -24    2    3    3    0    0 -0.20289447526E+02 -0.24078406112E+02  0.22791516702E+02  0.89827217920E+02  0.80981754265E+02 0.  0.
          6    2    1    2  501    0 -0.93712911804E+01 -0.62575153144E+02  0.59149957081E+02  0.20193224241E+03  0.18241283456E+03 0.  0.
         24    2    5    5    0    0 -0.35033793992E+02 -0.88755122608E+02 -0.79760677850E+01  0.12530360503E+03  0.80824113146E+02 0.  0.
          5    1    5    5  501    0  0.25662502812E+02  0.26179969464E+02  0.67126024866E+02  0.76628637375E+02  0.47000000000E+01 0. -1.
        -13    1    6    6    0    0  0.38724468809E+01 -0.68403600176E+02  0.22207097380E+02  0.72022243341E+02  0.00000000000E+00 0.  1.
         14    1    6    6    0    0 -0.38906240873E+02 -0.20351522432E+02 -0.30183165165E+02  0.53281361690E+02  0.00000000000E+00 0. -1.
         -5    1    3    3    0  503  0.29660738706E+02  0.86653559256E+02  0.71376160889E+02  0.11621206949E+03  0.47000000000E+01 0.  1.
         13    1    4    4    0    0 -0.50633878278E+01  0.22823512387E+02 -0.14932836103E+02  0.27740587738E+02  0.00000000000E+00 0. -1.
        -14    1    4    4    0    0 -0.15226059698E+02 -0.46901918499E+02  0.37724352805E+02  0.62086630182E+02  0.00000000000E+00 0.  1.
</event>
<event>
12    1  0.8135779E-002  0.1902942E+03  0.7818608E-02  0.1159333E+00
         21   -1    0    0  501  502  0.00000000000E+00  0.00000000000E+00  0.27245571848E+03  0.27245571848E+03  0.00000000000E+00 0. -1.
         21   -1    0    0  502  503 -0.00000000000E+00 -0.00000000000E+00 -0.17922101452E+03  0.17922101452E+03  0.00000000000E+00 0. -1.
         -6    2    1    2    0  503  0.74898723557E+02  0.34315211508E+02 -0.72828685554E+02  0.19911202331E+03  0.16599466213E+03 0.  0.
        -24    2    3    3    0    0  0.96804195631E+00  0.64625313684E+02 -0.56520113816E+02  0.11742660547E+03  0.80106904397E+02 0.  0.
          6    2    1    2  501    0 -0.74898723557E+02 -0.34315211508E+02  0.16606338951E+03  0.25256470970E+03  0.17153580010E+03 0.  0.
         24    2    5    5    0    0 -0.25899284849E+02 -0.31024118748E+02  0.17984597168E+03  0.20134141562E+03  0.80997056818E+02 0.  0.
          5    1    5    5  501    0 -0.48999438708E+02 -0.32910927602E+01 -0.13782582166E+02  0.51223294080E+02  0.47000000000E+01 0. -1.
        -11    1    6    6    0    0  0.39406506394E+01  0.25386765108E+02  0.38858007311E+02  0.46582843433E+02  0.00000000000E+00 0.  1.
         12    1    6    6    0    0 -0.29839935488E+02 -0.56410883856E+02  0.14098796437E+03  0.15475857218E+03  0.00000000000E+00 0. -1.
         -5    1    3    3    0  503  0.73930681601E+02 -0.30310102176E+02 -0.16308571737E+02  0.81685417842E+02  0.47000000000E+01 0.  1.
         11    1    4    4    0    0  0.36826602261E+02  0.53621414283E+02 -0.30995882092E+02  0.72056917853E+02  0.00000000000E+00 0. -1.
        -12    1    4    4    0    0 -0.35858560305E+02  0.11003899401E+02 -0.25524231725E+02  0.45369687615E+02  0.00000000000E+00 0.  1.
</event>
<event>
12    1  0.8135779E-002  0.1932350E+03  0.7818608E-02  0.1155830E+00
         21   -1    0    0  503  502  0.00000000000E+00  0.00000000000E+00  0.23643284535E+03  0.23643284535E+03  0.00000000000E+00 0.  1.
         21   -1    0    0  501  503 -0.00000000000E+00 -0.00000000000E+00 -0.61587370642E+03  0.61587370642E+03  0.00000000000E+00 0.  1.
          6    2    1    2  501    0  0.86006383822E+02 -0.18355440916E+02 -0.55771369154E+03  0.59024089781E+03  0.17206317284E+03 0.  0.
         24    2    3    3    0    0 -0.46903397888E+00 -0.17675603956E+02 -0.41817804611E+03  0.42601317053E+03  0.79383223968E+02 0.  0.
         -6    2    1    2    0  502 -0.86006383822E+02  0.18355440916E+02  0.17827283046E+03  0.26206565396E+03  0.17077231811E+03 0.  0.
        -24    2    5    5    0    0  0.19511129982E+02  0.33448819243E+01  0.51065575553E+02  0.96044455602E+02  0.78898491856E+02 0.  0.
          5    1    3    3  501    0  0.86475417801E+02 -0.67983696055E+00 -0.13953564542E+03  0.16422772727E+03  0.47000000000E+01 0. -1.
        -13    1    4    4    0    0  0.11357448620E+02 -0.60086561164E+01 -0.40390994416E+03  0.40411426426E+03  0.00000000000E+00 0.  1.
         14    1    4    4    0    0 -0.11826482598E+02 -0.11666947839E+02 -0.14268101953E+02  0.21898906271E+02  0.00000000000E+00 0. -1.
         -5    1    5    5    0  502 -0.10551751380E+03  0.15010558992E+02  0.12720725491E+03  0.16602119835E+03  0.47000000000E+01 0.  1.
         11    1    6    6    0    0  0.17918435633E+02 -0.10972466443E+02 -0.16653230782E+02  0.26810360887E+02  0.00000000000E+00 0. -1.
        -12    1    6    6    0    0  0.15926943492E+01  0.14317348368E+02  0.67718806336E+02  0.69234094716E+02  0.00000000000E+00 0.  1.
</event>
<event>
12    1  0.8135779E-002  0.4543610E+03  0.7818608E-02  0.1026449E+00
         21   -1    0    0  501  502  0.00000000000E+00  0.00000000000E+00  0.10443108282E+04  0.10443108282E+04  0.00000000000E+00 0.  1.
         21   -1    0    0  502  503 -0.00000000000E+00 -0.00000000000E+00 -0.55505189123E+03  0.55505189123E+03  0.00000000000E+00 0.  1.
         -6    2    1    2    0  503 -0.24935759566E+03  0.33860938048E+03 -0.39711386671E+03  0.60344291842E+03  0.17207094347E+03 0.  0.
        -24    2    3    3    0    0 -0.10804350881E+03  0.21078082044E+03 -0.15149765187E+03  0.29254224795E+03  0.80792785886E+02 0.  0.
          6    2    1    2  501    0  0.24935759566E+03 -0.33860938048E+03  0.88637280364E+03  0.99591980096E+03  0.17135921294E+03 0.  0.
         24    2    5    5    0    0  0.16939345139E+03 -0.25871458081E+03  0.77071928130E+03  0.83413206777E+03  0.78362747579E+02 0.  0.
          5    1    5    5  501    0  0.79964144278E+02 -0.79894799675E+02  0.11565352233E+03  0.16178773320E+03  0.47000000000E+01 0. -1.
        -11    1    6    6    0    0  0.60205612395E+02 -0.15241670768E+03  0.34451941603E+03  0.38150910417E+03  0.00000000000E+00 0.  1.
         12    1    6    6    0    0  0.10918783899E+03 -0.10629787313E+03  0.42619986527E+03  0.45262296360E+03  0.00000000000E+00 0. -1.
         -5    1    3    3    0  503 -0.14131408685E+03  0.12782856004E+03 -0.24561621484E+03  0.31090067047E+03  0.47000000000E+01 0.  1.
         11    1    4    4    0    0 -0.36992479658E+01 -0.43854780832E+01  0.42697322627E+01  0.71517457397E+01  0.00000000000E+00 0. -1.
        -12    1    4    4    0    0 -0.10434426084E+03  0.21516629852E+03 -0.15576738414E+03  0.28539050221E+03  0.00000000000E+00 0.  1.
</event>
<event>
12    1  0.8135779E-002  0.2165553E+03  0.7818608E-02  0.1136501E+00
         21   -1    0    0  501  502  0.00000000000E+00  0.00000000000E+00  0.89432679261E+03  0.89432679261E+03  0.00000000000E+00 0.  1.
         21   -1    0    0  502  503 -0.00000000000E+00 -0.00000000000E+00 -0.80338588127E+02  0.80338588127E+02  0.00000000000E+00 0.  1.
         -6    2    1    2    0  503  0.77056487225E+02  0.10726695063E+03  0.11956978762E+03  0.24726376001E+03  0.17146000111E+03 0.  0.
        -24    2    3    3    0    0 -0.74407009916E+00  0.11088663599E+03  0.88691386468E+02  0.16334955084E+03  0.80749699967E+02 0.  0.
          6    2    1    2  501    0 -0.77056487225E+02 -0.10726695063E+03  0.69441841686E+03  0.72740162073E+03  0.17161666366E+03 0.  0.
         24    2    5    5    0    0 -0.55070483964E+02 -0.83503516906E+02  0.24146495448E+03  0.27326836473E+03  0.79778940710E+02 0.  0.
          5    1    5    5  501    0 -0.21986003261E+02 -0.23763433721E+02  0.45295346238E+03  0.45413325600E+03  0.47000000000E+01 0. -1.
        -13    1    6    6    0    0 -0.33241525017E+02 -0.34056797848E+02  0.19877391156E+03  0.20439161524E+03  0.00000000000E+00 0.  1.
         14    1    6    6    0    0 -0.21828958947E+02 -0.49446719058E+02  0.42691042922E+02  0.68876749488E+02  0.00000000000E+00 0. -1.
         -5    1    3    3    0  503  0.77800557325E+02 -0.36196853622E+01  0.30878401152E+02  0.83914209165E+02  0.47000000000E+01 0.  1.
         11    1    4    4    0    0 -0.22606942967E+02  0.22752478326E+01  0.31010745402E+02  0.38443685481E+02  0.00000000000E+00 0. -1.
        -12    1    4    4    0    0  0.21862872867E+02  0.10861138816E+03  0.57680641066E+02  0.12490586536E+03  0.00000000000E+00 0.  1.
</event>
<event>
12    1  0.8135779E-002  0.1856249E+03  0.7818608E-02  0.1162794E+00
         21   -1    0    0  501  502  0.00000000000E+00  0.00000000000E+00  0.26719100281E+03  0.26719100281E+03  0.00000000000E+00 0. -1.
         21   -1    0    0  502  503 -0.00000000000E+00 -0.00000000000E+00 -0.12937821682E+03  0.12937821682E+03  0.00000000000E+00 0. -1.
         -6    2    1    2    0  503  0.39709499184E+02  0.54691615941E+02  0.48608734883E+02  0.19188387675E+03  0.17288318562E+03 0.  0.
        -24    2    3    3    0    0 -0.25537512120E+02  0.70760316447E+02  0.40990296935E+02  0.12409371362E+03  0.89776714181E+02 0.  0.
          6    2    1    2  501    0 -0.39709499184E+02 -0.54691615941E+02  0.89204051102E+02  0.20468534288E+03  0.17137884839E+03 0.  0.
         24    2    5    5    0    0 -0.63403560445E+02  0.20217098700E+02  0.58037189133E+02  0.12003200654E+03  0.81305748347E+02 0.  0.
          5    1    5    5  501    0  0.23694061262E+02 -0.74908714641E+02  0.31166861968E+02  0.84653336338E+02  0.47000000000E+01 0. -1.
        -13    1    6    6    0    0  0.44756195807E+01  0.17101117483E+02 -0.12836835867E+02  0.21846366858E+02  0.00000000000E+00 0.  1.
         14    1    6    6    0    0 -0.67879180026E+02  0.31159812167E+01  0.70874025000E+02  0.98185639682E+02  0.00000000000E+00 0. -1.
         -5    1    3    3    0  503  0.65247011304E+02 -0.16068700506E+02  0.76184379479E+01  0.67790163128E+02  0.47000000000E+01 0.  1.
         11    1    4    4    0    0  0.32414350366E+02  0.38865175230E+02  0.22674611511E+02  0.55455657624E+02  0.00000000000E+00 0. -1.
        -12    1    4    4    0    0 -0.57951862486E+02  0.31895141217E+02  0.18315685424E+02  0.68638056000E+02  0.00000000000E+00 0.  1.
</event>
<event>
12    1  0.8135779E-002  0.2354842E+03  0.7818608E-02  0.1123760E+00
         21   -1    0    0  503  502  0.00000000000E+00  0.00000000000E+00  0.51405656087E+03  0.51405656087E+03  0.00000000000E+00 0.  1.
         21   -1    0    0  501  503 -0.00000000000E+00 -0.00000000000E+00 -0.16630632151E+03  0.16630632151E+03  0.00000000000E+00 0. -1.
          6    2    1    2  501    0  0.54332382380E+02 -0.14297057885E+03 -0.33174134576E+02  0.23252786590E+03  0.17197700725E+03 0.  0.
         24    2    3    3    0    0 -0.13444424891E+02 -0.60624787129E+02 -0.61292432090E+02  0.12213197072E+03  0.85459573280E+02 0.  0.
         -6    2    1    2    0  502 -0.54332382380E+02  0.14297057885E+03  0.38092437394E+03  0.44783501649E+03  0.17905370463E+03 0.  0.
        -24    2    5    5    0    0 -0.95889156366E+02  0.14115436037E+03  0.27171408917E+03  0.33087673156E+03  0.80818200157E+02 0.  0.
          5    1    3    3  501    0  0.67776807271E+02 -0.82345791717E+02  0.28118297514E+02  0.11039589518E+03  0.47000000000E+01 0. -1.
        -11    1    4    4    0    0  0.22211817356E+02 -0.36200572269E+01  0.95625252405E+01  0.24452229623E+02  0.00000000000E+00 0.  1.
         12    1    4    4    0    0 -0.35656242246E+02 -0.57004729902E+02 -0.70854957330E+02  0.97679741096E+02  0.00000000000E+00 0. -1.
         -5    1    5    5    0  502  0.41556773985E+02  0.18162184756E+01  0.10921028477E+03  0.11695828493E+03  0.47000000000E+01 0.  1.
         13    1    6    6    0    0 -0.28204223727E+02  0.32025778051E+02  0.17605267356E+02  0.46163558513E+02  0.00000000000E+00 0. -1.
        -14    1    6    6    0    0 -0.67684932638E+02  0.10912858232E+03  0.25410882181E+03  0.28471317305E+03  0.00000000000E+00 0.  1.
</event>
<event>
12    1  0.8135779E-002  0.3125454E+03  0.7818608E-02  0.1079214E+00
         21   -1    0    0  501  502  0.00000000000E+00  0.00000000000E+00  0.11055705865E+04  0.11055705865E+04  0.00000000000E+00 0.  1.
         21   -1    0    0  502  503 -0.00000000000E+00 -0.00000000000E+00 -0.11086815576E+03  0.11086815576E+03  0.00000000000E+00 0. -1.
         -6    2    1    2    0  503 -0.20777661787E+03 -0.15681584850E+03  0.22167375745E+03  0.38261744166E+03  0.17173968277E+03 0.  0.
        -24    2    3    3    0    0 -0.15487333745E+03 -0.10812739505E+03  0.74175449423E+02  0.21846152964E+03  0.80908333452E+02 0.  0.
          6    2    1    2  501    0  0.20777661787E+03  0.15681584850E+03  0.77302867330E+03  0.83382130061E+03  0.17298062993E+03 0.  0.
         24    2    5    5    0    0  0.10676463073E+03  0.14933532421E+03  0.60831192107E+03  0.64039669448E+03  0.79779744033E+02 0.  0.
          5    1    5    5  501    0  0.10101198714E+03  0.74805242961E+01  0.16471675223E+03  0.19342460613E+03  0.47000000000E+01 0. -1.
        -11    1    6    6    0    0  0.55467693081E+01  0.10053351599E+02  0.15601523163E+03  0.15643717278E+03  0.00000000000E+00 0.  1.
         12    1    6    6    0    0  0.10121786142E+03  0.13928197261E+03  0.45229668944E+03  0.48395952170E+03  0.00000000000E+00 0. -1.
         -5    1    3    3    0  503 -0.52903280428E+02 -0.48688453456E+02  0.14749830803E+03  0.16415591202E+03  0.47000000000E+01 0.  1.
         11    1    4    4    0    0 -0.11755930613E+03 -0.35078157379E+02  0.35109044077E+02  0.12760608355E+03  0.00000000000E+00 0. -1.
        -12    1    4    4    0    0 -0.37314031319E+02 -0.73049237669E+02  0.39066405347E+02  0.90855446089E+02  0.00000000000E+00 0.  1.
</event>
<event>
12    1  0.8135779E-002  0.1902703E+03  0.7818608E-02  0.1158267E+00
         21   -1    0    0  501  502  0.00000000000E+00  0.00000000000E+00  0.10556757229E+03  0.10556757229E+03  0.00000000000E+00 0.  1.
         21   -1    0    0  502  503 -0.00000000000E+00 -0.00000000000E+00 -0.55628912595E+03  0.55628912595E+03  0.00000000000E+00 0.  1.
         -6    2    1    2    0  503 -0.29419948488E+02  0.75243148940E+02 -0.43041380309E+03  0.47050572556E+03  0.17202479781E+03 0.  0.
        -24    2    3    3    0    0 -0.69719303981E+02  0.82293897132E+01 -0.18402723644E+03  0.21196498949E+03  0.78323871311E+02 0.  0.
          6    2    1    2  501    0  0.29419948488E+02 -0.75243148940E+02 -0.20307750568E+02  0.19135097269E+03  0.17226643661E+03 0.  0.
         24    2    5    5    0    0  0.34129008314E+02 -0.10289357549E+03  0.24675241131E+02  0.13813179499E+03  0.81973460192E+02 0.  0.
          5    1    5    5  501    0 -0.47090598258E+01  0.27650426549E+02 -0.44982991699E+02  0.53219177699E+02  0.47000000000E+01 0. -1.
        -13    1    6    6    0    0  0.47000625700E+02 -0.19421666674E+02  0.30390952985E+01  0.50946011157E+02  0.00000000000E+00 0.  1.
         14    1    6    6    0    0 -0.12871617386E+02 -0.83471908816E+02  0.21636145832E+02  0.87185783830E+02  0.00000000000E+00 0. -1.
         -5    1    3    3    0  503  0.40299355493E+02  0.67013759227E+02 -0.24638656665E+03  0.25854073607E+03  0.47000000000E+01 0.  1.
         13    1    4    4    0    0  0.10881415633E+02  0.14599091946E+02 -0.11782037224E+02  0.21687671452E+02  0.00000000000E+00 0. -1.
        -14    1    4    4    0    0 -0.80600719614E+02 -0.63697022331E+01 -0.17224519921E+03  0.19027731804E+03  0.00000000000E+00 0.  1.
</event>
<event>
12    1  0.8135779E-002  0.1961079E+03  0.7818608E-02  0.1153401E+00
         21   -1    0    0  503  502  0.00000000000E+00  0.00000000000E+00  0.28259814925E+03  0.28259814925E+03  0.00000000000E+00 0.  1.
         21   -1    0    0  501  503 -0.00000000000E+00 -0.00000000000E+00 -0.23926733667E+03  0.23926733667E+03  0.00000000000E+00 0. -1.
          6    2    1    2  501    0 -0.14877409288E+02 -0.90559614339E+02 -0.15061782478E+03  0.24604960671E+03  0.17155844125E+03 0.  0.
         24    2    3    3    0    0 -0.23285491008E+02 -0.10639937312E+03 -0.51703071883E+02  0.14541257507E+03  0.81293103369E+02 0.  0.
         -6    2    1    2    0  502  0.14877409288E+02  0.90559614339E+02  0.19394863735E+03  0.27581587921E+03  0.17330881177E+03 0.  0.
        -24    2    5    5    0    0  0.29352467572E+02  0.33732221384E+02  0.19702567466E+03  0.21690545517E+03  0.78926737521E+02 0.  0.
          5    1    3    3  501    0  0.84080817202E+01  0.15839758782E+02 -0.98914752895E+02  0.10063703164E+03  0.47000000000E+01 0. -1.
        -13    1    4    4    0    0 -0.50398994105E+02 -0.89017694892E+02 -0.30098337171E+02  0.10663075781E+03  0.00000000000E+00 0.  1.
         14    1    4    4    0    0  0.27113503097E+02 -0.17381678229E+02 -0.21604734712E+02  0.38781817263E+02  0.00000000000E+00 0. -1.
         -5    1    5    5    0  502 -0.14475058284E+02  0.56827392955E+02 -0.30770373038E+01  0.58910424043E+02  0.47000000000E+01 0.  1.
         11    1    6    6    0    0  0.13516902657E+02  0.33133524577E+02  0.23845339962E+02  0.43001597020E+02  0.00000000000E+00 0. -1.
        -12    1    6    6    0    0  0.15835564915E+02  0.59869680725E+00  0.17318033469E+03  0.17390385815E+03  0.00000000000E+00 0.  1.
</event>
<event>
12    1  0.8135779E-002  0.1923914E+03  0.7818608E-02  0.1156339E+00
         21   -1    0    0  503  502  0.00000000000E+00  0.00000000000E+00  0.37022823308E+02  0.37022823308E+02  0.00000000000E+00 0. -1.
         21   -1    0    0  501  503 -0.00000000000E+00 -0.00000000000E+00 -0.10144017799E+04  0.10144017799E+04  0.00000000000E+00 0. -1.
          6    2    1    2  501    0  0.63304509287E+02 -0.57443104844E+02 -0.42479531088E+03  0.46633196278E+03  0.17235797681E+03 0.  0.
         24    2    3    3    0    0 -0.16407183302E+02 -0.49620640189E+02 -0.12330218552E+03  0.15434584204E+03  0.76732042886E+02 0.  0.
         -6    2    1    2    0  502 -0.63304509287E+02  0.57443104844E+02 -0.55258364571E+03  0.58509264044E+03  0.17227170746E+03 0.  0.
        -24    2    5    5    0    0 -0.50762147698E+02  0.51243776539E+02 -0.55882888570E+03  0.56906655145E+03  0.79651090512E+02 0.  0.
          5    1    3    3  501    0  0.79711692589E+02 -0.78224646557E+01 -0.30149312537E+03  0.31198612074E+03  0.47000000000E+01 0. -1.
        -13    1    4    4    0    0 -0.13976650717E+02 -0.66548618898E+02 -0.11842958334E+03  0.13656365422E+03  0.00000000000E+00 0.  1.
         14    1    4    4    0    0 -0.24305325844E+01  0.16927978710E+02 -0.48726021746E+01  0.17782187824E+02  0.00000000000E+00 0. -1.
         -5    1    5    5    0  502 -0.12542361589E+02  0.61993283052E+01  0.62452399836E+01  0.16026088984E+02  0.47000000000E+01 0.  1.
         11    1    6    6    0    0 -0.45895697478E+02  0.24245888142E+02 -0.13954448854E+03  0.14888566896E+03  0.00000000000E+00 0. -1.
        -12    1    6    6    0    0 -0.48664502201E+01  0.26997888397E+02 -0.41928439716E+03  0.42018088250E+03  0.00000000000E+00 0.  1.
</event>
<event>
12    1  0.8135779E-002  0.1965648E+03  0.7818608E-02  0.1153158E+00
         21   -1    0    0  501  502  0.00000000000E+00  0.00000000000E+00  0.35299560546E+03  0.35299560546E+03  0.00000000000E+00 0.  1.
         21   -1    0    0  502  503 -0.00000000000E+00 -0.00000000000E+00 -0.17743659799E+03  0.17743659799E+03  0.00000000000E+00 0. -1.
         -6    2    1    2    0  503  0.68052740470E+02 -0.59671154353E+02 -0.78187727397E+02  0.20945694456E+03  0.17195077424E+03 0.  0.
        -24    2    3    3    0    0  0.75168744208E+02 -0.98854174787E+02 -0.82444254821E+02  0.16913133700E+03  0.79911613819E+02 0.  0.
          6    2    1    2  501    0 -0.68052740470E+02  0.59671154353E+02  0.25374673486E+03  0.32097525888E+03  0.17448750447E+03 0.  0.
         24    2    5    5    0    0 -0.86241580864E+02 -0.33383077249E+01  0.21305570615E+03  0.24365206673E+03  0.80776488743E+02 0.  0.
          5    1    5    5  501    0  0.18188840394E+02  0.63009462078E+02  0.40691028717E+02  0.77323192150E+02  0.47000000000E+01 0. -1.
        -11    1    6    6    0    0 -0.16491988120E+02  0.16783769043E+02  0.13508399793E+03  0.13711807712E+03  0.00000000000E+00 0.  1.
         12    1    6    6    0    0 -0.69749592743E+02 -0.20122076768E+02  0.77971708213E+02  0.10653398961E+03  0.00000000000E+00 0. -1.
         -5    1    3    3    0  503 -0.71160037386E+01  0.39183020434E+02  0.42565274240E+01  0.40325607562E+02  0.47000000000E+01 0.  1.
         11    1    4    4    0    0 -0.12971119381E+01 -0.11662086335E+02 -0.46141656686E+02  0.47610285011E+02  0.00000000000E+00 0. -1.
        -12    1    4    4    0    0  0.76465856146E+02 -0.87192088451E+02 -0.36302598134E+02  0.12152105199E+03  0.00000000000E+00 0.  1.
</event>
<event>
12    1  0.8135779E-002  0.1884278E+03  0.7818608E-02  0.1160287E+00
         21   -1    0    0  501  502  0.00000000000E+00  0.00000000000E+00  0.86138626785E+02  0.86138626785E+02  0.00000000000E+00 0. -1.
         21   -1    0    0  502  503 -0.00000000000E+00 -0.00000000000E+00 -0.44955181651E+03  0.44955181651E+03  0.00000000000E+00 0.  1.
         -6    2    1    2    0  503  0.32604818631E+02 -0.68107633518E+02 -0.26200215825E+03  0.32170627134E+03  0.17072805905E+03 0.  0.
        -24    2    3    3    0    0  0.61332538073E+02  0.12353933395E+02 -0.14557907267E+03  0.17722177227E+03  0.79372478041E+02 0.  0.
          6    2    1    2  501    0 -0.32604818631E+02  0.68107633518E+02 -0.10141103147E+03  0.21398417195E+03  0.17263633627E+03 0.  0.
         24    2    5    5    0    0  0.34478854545E+02  0.10746647232E+01 -0.74479352779E+02  0.11528744744E+03  0.80957243234E+02 0.  0.
          5    1    5    5  501    0 -0.67083673176E+02  0.67032968795E+02 -0.26931678689E+02  0.98696724511E+02  0.47000000000E+01 0. -1.
        -11    1    6    6    0    0 -0.39702394332E+01 -0.23622031531E+02  0.41819702996E+01  0.24315674994E+02  0.00000000000E+00 0.  1.
         12    1    6    6    0    0  0.38449093978E+02  0.24696696255E+02 -0.78661323078E+02  0.90971772447E+02  0.00000000000E+00 0. -1.
         -5    1    3    3    0  503 -0.28727719442E+02 -0.80461566913E+02 -0.11642308558E+03  0.14448449907E+03  0.47000000000E+01 0.  1.
         11    1    4    4    0    0  0.21595911835E+02  0.93820947157E+01 -0.13353322809E+03  0.13559325246E+03  0.00000000000E+00 0. -1.
        -12    1    4    4    0    0  0.39736626238E+02  0.29718386797E+01 -0.12045844584E+02  0.41628519812E+02  0.00000000000E+00 0.  1.
</event>
<event>
12    1  0.8135779E-002  0.2010726E+03  0.7818608E-02  0.1148856E+00
         21   -1    0    0  503  502  0.00000000000E+00  0.00000000000E+00  0.47171191537E+03  0.47171191537E+03  0.00000000000E+00 0.  1.
         21   -1    0    0  501  503 -0.00000000000E+00 -0.00000000000E+00 -0.94570620242E+02  0.94570620242E+02  0.00000000000E+00 0.  1.
          6    2    1    2  501    0  0.10234017932E+03  0.27326005986E+02  0.10167528397E+03  0.22523750420E+03  0.17080353339E+03 0.  0.
         24    2    3    3    0    0  0.12507190740E+03 -0.19346263879E+02  0.70927055704E+02  0.16471828595E+03  0.78001324012E+02 0.  0.
         -6    2    1    2    0  502 -0.10234017932E+03 -0.27326005986E+02  0.27546601115E+03  0.34104503141E+03  0.17090923685E+03 0.  0.
        -24    2    5    5    0    0 -0.26189770703E+02 -0.10284267337E+02  0.24126595200E+03  0.25571602324E+03  0.79935941237E+02 0.  0.
          5    1    3    3  501    0 -0.22731728080E+02  0.46672269865E+02  0.30748228269E+02  0.60519218250E+02  0.47000000000E+01 0. -1.
        -13    1    4    4    0    0  0.92700626098E+02  0.22720220200E+02  0.42118677219E+02  0.10432448157E+03  0.00000000000E+00 0.  1.
         14    1    4    4    0    0  0.32371281307E+02 -0.42066484079E+02  0.28808378485E+02  0.60393804378E+02  0.00000000000E+00 0. -1.
         -5    1    5    5    0  502 -0.76150408621E+02 -0.17041738649E+02  0.34200059148E+02  0.85329008169E+02  0.47000000000E+01 0.  1.
         13    1    6    6    0    0  0.12683802136E+02  0.10540681631E+02  0.17704336921E+03  0.17780984052E+03  0.00000000000E+00 0. -1.
        -14    1    6    6    0    0 -0.38873572840E+02 -0.20824948968E+02  0.64222582798E+02  0.77906182721E+02  0.00000000000E+00 0.  1.
</event>
<event>
12    1  0.8135779E-002  0.2356338E+03  0.7818608E-02  0.1122880E+00
         21   -1    0    0  503  502  0.00000000000E+00  0.00000000000E+00  0.40182315816E+03  0.40182315816E+03  0.00000000000E+00 0.  1.
         21   -1    0    0  501  503 -0.00000000000E+00 -0.00000000000E+00 -0.15363688439E+03  0.15363688439E+03  0.00000000000E+00 0. -1.
          6    2    1    2  501    0  0.15495450646E+03  0.40052385045E+02  0.34401813216E+02  0.23729803185E+03  0.17178992563E+03 0.  0.
         24    2    3    3    0    0  0.10159852614E+03  0.17194354441E+02 -0.46844923323E+02  0.13733567695E+03  0.77773613680E+02 0.  0.
         -6    2    1    2    0  502 -0.15495450646E+03 -0.40052385045E+02  0.21378446056E+03  0.31816201069E+03  0.17293980702E+03 0.  0.
        -24    2    5    5    0    0 -0.56028475009E+02  0.42666434493E+02  0.10139302302E+03  0.14704015927E+03  0.79878962662E+02 0.  0.
          5    1    3    3  501    0  0.53355980321E+02  0.22858030604E+02  0.81246736539E+02  0.99962354901E+02  0.47000000000E+01 0. -1.
        -11    1    4    4    0    0  0.15047223625E+02  0.79875835662E+01  0.20954612218E+02  0.27005854981E+02  0.00000000000E+00 0.  1.
         12    1    4    4    0    0  0.86551302512E+02  0.92067708746E+01 -0.67799535541E+02  0.11032982197E+03  0.00000000000E+00 0. -1.
         -5    1    5    5    0  502 -0.98926031448E+02 -0.82718819537E+02  0.11239143754E+03  0.17112185143E+03  0.47000000000E+01 0.  1.
         11    1    6    6    0    0 -0.43911190851E+02  0.43238922281E+02  0.20062201566E+02  0.64809636735E+02  0.00000000000E+00 0. -1.
        -12    1    6    6    0    0 -0.12117284157E+02 -0.57248778859E+00  0.81330821453E+02  0.82230522531E+02  0.00000000000E+00 0.  1.
</event>
<event>
12    1  0.8135779E-002  0.1775256E+03  0.7818608E-02  0.1170361E+00
         21   -1    0    0  503  502  0.00000000000E+00  0.00000000000E+00  0.25604229827E+03  0.25604229827E+03  0.00000000000E+00 0. -1.
         21   -1    0    0  501  503 -0.00000000000E+00 -0.00000000000E+00 -0.15027224857E+03  0.15027224857E+03  0.00000000000E+00 0. -1.
          6    2    1    2  501    0 -0.39797639798E+02 -0.13655559455E+02 -0.34222120180E+02  0.18023239889E+03  0.17187855498E+03 0.  0.
         24    2    3    3    0    0 -0.14141843704E+02  0.71057812353E+02 -0.72163527730E+01  0.87571853298E+02  0.48657469139E+02 0.  0.
         -6    2    1    2    0  502  0.39797639798E+02  0.13655559455E+02  0.13999216988E+03  0.22608214795E+03  0.17246739854E+03 0.  0.
        -24    2    5    5    0    0 -0.28463004762E+02  0.44575943327E+02  0.11069842809E+03  0.14548562792E+03  0.78196985773E+02 0.  0.
          5    1    3    3  501    0 -0.25655796095E+02 -0.84713371808E+02 -0.27005767407E+02  0.92660545592E+02  0.47000000000E+01 0. -1.
        -13    1    4    4    0    0 -0.32086433232E+02  0.46709846804E+02 -0.84776272629E+01  0.57299381760E+02  0.00000000000E+00 0.  1.
         14    1    4    4    0    0  0.17944589529E+02  0.24347965549E+02  0.12612744899E+01  0.30272471538E+02  0.00000000000E+00 0. -1.
         -5    1    5    5    0  502  0.68260644561E+02 -0.30920383872E+02  0.29293741782E+02  0.80596520038E+02  0.47000000000E+01 0.  1.
         11    1    6    6    0    0  0.93543409448E+01  0.50440973773E+02  0.39842859334E+02  0.64955746240E+02  0.00000000000E+00 0. -1.
        -12    1    6    6    0    0 -0.37817345707E+02 -0.58650304459E+01  0.70855568760E+02  0.80529881676E+02  0.00000000000E+00 0.  1.
</event>
<event>
12    1  0.8135779E-002  0.2020808E+03  0.7818608E-02  0.1148166E+00
         21   -1    0    0  501  502  0.00000000000E+00  0.00000000000E+00  0.17333107588E+03  0.17333107588E+03  0.00000000000E+00 0. -1.
         21   -1    0    0  502  503 -0.00000000000E+00 -0.00000000000E+00 -0.37707197656E+03  0.37707197656E+03  0.00000000000E+00 0. -1.
         -6    2    1    2    0  503 -0.23910294277E+01  0.10515712216E+03 -0.27087582981E+03  0.33746230426E+03  0.17159065900E+03 0.  0.
        -24    2    3    3    0    0 -0.49340314431E+02  0.11940896669E+03 -0.20910324574E+03  0.25843514072E+03  0.79822218852E+02 0.  0.
          6    2    1    2  501    0  0.23910294277E+01 -0.10515712216E+03  0.67134929125E+02  0.21294074818E+03  0.17254832994E+03 0.  0.
         24    2    5    5    0    0 -0.10769407489E+02  0.78994681836E+01 -0.68749674283E+01  0.77093243575E+02  0.75615615402E+02 0.  0.
          5    1    5    5  501    0  0.13160436916E+02 -0.11305659034E+03  0.74009896553E+02  0.13584750460E+03  0.47000000000E+01 0. -1.
        -13    1    6    6    0    0 -0.37694979615E+02 -0.11154230507E+02  0.92398641875E+01  0.40381969202E+02  0.00000000000E+00 0.  1.
         14    1    6    6    0    0  0.26925572127E+02  0.19053698691E+02 -0.16114831616E+02  0.36711274374E+02  0.00000000000E+00 0. -1.
         -5    1    3    3    0  503  0.46949285003E+02 -0.14251844536E+02 -0.61772584067E+02  0.79027163540E+02  0.47000000000E+01 0.  1.
         11    1    4    4    0    0 -0.46850242160E+02  0.86374160494E+02 -0.84803118494E+02  0.12979603113E+03  0.00000000000E+00 0. -1.
        -12    1    4    4    0    0 -0.24900722704E+01  0.33034806199E+02 -0.12430012725E+03  0.12863910959E+03  0.00000000000E+00 0.  1.
</event>
<event>
12    1  0.8135779E-002  0.2545162E+03  0.7818608E-02  0.1110515E+00
         21   -1    0    0  503  502  0.00000000000E+00  0.00000000000E+00  0.50762254645E+03  0.50762254645E+03  0.00000000000E+00 0. -1.
         21   -1    0    0  501  503 -0.00000000000E+00 -0.00000000000E+00 -0.15288124610E+03  0.15288124610E+03  0.00000000000E+00 0. -1.
          6    2    1    2  501    0 -0.66712609923E+02  0.17535635294E+03  0.42888875837E+02  0.25810452495E+03  0.17198275289E+03 0.  0.
         24    2    3    3    0    0  0.28586312712E+01  0.85521874513E+02  0.76657096813E+02  0.13947580219E+03  0.79088723039E+02 0.  0.
         -6    2    1    2    0  502  0.66712609923E+02 -0.17535635294E+03  0.31185242452E+03  0.40239926760E+03  0.17167647786E+03 0.  0.
        -24    2    5    5    0    0  0.47735258404E+02 -0.10166777190E+03  0.91599510737E+02  0.16932506724E+03  0.87552939930E+02 0.  0.
          5    1    3    3  501    0 -0.69571241194E+02  0.89834478425E+02 -0.33768220977E+02  0.11862872276E+03  0.47000000000E+01 0. -1.
        -11    1    4    4    0    0 -0.19288945130E+02  0.20933233261E+02  0.63982911413E+02  0.70029112602E+02  0.00000000000E+00 0.  1.
         12    1    4    4    0    0  0.22147576401E+02  0.64588641252E+02  0.12674185400E+02  0.69446689589E+02  0.00000000000E+00 0. -1.
         -5    1    5    5    0  502  0.18977351518E+02 -0.73688581038E+02  0.22025291378E+03  0.23307420036E+03  0.47000000000E+01 0.  1.
         13    1    6    6    0    0  0.52916941887E+02 -0.11479190070E+03  0.89904696746E+02  0.15511362836E+03  0.00000000000E+00 0. -1.
        -14    1    6    6    0    0 -0.51816834829E+01  0.13124128804E+02  0.16948139915E+01  0.14211438880E+02  0.00000000000E+00 0.  1.
</event>
<event>
12    1  0.8135779E-002  0.2268939E+03  0.7818608E-02  0.1129119E+00
         21   -1    0    0  501  502  0.00000000000E+00  0.00000000000E+00  0.36628841184E+02  0.36628841184E+02  0.00000000000E+00 0.  1.
         21   -1    0    0  502  503 -0.00000000000E+00 -0.00000000000E+00 -0.14222406089E+04  0.14222406089E+04  0.00000000000E+00 0.  1.
         -6    2    1    2    0  503  0.11439723414E+03 -0.93069881463E+02 -0.59613595972E+03  0.63785494524E+03  0.17243003994E+03 0.  0.
        -24    2    3    3    0    0  0.12475106079E+03 -0.12520564275E+03 -0.50891848173E+03  0.54421260788E+03  0.77006891766E+02 0.  0.
          6    2    1    2  501    0 -0.11439723414E+03  0.93069881463E+02 -0.78947580800E+03  0.82101450486E+03  0.17042310802E+03 0.  0.
         24    2    5    5    0    0 -0.11746490475E+03  0.96227076687E+02 -0.79452935532E+03  0.81282873519E+03  0.79724539186E+02 0.  0.
          5    1    5    5  501    0  0.30676706068E+01 -0.31571952233E+01  0.50535473140E+01  0.81857696696E+01  0.47000000000E+01 0. -1.
        -11    1    6    6    0    0 -0.30339736729E+02 -0.72557469368E+01 -0.24093453863E+03  0.24294566758E+03  0.00000000000E+00 0.  1.
         12    1    6    6    0    0 -0.87125168022E+02  0.10348282362E+03 -0.55359481669E+03  0.56988306761E+03  0.00000000000E+00 0. -1.
         -5    1    3    3    0  503 -0.10353826646E+02  0.32135761285E+02 -0.87217477989E+02  0.93642337361E+02  0.47000000000E+01 0.  1.
         13    1    4    4    0    0  0.88578989653E+02 -0.64701024796E+02 -0.39757849761E+03  0.41243317250E+03  0.00000000000E+00 0. -1.
        -14    1    4    4    0    0  0.36172071136E+02 -0.60504617951E+02 -0.11133998413E+03  0.13177943538E+03  0.00000000000E+00 0.  1.
</event>
<event>
12    1  0.8135779E-002  0.1816673E+03  0.7818608E-02  0.1168262E+00
         21   -1    0    0  501  502  0.00000000000E+00  0.00000000000E+00  0.27349634667E+02  0.27349634667E+02  0.00000000000E+00 0. -1.
         21   -1    0    0  502  503 -0.00000000000E+00 -0.00000000000E+00 -0.11519442255E+04  0.11519442255E+04  0.00000000000E+00 0. -1.
         -6    2    1    2    0  503 -0.42210509168E+02  0.42564611270E+02 -0.53713804146E+03  0.56438882340E+03  0.16255459138E+03 0.  0.
        -24    2    3    3    0    0 -0.90524036569E+02  0.37763903733E+02 -0.46021121551E+03  0.47330056799E+03  0.50974024331E+02 0.  0.
          6    2    1    2  501    0  0.42210509168E+02 -0.42564611270E+02 -0.58745654938E+03  0.61490503678E+03  0.17149208036E+03 0.  0.
         24    2    5    5    0    0  0.71997671278E+02  0.12632468265E+02 -0.26947240257E+03  0.29076000714E+03  0.81134222620E+02 0.  0.
          5    1    5    5  501    0 -0.29787162110E+02 -0.55197079535E+02 -0.31798414681E+03  0.32414502964E+03  0.47000000000E+01 0. -1.
        -13    1    6    6    0    0  0.30584288195E+02  0.11723347461E+02 -0.21111435951E+02  0.38968298500E+02  0.00000000000E+00 0.  1.
         14    1    6    6    0    0  0.41413383083E+02  0.90912080374E+00 -0.24836096662E+03  0.25179170864E+03  0.00000000000E+00 0. -1.
         -5    1    3    3    0  503  0.48313527401E+02  0.48007075374E+01 -0.76926825949E+02  0.91088255408E+02  0.47000000000E+01 0.  1.
         13    1    4    4    0    0 -0.62716318159E+02  0.23102521676E+02 -0.19296982394E+03  0.20421659096E+03  0.00000000000E+00 0. -1.
        -14    1    4    4    0    0 -0.27807718410E+02  0.14661382056E+02 -0.26724139156E+03  0.26908397702E+03  0.00000000000E+00 0.  1.
</event>
<event>
12    1  0.8135779E-002  0.2214868E+03  0.7818608E-02  0.1133283E+00
         21   -1    0    0  501  502  0.00000000000E+00  0.00000000000E+00  0.10854293274E+04  0.10854293274E+04  0.00000000000E+00 0.  1.
         21   -1    0    0  502  503 -0.00000000000E+00 -0.00000000000E+00 -0.51970621238E+02  0.51970621238E+02  0.00000000000E+00 0.  1.
         -6    2    1    2    0  503 -0.12180815794E+03  0.65108292861E+02  0.30594637199E+03  0.37770304639E+03  0.17314760056E+03 0.  0.
        -24    2    3    3    0    0 -0.16906752733E+02 -0.19275760976E+02  0.14861893361E+03  0.17058234191E+03  0.79707933707E+02 0.  0.
          6    2    1    2  501    0  0.12180815794E+03 -0.65108292861E+02  0.72751233417E+03  0.75969690225E+03  0.16967283157E+03 0.  0.
         24    2    5    5    0    0  0.12447015576E+03 -0.76610120611E+02  0.72808706329E+03  0.74697689488E+03  0.80633612662E+02 0.  0.
          5    1    5    5  501    0 -0.26619978258E+01  0.11501827749E+02 -0.57472911821E+00  0.12720007372E+02  0.47000000000E+01 0. -1.
        -11    1    6    6    0    0  0.10731053374E+02 -0.16853970479E+02  0.28333715730E+03  0.28404076562E+03  0.00000000000E+00 0.  1.
         12    1    6    6    0    0  0.11373910239E+03 -0.59756150132E+02  0.44474990599E+03  0.46293612925E+03  0.00000000000E+00 0. -1.
         -5    1    3    3    0  503 -0.10490140520E+03  0.84384053838E+02  0.15732743838E+03  0.20712070448E+03  0.47000000000E+01 0.  1.
         13    1    4    4    0    0  0.20450933945E+02  0.86717951615E+01  0.10286606678E+03  0.10523720077E+03  0.00000000000E+00 0. -1.
        -14    1    4    4    0    0 -0.37357686678E+02 -0.27947556138E+02  0.45752866823E+02  0.65345141140E+02  0.00000000000E+00 0.  1.
</event>
<event>
12    1  0.8135779E-002  0.2131574E+03  0.7818608E-02  0.1139455E+00
         21   -1    0    0  503  502  0.00000000000E+00  0.00000000000E+00  0.45803614414E+03  0.45803614414E+03  0.00000000000E+00 0. -1.
         21   -1    0    0  501  503 -0.00000000000E+00 -0.00000000000E+00 -0.12098148758E+03  0.12098148758E+03  0.00000000000E+00 0. -1.
          6    2    1    2  501    0 -0.11485906773E+03 -0.50762453120E+02  0.29440518215E+03  0.36347007427E+03  0.17224009848E+03 0.  0.
         24    2    3    3    0    0 -0.95158518722E+02 -0.79961597948E+02  0.29337789912E+03  0.32791944839E+03  0.77534328589E+02 0.  0.
         -6    2    1    2    0  502  0.11485906773E+03  0.50762453120E+02  0.42649474409E+02  0.21554755745E+03  0.16991862690E+03 0.  0.
        -24    2    5    5    0    0  0.42412601636E+02  0.60497186021E+02 -0.19679717128E+02  0.11936921481E+03  0.91667769060E+02 0.  0.
          5    1    3    3  501    0 -0.19700549012E+02  0.29199144829E+02  0.10272830329E+01  0.35550625881E+02  0.47000000000E+01 0. -1.
        -13    1    4    4    0    0 -0.18516724278E+01 -0.35390796129E+02  0.35864981955E+02  0.50420571913E+02  0.00000000000E+00 0.  1.
         14    1    4    4    0    0 -0.93306846294E+02 -0.44570801819E+02  0.25751291716E+03  0.27749887648E+03  0.00000000000E+00 0. -1.
         -5    1    5    5    0  502  0.72446466098E+02 -0.97347329014E+01  0.62329191537E+02  0.96178342637E+02  0.47000000000E+01 0.  1.
         11    1    6    6    0    0  0.46060583976E+02  0.65128285752E+01  0.21623519667E+02  0.51298839510E+02  0.00000000000E+00 0. -1.
        -12    1    6    6    0    0 -0.36479823396E+01  0.53984357446E+02 -0.41303236795E+02  0.68070375302E+02  0.00000000000E+00 0.  1.
</event>
<event>
12    1  0.8135779E-002  0.2034812E+03  0.7818608E-02  0.1147342E+00
         21   -1    0    0  501  502  0.00000000000E+00  0.00000000000E+00  0.89433114590E+03  0.89433114590E+03  0.00000000000E+00 0. -1.
         21   -1    0    0  502  503 -0.00000000000E+00 -0.00000000000E+00 -0.86452074712E+02  0.86452074712E+02  0.00000000000E+00 0. -1.
         -6    2    1    2    0  503 -0.46887377085E+02 -0.96345496539E+02  0.66136468290E+02  0.21163650442E+03  0.17010319436E+03 0.  0.
        -24    2    3    3    0    0 -0.86543337634E+02 -0.84727498309E+02  0.83435451135E+02  0.16659299326E+03  0.78251214930E+02 0.  0.
          6    2    1    2  501    0  0.46887377085E+02  0.96345496539E+02  0.74174260290E+03  0.76914671619E+03  0.17298468501E+03 0.  0.
         24    2    5    5    0    0 -0.14408674553E+02  0.10518189121E+03  0.60419166503E+03  0.61822409256E+03  0.76698242402E+02 0.  0.
          5    1    5    5  501    0  0.61296051638E+02 -0.88363946696E+01  0.13755093787E+03  0.15092262364E+03  0.47000000000E+01 0. -1.
        -11    1    6    6    0    0 -0.13096808758E+02 -0.91528702080E+01  0.96658800653E+02  0.97970532184E+02  0.00000000000E+00 0.  1.
         12    1    6    6    0    0 -0.13118657953E+01  0.11433476142E+03  0.50753286437E+03  0.52025356037E+03  0.00000000000E+00 0. -1.
         -5    1    3    3    0  503  0.39655960549E+02 -0.11617998230E+02 -0.17298982845E+02  0.45043511158E+02  0.47000000000E+01 0.  1.
         13    1    4    4    0    0 -0.17753026405E+02 -0.12809220729E+02 -0.15060821991E+02  0.26572061292E+02  0.00000000000E+00 0. -1.
        -14    1    4    4    0    0 -0.68790311229E+02 -0.71918277580E+02  0.98496273126E+02  0.14002093197E+03  0.00000000000E+00 0.  1.
</event>
<event>
12    1  0.8135779E-002  0.1986608E+03  0.7818608E-02  0.1150922E+00
         21   -1    0    0  501  502  0.00000000000E+00  0.00000000000E+00  0.39938476831E+02  0.39938476831E+02  0.00000000000E+00 0. -1.
         21   -1    0    0  502  503 -0.00000000000E+00 -0.00000000000E+00 -0.10483988028E+04  0.10483988028E+04  0.00000000000E+00 0.  1.
         -6    2    1    2    0  503 -0.97765600089E+02  0.15352579256E+02 -0.63560573364E+03  0.66586046733E+03  0.17199331110E+03 0.  0.
        -24    2    3    3    0    0 -0.56886689313E+02  0.75075533967E+02 -0.34040198876E+03  0.36187813617E+03  0.78802539702E+02 0.  0.
          6    2    1    2  501    0  0.97765600089E+02 -0.15352579256E+02 -0.37285459235E+03  0.42247681232E+03  0.17225648221E+03 0.  0.
         24    2    5    5    0    0  0.28797037313E+01 -0.34078826477E+02 -0.24731374977E+03  0.26393155438E+03  0.85592730190E+02 0.  0.
          5    1    5    5  501    0  0.94885896358E+02  0.18726247221E+02 -0.12554084257E+03  0.15854525794E+03  0.47000000000E+01 0. -1.
        -13    1    6    6    0    0 -0.10055595006E+02  0.27369486449E+02 -0.87106786038E+02  0.91857476306E+02  0.00000000000E+00 0.  1.
         14    1    6    6    0    0  0.12935298737E+02 -0.61448312926E+02 -0.16020696374E+03  0.17207407807E+03  0.00000000000E+00 0. -1.
         -5    1    3    3    0  503 -0.40878910776E+02 -0.59722954712E+02 -0.29520374488E+03  0.30398233116E+03  0.47000000000E+01 0.  1.
         13    1    4    4    0    0 -0.67681649488E+02  0.41604916882E+02 -0.16685407681E+03  0.18480275359E+03  0.00000000000E+00 0. -1.
        -14    1    4    4    0    0  0.10794960175E+02  0.33470617085E+02 -0.17354791195E+03  0.17707538258E+03  0.00000000000E+00 0.  1.
</event>
<event>
12    1  0.8135779E-002  0.2128042E+03  0.7818608E-02  0.1139504E+00
         21   -1    0    0  503  502  0.00000000000E+00  0.00000000000E+00  0.88565562094E+03  0.88565562094E+03  0.00000000000E+00 0.  1.
         21   -1    0    0  501  503 -0.00000000000E+00 -0.00000000000E+00 -0.53674876561E+02  0.53674876561E+02  0.00000000000E+00 0. -1.
          6    2    1    2  501    0  0.43270046562E+02  0.11724114362E+03  0.30970949743E+03  0.37536871290E+03  0.17135902409E+03 0.  0.
         24    2    3    3    0    0  0.46996390106E+02  0.13155098086E+03  0.32013139734E+03  0.35667745624E+03  0.72252162489E+02 0.  0.
         -6    2    1    2    0  502 -0.43270046562E+02 -0.11724114362E+03  0.52227124694E+03  0.56396178460E+03  0.17224359616E+03 0.  0.
        -24    2    5    5    0    0 -0.61350831134E+02 -0.59135623981E+02  0.46802336925E+03  0.48230342055E+03  0.79434053236E+02 0.  0.
          5    1    3    3  501    0 -0.37263435436E+01 -0.14309837236E+02 -0.10421899900E+02  0.18691256658E+02  0.47000000000E+01 0. -1.
        -11    1    4    4    0    0  0.25115057124E+02  0.12646848389E+03  0.29991235325E+03  0.32645438141E+03  0.00000000000E+00 0.  1.
         12    1    4    4    0    0  0.21881332982E+02  0.50824969689E+01  0.20219044088E+02  0.30223074832E+02  0.00000000000E+00 0. -1.
         -5    1    5    5    0  502  0.18080784572E+02 -0.58105519642E+02  0.54247877694E+02  0.81658364042E+02  0.47000000000E+01 0.  1.
         11    1    6    6    0    0 -0.63203853816E+01  0.17409731389E+02  0.40876675136E+02  0.44877038545E+02  0.00000000000E+00 0. -1.
        -12    1    6    6    0    0 -0.55030445753E+02 -0.76545355370E+02  0.42714669411E+03  0.43742638201E+03  0.00000000000E+00 0.  1.
</event>
<event>
12    1  0.8135779E-002  0.1953741E+03  0.7818608E-02  0.1154616E+00
         21   -1    0    0  503  502  0.00000000000E+00  0.00000000000E+00  0.32882831016E+03  0.32882831016E+03  0.00000000000E+00 0. -1.
         21   -1    0    0  501  503 -0.00000000000E+00 -0.00000000000E+00 -0.12777165957E+03  0.12777165957E+03  0.00000000000E+00 0. -1.
          6    2    1    2  501    0  0.61924539455E+02 -0.59534743818E+02  0.23605537154E+02  0.19266825510E+03  0.17083559591E+03 0.  0.
         24    2    3    3    0    0  0.10349879883E+03 -0.70110266643E+02  0.73331343866E+01  0.14654730739E+03  0.76124159075E+02 0.  0.
         -6    2    1    2    0  502 -0.61924539455E+02  0.59534743818E+02  0.17745111343E+03  0.26393171463E+03  0.17547654550E+03 0.  0.
        -24    2    5    5    0    0  0.39167498788E+01  0.50454768562E+02  0.25948320982E+02  0.98424290469E+02  0.80330573211E+02 0.  0.
          5    1    3    3  501    0 -0.41574259376E+02  0.10575522825E+02  0.16272402767E+02  0.46120947708E+02  0.47000000000E+01 0. -1.
        -13    1    4    4    0    0  0.58132573418E+02 -0.75417095136E+00  0.22418159333E+02  0.62310021135E+02  0.00000000000E+00 0.  1.
         14    1    4    4    0    0  0.45366225413E+02 -0.69356095691E+02 -0.15085024946E+02  0.84237286254E+02  0.00000000000E+00 0. -1.
         -5    1    5    5    0  502 -0.65841289334E+02  0.90799752566E+01  0.15150279245E+03  0.16550742416E+03  0.47000000000E+01 0.  1.
         13    1    6    6    0    0  0.17984883580E+02 -0.16421367661E+02 -0.23293334114E+01  0.24465141475E+02  0.00000000000E+00 0. -1.
        -14    1    6    6    0    0 -0.14068133701E+02  0.66876136223E+02  0.28277654393E+02  0.73959148994E+02  0.00000000000E+00 0.  1.
</event>
<event>
12    1  0.8135779E-002  0.1977625E+03  0.7818608E-02  0.1151856E+00
         21   -1    0    0  501  502  0.00000000000E+00  0.00000000000E+00  0.62459962122E+03  0.62459962122E+03  0.00000000000E+00 0.  1.
         21   -1    0    0  502  503 -0.00000000000E+00 -0.00000000000E+00 -0.27092670129E+03  0.27092670129E+03  0.00000000000E+00 0.  1.
         -6    2    1    2    0  503  0.65030539622E+02  0.70415788234E+02 -0.21598411069E+03  0.29284665276E+03  0.17298170899E+03 0.  0.
        -24    2    3    3    0    0  0.84650457254E+02  0.10290469522E+02 -0.19350139602E+03  0.22555952489E+03  0.78502963819E+02 0.  0.
          6    2    1    2  501    0 -0.65030539622E+02 -0.70415788234E+02  0.56965703062E+03  0.60267966976E+03  0.17183217830E+03 0.  0.
         24    2    5    5    0    0 -0.46326059179E+02 -0.11366814491E+03  0.38462141205E+03  0.41167994703E+03  0.80499672368E+02 0.  0.
          5    1    5    5  501    0 -0.18704480443E+02  0.43252356675E+02  0.18503561856E+03  0.19099972273E+03  0.47000000000E+01 0. -1.
        -13    1    6    6    0    0 -0.48579159603E+02 -0.40635107991E+02  0.25634573007E+03  0.26405355531E+03  0.00000000000E+00 0.  1.
         14    1    6    6    0    0  0.22531004234E+01 -0.73033036918E+02  0.12827568199E+03  0.14762639172E+03  0.00000000000E+00 0. -1.
         -5    1    3    3    0  503 -0.19619917632E+02  0.60125318712E+02 -0.22482714661E+02  0.67287127867E+02  0.47000000000E+01 0.  1.
         13    1    4    4    0    0  0.59940492372E+02  0.20229152824E+02 -0.52921472767E+02  0.82478867169E+02  0.00000000000E+00 0. -1.
        -14    1    4    4    0    0  0.24709964882E+02 -0.99386833019E+01 -0.14057992326E+03  0.14308065772E+03  0.00000000000E+00 0.  1.
</event>
<event>
12    1  0.8135779E-002  0.3032664E+03  0.7818608E-02  0.1084315E+00
         21   -1    0    0  501  502  0.00000000000E+00  0.00000000000E+00  0.66305700931E+02  0.66305700931E+02  0.00000000000E+00 0. -1.
         21   -1    0    0  502  503 -0.00000000000E+00 -0.00000000000E+00 -0.13669361326E+04  0.13669361326E+04  0.00000000000E+00 0.  1.
         -6    2    1    2    0  503  0.57198567138E+02 -0.24323939593E+03 -0.61160667513E+03  0.68266626052E+03  0.17185289748E+03 0.  0.
        -24    2    3    3    0    0  0.19269132375E+02 -0.21903851359E+03 -0.37610637195E+03  0.44286049010E+03  0.79499941973E+02 0.  0.
          6    2    1    2  501    0 -0.57198567138E+02  0.24323939593E+03 -0.68902375658E+03  0.75057557305E+03  0.16178032612E+03 0.  0.
         24    2    5    5    0    0  0.11512967636E+02  0.15545427138E+03 -0.51370568258E+03  0.54276310910E+03  0.79998033545E+02 0.  0.
          5    1    5    5  501    0 -0.68711534774E+02  0.87785124554E+02 -0.17531807400E+03  0.20781246396E+03  0.47000000000E+01 0. -1.
        -11    1    6    6    0    0  0.17130312882E+02  0.12597918489E+03 -0.28468008602E+03  0.31178029768E+03  0.00000000000E+00 0.  1.
         12    1    6    6    0    0 -0.56173452464E+01  0.29475086482E+02 -0.22902559656E+03  0.23098281141E+03  0.00000000000E+00 0. -1.
         -5    1    3    3    0  503  0.37929434763E+02 -0.24200882342E+02 -0.23550030318E+03  0.23980577042E+03  0.47000000000E+01 0.  1.
         13    1    4    4    0    0  0.44440420023E+02 -0.11918115672E+03 -0.24592046963E+03  0.27686815713E+03  0.00000000000E+00 0. -1.
        -14    1    4    4    0    0 -0.25171287648E+02 -0.99857356867E+02 -0.13018590231E+03  0.16599233297E+03  0.00000000000E+00 0.  1.
</event>
<event>
12    1  0.8135779E-002  0.2021751E+03  0.7818608E-02  0.1148078E+00
         21   -1    0    0  503  502  0.00000000000E+00  0.00000000000E+00  0.21429622700E+03  0.21429622700E+03  0.00000000000E+00 0. -1.
         21   -1    0    0  501  503 -0.00000000000E+00 -0.00000000000E+00 -0.25136122012E+03  0.25136122012E+03  0.00000000000E+00 0. -1.
          6    2    1    2  501    0 -0.33135082841E+02 -0.10068822409E+03 -0.13353199913E+03  0.24164704568E+03  0.17124966485E+03 0.  0.
         24    2    3    3    0    0 -0.72041613725E+02 -0.79217182479E+02 -0.36953199947E+02  0.13523145366E+03  0.73869147591E+02 0.  0.
         -6    2    1    2    0  502  0.33135082841E+02  0.10068822409E+03  0.96467006012E+02  0.22401040144E+03  0.17215900940E+03 0.  0.
        -24    2    5    5    0    0  0.29060535689E+00  0.12045150786E+03  0.30368032129E+02  0.14745642417E+03  0.79451428293E+02 0.  0.
          5    1    3    3  501    0  0.38906530884E+02 -0.21471041611E+02 -0.96578799180E+02  0.10641559202E+03  0.47000000000E+01 0. -1.
        -13    1    4    4    0    0  0.92916694296E+01  0.64934230806E+01  0.29932615299E+00  0.11339720466E+02  0.00000000000E+00 0.  1.
         14    1    4    4    0    0 -0.81333283154E+02 -0.85710605560E+02 -0.37252526100E+02  0.12389173320E+03  0.00000000000E+00 0. -1.
         -5    1    5    5    0  502  0.32844477484E+02 -0.19763283769E+02  0.66098973883E+02  0.76553977264E+02  0.47000000000E+01 0.  1.
         13    1    6    6    0    0  0.37283925278E+02  0.36389967127E+02  0.60444236177E+01  0.52448601970E+02  0.00000000000E+00 0. -1.
        -14    1    6    6    0    0 -0.36993319922E+02  0.84061540732E+02  0.24323608511E+02  0.95007822204E+02  0.00000000000E+00 0.  1.
</event>
<event>
12    1  0.8135779E-002  0.2170995E+03  0.7818608E-02  0.1136235E+00
         21   -1    0    0  501  502  0.00000000000E+00  0.00000000000E+00  0.60954328091E+03  0.60954328091E+03  0.00000000000E+00 0. -1.
         21   -1    0    0  502  503 -0.00000000000E+00 -0.00000000000E+00 -0.11599613826E+03  0.11599613826E+03  0.00000000000E+00 0. -1.
         -6    2    1    2    0  503  0.69356590308E+02  0.11206852822E+03  0.36786162986E+02  0.22019406211E+03  0.17251814851E+03 0.  0.
        -24    2    3    3    0    0 -0.31412336341E+02  0.45841656892E+02  0.18771646182E+02  0.98181817320E+02  0.78734377313E+02 0.  0.
          6    2    1    2  501    0 -0.69356590308E+02 -0.11206852822E+03  0.45676097967E+03  0.50534535705E+03  0.17138741410E+03 0.  0.
         24    2    5    5    0    0 -0.11496522832E+03 -0.75141052186E+02  0.35023058390E+03  0.38363010915E+03  0.75149300106E+02 0.  0.
          5    1    5    5  501    0  0.45608638017E+02 -0.36927476029E+02  0.10653039577E+03  0.12171524790E+03  0.47000000000E+01 0. -1.
        -11    1    6    6    0    0 -0.35026566184E+02  0.12940614591E+02  0.93607125313E+02  0.10078002656E+03  0.00000000000E+00 0.  1.
         12    1    6    6    0    0 -0.79938662140E+02 -0.88081666777E+02  0.25662345858E+03  0.28285008259E+03  0.00000000000E+00 0. -1.
         -5    1    3    3    0  503  0.10076892665E+03  0.66226871323E+02  0.18014516803E+02  0.12201224479E+03  0.47000000000E+01 0.  1.
         11    1    4    4    0    0  0.23190145391E+02  0.30577186882E+02 -0.25859399393E+00  0.38377259826E+02  0.00000000000E+00 0. -1.
        -12    1    4    4    0    0 -0.54602481732E+02  0.15264470010E+02  0.19030240176E+02  0.59804557494E+02  0.00000000000E+00 0.  1.
</event>
<event>
12    1  0.8135779E-002  0.1804536E+03  0.7818608E-02  0.1167438E+00
         21   -1    0    0  501  502  0.00000000000E+00  0.00000000000E+00  0.51014280049E+02  0.51014280049E+02  0.00000000000E+00 0. -1.
         21   -1    0    0  502  503 -0.00000000000E+00 -0.00000000000E+00 -0.75766480048E+03  0.75766480048E+03  0.00000000000E+00 0. -1.
         -6    2    1    2    0  503 -0.48129201225E+02  0.17703065386E+02 -0.51427174582E+03  0.54491196480E+03  0.17269569275E+03 0.  0.
        -24    2    3    3    0    0 -0.68596233327E+02 -0.11175418321E+02 -0.49118454003E+03  0.50239167205E+03  0.79402812156E+02 0.  0.
          6    2    1    2  501    0  0.48129201225E+02 -0.17703065386E+02 -0.19237877461E+03  0.26376711573E+03  0.17301352516E+03 0.  0.
         24    2    5    5    0    0  0.79836778990E+02 -0.33399900089E+02 -0.19521939429E+03  0.22796320215E+03  0.79794392165E+02 0.  0.
          5    1    5    5  501    0 -0.31707577765E+02  0.15696834703E+02  0.28406196870E+01  0.35803913580E+02  0.47000000000E+01 0. -1.
        -11    1    6    6    0    0  0.89051704191E+01 -0.32437819121E+02 -0.11976316934E+03  0.12439747143E+03  0.00000000000E+00 0.  1.
         12    1    6    6    0    0  0.70931608571E+02 -0.96208096864E+00 -0.75456224957E+02  0.10356573072E+03  0.00000000000E+00 0. -1.
         -5    1    3    3    0  503  0.20467032102E+02  0.28878483707E+02 -0.23087205798E+02  0.42520292753E+02  0.47000000000E+01 0.  1.
         13    1    4    4    0    0 -0.26738326253E+02  0.19600504484E+02 -0.35643101640E+03  0.35796953406E+03  0.00000000000E+00 0. -1.
        -14    1    4    4    0    0 -0.41857907074E+02 -0.30775922805E+02 -0.13475352363E+03  0.14442213798E+03  0.00000000000E+00 0.  1.
</event>
<event>
12    1  0.8135779E-002  0.3605087E+03  0.7818608E-02  0.1058652E+00
         21   -1    0    0  501  502  0.00000000000E+00  0.00000000000E+00  0.20884629452E+03  0.20884629452E+03  0.00000000000E+00 0. -1.
         21   -1    0    0  502  503 -0.00000000000E+00 -0.00000000000E+00 -0.21563960719E+04  0.21563960719E+04  0.00000000000E+00 0. -1.
         -6    2    1    2    0  503  0.30783802918E+03  0.74472628627E+02 -0.19738288403E+04  0.20064812105E+04  0.17220956042E+03 0.  0.
        -24    2    3    3    0    0  0.75340590940E+02 -0.14473786797E+02 -0.64604544907E+03  0.65555658358E+03  0.80585463134E+02 0.  0.
          6    2    1    2  501    0 -0.30783802918E+03 -0.74472628627E+02  0.26279062887E+02  0.35876115593E+03  0.16645886349E+03 0.  0.
         24    2    5    5    0    0 -0.13739721764E+03 -0.53387099736E+02 -0.42689375354E+02  0.17363037719E+03  0.81221593677E+02 0.  0.
          5    1    5    5  501    0 -0.17044081154E+03 -0.21085528891E+02  0.68968438240E+02  0.18513077875E+03  0.47000000000E+01 0. -1.
        -13    1    6    6    0    0 -0.83751857192E+02  0.97826379819E+01 -0.31456713758E+02  0.89997769025E+02  0.00000000000E+00 0.  1.
         14    1    6    6    0    0 -0.53645360450E+02 -0.63169737718E+02 -0.11232661595E+02  0.83632608160E+02  0.00000000000E+00 0. -1.
         -5    1    3    3    0  503  0.23249743824E+03  0.88946415424E+02 -0.13277833912E+04  0.13509246269E+04  0.47000000000E+01 0.  1.
         11    1    4    4    0    0  0.42017977605E+02  0.22048069431E+02 -0.47910993046E+03  0.48145399912E+03  0.00000000000E+00 0. -1.
        -12    1    4    4    0    0  0.33322613335E+02 -0.36521856228E+02 -0.16693551861E+03  0.17410258446E+03  0.00000000000E+00 0.  1.
</event>
<event>
12    1  0.8135779E-002  0.1840229E+03  0.7818608E-02  0.1163991E+00
         21   -1    0    0  503  502  0.00000000000E+00  0.00000000000E+00  0.93818515410E+02  0.93818515410E+02  0.00000000000E+00 0. -1.
         21   -1    0    0  501  503 -0.00000000000E+00 -0.00000000000E+00 -0.62257591153E+03  0.62257591153E+03  0.00000000000E+00 0. -1.
          6    2    1    2  501    0  0.54371211999E+02  0.35204999665E+02 -0.49671504974E+03  0.52970770913E+03  0.17224632298E+03 0.  0.
         24    2    3    3    0    0  0.66466504700E+01 -0.54763900736E+02 -0.20170437349E+03  0.21757724616E+03  0.60099425751E+02 0.  0.
         -6    2    1    2    0  502 -0.54371211999E+02 -0.35204999665E+02 -0.32042346380E+02  0.18668671781E+03  0.17213250114E+03 0.  0.
        -24    2    5    5    0    0 -0.47027776905E+02 -0.13892242386E+02  0.47574411317E+02  0.10380681815E+03  0.78153212874E+02 0.  0.
          5    1    3    3  501    0  0.47724561529E+02  0.89968900401E+02 -0.29501067625E+03  0.31213046297E+03  0.47000000000E+01 0. -1.
        -13    1    4    4    0    0  0.28077766576E+01 -0.58757926312E+01  0.29358675928E+01  0.71433792652E+01  0.00000000000E+00 0.  1.
         14    1    4    4    0    0  0.38388738125E+01 -0.48888108105E+02 -0.20464024108E+03  0.21043386689E+03  0.00000000000E+00 0. -1.
         -5    1    5    5    0  502 -0.73434350947E+01 -0.21312757278E+02 -0.79616757697E+02  0.82879899662E+02  0.47000000000E+01 0.  1.
         13    1    6    6    0    0 -0.33646164819E+02  0.25901712412E+02  0.29901763750E+01  0.42566468818E+02  0.00000000000E+00 0. -1.
        -14    1    6    6    0    0 -0.13381612086E+02 -0.39793954798E+02  0.44584234942E+02  0.61240349329E+02  0.00000000000E+00 0.  1.
</event>
<event>
12    1  0.8135779E-002  0.1938439E+03  0.7818608E-02  0.1155301E+00
         21   -1    0    0  503  502  0.00000000000E+00  0.00000000000E+00  0.34222991895E+03  0.34222991895E+03  0.00000000000E+00 0.  1.
         21   -1    0    0  501  503 -0.00000000000E+00 -0.00000000000E+00 -0.11708872169E+03  0.11708872169E+03  0.00000000000E+00 0.  1.
          6    2    1    2  501    0 -0.71418937667E+02  0.59070350069E+02  0.52354279491E+02  0.19964424968E+03  0.16889903769E+03 0.  0.
         24    2    3    3    0    0 -0.93682844869E+02  0.10375856197E+02  0.71957301403E+02  0.14243232989E+03  0.78898552328E+02 0.  0.
         -6    2    1    2    0  502  0.71418937667E+02 -0.59070350069E+02  0.17278691776E+03  0.25967439096E+03  0.17025128327E+03 0.  0.
        -24    2    5    5    0    0 -0.19335524930E+02 -0.38679871848E+02  0.48691916258E+02  0.10451704024E+03  0.81749091624E+02 0.  0.
          5    1    3    3  501    0  0.22263907202E+02  0.48694493872E+02 -0.19603021912E+02  0.57211919785E+02  0.47000000000E+01 0. -1.
        -13    1    4    4    0    0  0.42869926407E+01  0.22819972085E+02  0.70924807313E+01  0.24278235413E+02  0.00000000000E+00 0.  1.
         14    1    4    4    0    0 -0.97969837510E+02 -0.12444115888E+02  0.64864820672E+02  0.11815409448E+03  0.00000000000E+00 0. -1.
         -5    1    5    5    0  502  0.90754462597E+02 -0.20390478221E+02  0.12409500151E+03  0.15515735072E+03  0.47000000000E+01 0.  1.
         11    1    6    6    0    0  0.23750396614E+02  0.60931283762E+01  0.31742429862E+02  0.40109717105E+02  0.00000000000E+00 0. -1.
        -12    1    6    6    0    0 -0.43085921544E+02 -0.44773000224E+02  0.16949486396E+02  0.64407323135E+02  0.00000000000E+00 0.  1.
</event>
<event>
12    1  0.8135779E-002  0.1775552E+03  0.7818608E-02  0.1170932E+00
         21   -1    0    0  503  502  0.00000000000E+00  0.00000000000E+00  0.17550600760E+04  0.17550600760E+04  0.00000000000E+00 0. -1.
         21   -1    0    0  501  503 -0.00000000000E+00 -0.00000000000E+00 -0.19080605478E+02  0.19080605478E+02  0.00000000000E+00 0. -1.
          6    2    1    2  501    0 -0.84176562106E+01  0.37756932843E+02  0.11166286592E+04  0.11306570664E+04  0.17328992000E+03 0.  0.
         24    2    3    3    0    0 -0.37390052886E+02  0.71489663173E+02  0.51290615085E+03  0.52528094039E+03  0.79615066218E+02 0.  0.
         -6    2    1    2    0  502  0.84176562106E+01 -0.37756932843E+02  0.61935081130E+03  0.64348361504E+03  0.17023305335E+03 0.  0.
        -24    2    5    5    0    0  0.38539517906E+02 -0.12677285501E+02  0.16361782305E+03  0.18604404325E+03  0.78712044824E+02 0.  0.
          5    1    3    3  501    0  0.28972396675E+02 -0.33732730330E+02  0.60372250834E+03  0.60537612601E+03  0.47000000000E+01 0. -1.
        -11    1    4    4    0    0  0.34944215624E+01  0.64600340789E+02  0.21558500594E+03  0.22508289539E+03  0.00000000000E+00 0.  1.
         12    1    4    4    0    0 -0.40884474448E+02  0.68893223844E+01  0.29732114491E+03  0.30019804500E+03  0.00000000000E+00 0. -1.
         -5    1    5    5    0  502 -0.30121861696E+02 -0.25079647342E+02  0.45573298825E+03  0.45743957179E+03  0.47000000000E+01 0.  1.
         13    1    6    6    0    0  0.22345781720E+02  0.32623134159E+02  0.60791608054E+02  0.72520496777E+02  0.00000000000E+00 0. -1.
        -14    1    6    6    0    0  0.16193736187E+02 -0.45300419659E+02  0.10282621500E+03  0.11352354647E+03  0.00000000000E+00 0.  1.
</event>
<event>
12    1  0.8135779E-002  0.2226607E+03  0.7818608E-02  0.1132031E+00
         21   -1    0    0  503  502  0.00000000000E+00  0.00000000000E+00  0.53211281141E+03  0.53211281141E+03  0.00000000000E+00 0. -1.
         21   -1    0    0  501  503 -0.00000000000E+00 -0.00000000000E+00 -0.10926993418E+03  0.10926993418E+03  0.00000000000E+00 0. -1.
          6    2    1    2  501    0 -0.12855467639E+03 -0.59511695219E+02  0.87072638276E+02  0.23849389765E+03  0.17096709681E+03 0.  0.
         24    2    3    3    0    0 -0.12236325726E+03  0.14555398500E+02  0.47790145124E+02  0.15429489343E+03  0.79614005149E+02 0.  0.
         -6    2    1    2    0  502  0.12855467639E+03  0.59511695219E+02  0.33577023895E+03  0.40288884794E+03  0.17178423601E+03 0.  0.
        -24    2    5    5    0    0  0.79544896050E+02 -0.58903709476E+01  0.28542209175E+03  0.30678257991E+03  0.79294980438E+02 0.  0.
          5    1    3    3  501    0 -0.61914191284E+01 -0.74067093719E+02  0.39282493152E+02  0.84199004217E+02  0.47000000000E+01 0. -1.
        -13    1    4    4    0    0 -0.52844419885E+01  0.27913532409E+02  0.14211456581E+02  0.31765643655E+02  0.00000000000E+00 0.  1.
         14    1    4    4    0    0 -0.11707881527E+03 -0.13358133909E+02  0.33578688543E+02  0.12252924978E+03  0.00000000000E+00 0. -1.
         -5    1    5    5    0  502  0.49009780340E+02  0.65402066167E+02  0.50348147199E+02  0.96106268028E+02  0.47000000000E+01 0.  1.
         13    1    6    6    0    0  0.57183005986E+02  0.29908456580E+02  0.12221944853E+03  0.13821000524E+03  0.00000000000E+00 0. -1.
        -14    1    6    6    0    0  0.22361890064E+02 -0.35798827528E+02  0.16320264322E+03  0.16857257467E+03  0.00000000000E+00 0.  1.
</event>
<event>
12    1  0.8135779E-002  0.1945372E+03  0.7818608E-02  0.1157132E+00
         21   -1    0    0  501  502  0.00000000000E+00  0.00000000000E+00  0.73639495087E+03  0.73639495087E+03  0.00000000000E+00 0.  1.
         21   -1    0    0  502  503 -0.00000000000E+00 -0.00000000000E+00 -0.52816193965E+02  0.52816193965E+02  0.00000000000E+00 0.  1.
         -6    2    1    2    0  503 -0.16279237508E+02 -0.86463077317E+02  0.23616837294E+03  0.30597420507E+03  0.17350457192E+03 0.  0.
        -24    2    3    3    0    0  0.53189725962E+02 -0.19313187691E+02  0.10270627482E+03  0.14114318191E+03  0.78553629731E+02 0.  0.
          6    2    1    2  501    0  0.16279237508E+02  0.86463077317E+02  0.44741038396E+03  0.48323693977E+03  0.16000315924E+03 0.  0.
         24    2    5    5    0    0  0.57622506889E+02  0.70106611893E+02  0.40049241165E+03  0.41842809770E+03  0.80328144650E+02 0.  0.
          5    1    5    5  501    0 -0.41343269381E+02  0.16356465424E+02  0.46917972310E+02  0.64808842066E+02  0.47000000000E+01 0. -1.
        -11    1    6    6    0    0  0.13479200313E+02  0.47047074619E+02  0.32038386594E+03  0.32410019689E+03  0.00000000000E+00 0.  1.
         12    1    6    6    0    0  0.44143306576E+02  0.23059537274E+02  0.80108545717E+02  0.94327900812E+02  0.00000000000E+00 0. -1.
         -5    1    3    3    0  503 -0.69468963469E+02 -0.67149889626E+02  0.13346209812E+03  0.16483102316E+03  0.47000000000E+01 0.  1.
         13    1    4    4    0    0  0.60641040459E+02 -0.79271143835E+01  0.31775995165E+02  0.68919437020E+02  0.00000000000E+00 0. -1.
        -14    1    4    4    0    0 -0.74513144971E+01 -0.11386073307E+02  0.70930279657E+02  0.72223744886E+02  0.00000000000E+00 0.  1.
</event>
<event>
12    1  0.8135779E-002  0.4051096E+03  0.7818608E-02  0.1042244E+00
         21   -1    0    0  501  502  0.00000000000E+00  0.00000000000E+00  0.13190142563E+03  0.13190142563E+03  0.00000000000E+00 0.  1.
         21   -1    0    0  502  503 -0.00000000000E+00 -0.00000000000E+00 -0.14779944891E+04  0.14779944891E+04  0.00000000000E+00 0. -1.
         -6    2    1    2    0  503 -0.29318905640E+03 -0.21712046695E+03 -0.99673320239E+03  0.10749509518E+04  0.17012158001E+03 0.  0.
        -24    2    3    3    0    0 -0.17344344908E+03 -0.19292483246E+03 -0.78110765422E+03  0.82707818960E+03  0.81403582320E+02 0.  0.
          6    2    1    2  501    0  0.29318905640E+03  0.21712046695E+03 -0.34935986108E+03  0.53494496298E+03  0.17610417632E+03 0.  0.
         24    2    5    5    0    0  0.27322389346E+03  0.15840332594E+03 -0.34422274684E+03  0.47253670774E+03  0.71124757212E+02 0.  0.
          5    1    5    5  501    0  0.19965162933E+02  0.58717141012E+02 -0.51371142456E+01  0.62408255242E+02  0.47000000000E+01 0. -1.
        -11    1    6    6    0    0  0.16524890078E+03  0.64604973294E+02 -0.22354812497E+03  0.28540281351E+03  0.00000000000E+00 0.  1.
         12    1    6    6    0    0  0.10797499268E+03  0.93798352648E+02 -0.12067462187E+03  0.18713389423E+03  0.00000000000E+00 0. -1.
         -5    1    3    3    0  503 -0.11974560732E+03 -0.24195634495E+02 -0.21562554817E+03  0.24787276217E+03  0.47000000000E+01 0.  1.
         11    1    4    4    0    0 -0.15996583117E+03 -0.12626542116E+03 -0.59508787418E+03  0.62901637635E+03  0.00000000000E+00 0. -1.
        -12    1    4    4    0    0 -0.13477617910E+02 -0.66659411296E+02 -0.18601978005E+03  0.19806181325E+03  0.00000000000E+00 0.  1.
</event>
<event>
12    1  0.8135779E-002  0.1761685E+03  0.7818608E-02  0.1172374E+00
         21   -1    0    0  503  502  0.00000000000E+00  0.00000000000E+00  0.10572257172E+04  0.10572257172E+04  0.00000000000E+00 0.  1.
         21   -1    0    0  501  503 -0.00000000000E+00 -0.00000000000E+00 -0.32952426259E+02  0.32952426259E+02  0.00000000000E+00 0.  1.
          6    2    1    2  501    0 -0.19333408293E+02 -0.15001354728E+02  0.31499536402E+03  0.35934949480E+03  0.17120501962E+03 0.  0.
         24    2    3    3    0    0 -0.74988663552E+02  0.47823393054E+01  0.16423826042E+03  0.19736586516E+03  0.79579570963E+02 0.  0.
         -6    2    1    2    0  502  0.19333408293E+02  0.15001354728E+02  0.70927792688E+03  0.73082864861E+03  0.17446063954E+03 0.  0.
        -24    2    5    5    0    0 -0.54679398658E+02 -0.10531675722E+02  0.36055944856E+03  0.37339823810E+03  0.79513366411E+02 0.  0.
          5    1    3    3  501    0  0.55655255258E+02 -0.19783694034E+02  0.15075710359E+03  0.16198362964E+03  0.47000000000E+01 0. -1.
        -11    1    4    4    0    0 -0.57474382965E+02 -0.35854468066E+00  0.35965310358E+02  0.67800713866E+02  0.00000000000E+00 0.  1.
         12    1    4    4    0    0 -0.17514280586E+02  0.51408839861E+01  0.12827295007E+03  0.12956515130E+03  0.00000000000E+00 0. -1.
         -5    1    5    5    0  502  0.74012806951E+02  0.25533030451E+02  0.34871847832E+03  0.35743041051E+03  0.47000000000E+01 0.  1.
         13    1    6    6    0    0 -0.23925954578E+02 -0.38941672945E+02  0.10621667940E+03  0.11563255673E+03  0.00000000000E+00 0. -1.
        -14    1    6    6    0    0 -0.30753444080E+02  0.28409997223E+02  0.25434276916E+03  0.25776568136E+03  0.00000000000E+00 0.  1.
</event>
<event>
12    1  0.8135779E-002  0.2056833E+03  0.7818608E-02  0.1145172E+00
         21   -1    0    0  503  502  0.00000000000E+00  0.00000000000E+00  0.43397800804E+03  0.43397800804E+03  0.00000000000E+00 0. -1.
         21   -1    0    0  501  503 -0.00000000000E+00 -0.00000000000E+00 -0.10524646900E+03  0.10524646900E+03  0.00000000000E+00 0. -1.
          6    2    1    2  501    0  0.21233844319E+02  0.10948716611E+03  0.89863360879E+02  0.22445720361E+03  0.17282157543E+03 0.  0.
         24    2    3    3    0    0  0.48835015481E+02  0.63641490886E+02  0.11821661096E+03  0.16371473596E+03  0.79951545095E+02 0.  0.
         -6    2    1    2    0  502 -0.21233844319E+02 -0.10948716611E+03  0.23886817816E+03  0.31476727343E+03  0.17199451793E+03 0.  0.
        -24    2    5    5    0    0  0.14117931608E+02 -0.13596533330E+03  0.20246583392E+03  0.25733851699E+03  0.80900003535E+02 0.  0.
          5    1    3    3  501    0 -0.27601171162E+02  0.45845675220E+02 -0.28353250081E+02  0.60742467649E+02  0.47000000000E+01 0. -1.
        -13    1    4    4    0    0  0.36520592867E+02  0.68890696891E+02  0.12604091279E+03  0.14820928959E+03  0.00000000000E+00 0.  1.
         14    1    4    4    0    0  0.12314422614E+02 -0.52492060052E+01 -0.78243018331E+01  0.15505446371E+02  0.00000000000E+00 0. -1.
         -5    1    5    5    0  502 -0.35351775926E+02  0.26478167198E+02  0.36402344248E+02  0.57428756438E+02  0.47000000000E+01 0.  1.
         11    1    6    6    0    0  0.48417043527E+00 -0.73145672814E+02  0.41702876068E+02  0.84200081619E+02  0.00000000000E+00 0. -1.
        -12    1    6    6    0    0  0.13633761172E+02 -0.62819660490E+02  0.16076295785E+03  0.17313843537E+03  0.00000000000E+00 0.  1.
</event>
<event>
12    1  0.8135779E-002  0.1761118E+03  0.7818608E-02  0.1171636E+00
         21   -1    0    0  503  502  0.00000000000E+00  0.00000000000E+00  0.10932287652E+03  0.10932287652E+03  0.00000000000E+00 0.  1.
         21   -1    0    0  501  503 -0.00000000000E+00 -0.00000000000E+00 -0.30092935986E+03  0.30092935986E+03  0.00000000000E+00 0.  1.
          6    2    1    2  501    0  0.28152529206E+02  0.30459846215E+02 -0.14501169577E+03  0.22808076343E+03  0.17109084021E+03 0.  0.
         24    2    3    3    0    0  0.13809771835E+02  0.76030433092E+02 -0.49442645139E+02  0.12113252120E+03  0.79102313365E+02 0.  0.
         -6    2    1    2    0  502 -0.28152529206E+02 -0.30459846215E+02 -0.46594787561E+02  0.18217147295E+03  0.17115783417E+03 0.  0.
        -24    2    5    5    0    0  0.49370862741E+02 -0.11495901804E+02 -0.25605109587E+02  0.99514567200E+02  0.81718355356E+02 0.  0.
          5    1    3    3  501    0  0.14342757371E+02 -0.45570586876E+02 -0.95569050632E+02  0.10694824223E+03  0.47000000000E+01 0. -1.
        -13    1    4    4    0    0  0.22486389795E+02  0.49218719944E+02 -0.68364632219E+02  0.87188548889E+02  0.00000000000E+00 0.  1.
         14    1    4    4    0    0 -0.86766179608E+01  0.26811713148E+02  0.18921987081E+02  0.33943972311E+02  0.00000000000E+00 0. -1.
         -5    1    5    5    0  502 -0.77523391947E+02 -0.18963944412E+02 -0.20989677974E+02  0.82656905750E+02  0.47000000000E+01 0.  1.
         11    1    6    6    0    0  0.19144120761E+02 -0.28665421830E+01 -0.53869346588E+02  0.57241776052E+02  0.00000000000E+00 0. -1.
        -12    1    6    6    0    0  0.30226741980E+02 -0.86293596206E+01  0.28264237001E+02  0.42272791148E+02  0.00000000000E+00 0.  1.
</event>
<event>
12    1  0.8135779E-002  0.2096782E+03  0.7818608E-02  0.1142657E+00
         21   -1    0    0  501  502  0.00000000000E+00  0.00000000000E+00  0.49025744737E+02  0.49025744737E+02  0.00000000000E+00 0.  1.
         21   -1    0    0  502  503 -0.00000000000E+00 -0.00000000000E+00 -0.10745857509E+04  0.10745857509E+04  0.00000000000E+00 0. -1.
         -6    2    1    2    0  503  0.65259728750E+02  0.94960524235E+02 -0.75664541495E+03  0.78516063881E+03  0.17518165262E+03 0.  0.
        -24    2    3    3    0    0  0.35594767989E+02 -0.25537805531E+02 -0.36084820668E+03  0.37033853544E+03  0.70852209184E+02 0.  0.
          6    2    1    2  501    0 -0.65259728750E+02 -0.94960524235E+02 -0.26891459123E+03  0.33845085684E+03  0.17016930323E+03 0.  0.
         24    2    5    5    0    0 -0.11061143646E+03 -0.68628377330E+02 -0.17362039733E+03  0.22957830409E+03  0.74949391513E+02 0.  0.
          5    1    5    5  501    0  0.45351707707E+02 -0.26332146905E+02 -0.95294193896E+02  0.10887255275E+03  0.47000000000E+01 0. -1.
        -13    1    6    6    0    0 -0.23592444185E+01  0.49570589177E+01  0.54717311914E+01  0.77510199052E+01  0.00000000000E+00 0.  1.
         14    1    6    6    0    0 -0.10825219204E+03 -0.73585436248E+02 -0.17909212852E+03  0.22182728418E+03  0.00000000000E+00 0. -1.
         -5    1    3    3    0  503  0.29664960761E+02  0.12049832977E+03 -0.39579720827E+03  0.41482210337E+03  0.47000000000E+01 0.  1.
         13    1    4    4    0    0  0.54153451667E+02 -0.31826101949E+01 -0.23539015858E+03  0.24156003827E+03  0.00000000000E+00 0. -1.
        -14    1    4    4    0    0 -0.18558683678E+02 -0.22355195336E+02 -0.12545804810E+03  0.12877849716E+03  0.00000000000E+00 0.  1.
</event>
<event>
12    1  0.8135779E-002  0.2850887E+03  0.7818608E-02  0.1093035E+00
         21   -1    0    0  501  502  0.00000000000E+00  0.00000000000E+00  0.50599971855E+03  0.50599971855E+03  0.00000000000E+00 0.  1.
         21   -1    0    0  502  503 -0.00000000000E+00 -0.00000000000E+00 -0.20734875744E+03  0.20734875744E+03  0.00000000000E+00 0. -1.
         -6    2    1    2    0  503  0.18838956077E+03  0.12716668292E+03 -0.20560484429E+02  0.28582918456E+03  0.17208601738E+03 0.  0.
        -24    2    3    3    0    0  0.13491631402E+03  0.62644130436E+02  0.50016208259E+02  0.17616739793E+03  0.80041440134E+02 0.  0.
          6    2    1    2  501    0 -0.18838956077E+03 -0.12716668292E+03  0.31921144554E+03  0.42751929143E+03  0.17092339140E+03 0.  0.
         24    2    5    5    0    0 -0.11708195574E+03 -0.87316615209E+02  0.30091635368E+03  0.34367656475E+03  0.78933855791E+02 0.  0.
          5    1    5    5  501    0 -0.71307605028E+02 -0.39850067709E+02  0.18295091858E+02  0.83842726682E+02  0.47000000000E+01 0. -1.
        -11    1    6    6    0    0 -0.51825783162E+02 -0.80256330757E+02  0.13621091394E+03  0.16637428739E+03  0.00000000000E+00 0.  1.
         12    1    6    6    0    0 -0.65256172575E+02 -0.70602844526E+01  0.16470543974E+03  0.17730227736E+03  0.00000000000E+00 0. -1.
         -5    1    3    3    0  503  0.53473246745E+02  0.64522552483E+02 -0.70576692688E+02  0.10966178663E+03  0.47000000000E+01 0.  1.
         11    1    4    4    0    0  0.48962808633E+02  0.11777487174E+02 -0.20008254207E+02  0.54188523414E+02  0.00000000000E+00 0. -1.
        -12    1    4    4    0    0  0.85953505387E+02  0.50866643262E+02  0.70024462466E+02  0.12197887452E+03  0.00000000000E+00 0.  1.
</event>
<event>
12    1  0.8135779E-002  0.2724583E+03  0.7818608E-02  0.1099953E+00
         21   -1    0    0  501  502  0.00000000000E+00  0.00000000000E+00  0.24460321115E+03  0.24460321115E+03  0.00000000000E+00 0.  1.
         21   -1    0    0  502  503 -0.00000000000E+00 -0.00000000000E+00 -0.45687864703E+03  0.45687864703E+03  0.00000000000E+00 0.  1.
         -6    2    1    2    0  503  0.18314786725E+02  0.21094162512E+03 -0.30967995206E+03  0.41213574459E+03  0.17065286004E+03 0.  0.
        -24    2    3    3    0    0 -0.30872088942E+02  0.20550393236E+03 -0.23806244065E+03  0.32495733453E+03  0.75753491828E+02 0.  0.
          6    2    1    2  501    0 -0.18314786725E+02 -0.21094162512E+03  0.97404516179E+02  0.28934611360E+03  0.17146933564E+03 0.  0.
         24    2    5    5    0    0  0.39738158516E+02 -0.60340517359E+02  0.67827109979E+02  0.12518841178E+03  0.76495243764E+02 0.  0.
          5    1    5    5  501    0 -0.58052945241E+02 -0.15060110776E+03  0.29577406200E+02  0.16415770182E+03  0.47000000000E+01 0. -1.
        -13    1    6    6    0    0 -0.13809536712E+02 -0.45614207536E+02  0.19230222775E+02  0.51392224133E+02  0.00000000000E+00 0.  1.
         14    1    6    6    0    0  0.53547695229E+02 -0.14726309823E+02  0.48596887204E+02  0.73796187647E+02  0.00000000000E+00 0. -1.
         -5    1    3    3    0  503  0.49186875667E+02  0.54376927595E+01 -0.71617511406E+02  0.87178410059E+02  0.47000000000E+01 0.  1.
         13    1    4    4    0    0 -0.53658048283E+02  0.15819067230E+03 -0.19705037134E+03  0.25832600293E+03  0.00000000000E+00 0. -1.
        -14    1    4    4    0    0  0.22785959340E+02  0.47313260060E+02 -0.41012069314E+02  0.66631331594E+02  0.00000000000E+00 0.  1.
</event>
<event>
12    1  0.8135779E-002  0.1967898E+03  0.7818608E-02  0.1152972E+00
         21   -1    0    0  503  502  0.00000000000E+00  0.00000000000E+00  0.84838183042E+02  0.84838183042E+02  0.00000000000E+00 0.  1.
         21   -1    0    0  501  503 -0.00000000000E+00 -0.00000000000E+00 -0.50117793740E+03  0.50117793740E+03  0.00000000000E+00 0.  1.
          6    2    1    2  501    0 -0.28524456180E+02 -0.88509588188E+02 -0.29962183980E+03  0.35721647566E+03  0.17082965725E+03 0.  0.
         24    2    3    3    0    0 -0.80289331193E+02 -0.71026184682E+02 -0.18296848598E+03  0.22831586806E+03  0.84614260797E+02 0.  0.
         -6    2    1    2    0  502  0.28524456180E+02  0.88509588188E+02 -0.11671791456E+03  0.22879964478E+03  0.17343187156E+03 0.  0.
        -24    2    5    5    0    0  0.10892953382E+02  0.46653906388E+01 -0.12767725173E+03  0.14229579270E+03  0.61694324756E+02 0.  0.
          5    1    3    3  501    0  0.51764875013E+02 -0.17483403506E+02 -0.11665335382E+03  0.12890060760E+03  0.47000000000E+01 0. -1.
        -13    1    4    4    0    0 -0.78154935881E+02 -0.16472896089E+02 -0.12775606851E+03  0.15066905239E+03  0.00000000000E+00 0.  1.
         14    1    4    4    0    0 -0.21343953119E+01 -0.54553288593E+02 -0.55212417477E+02  0.77646815667E+02  0.00000000000E+00 0. -1.
         -5    1    5    5    0  502  0.17631502799E+02  0.83844197549E+02  0.10959337176E+02  0.86503852081E+02  0.47000000000E+01 0.  1.
         13    1    6    6    0    0 -0.18726448991E+02  0.20169739331E+02 -0.75154366514E+02  0.80035473901E+02  0.00000000000E+00 0. -1.
        -14    1    6    6    0    0  0.29619402372E+02 -0.15504348693E+02 -0.52522885219E+02  0.62260318799E+02  0.00000000000E+00 0.  1.
</event>
<event>
12    1  0.8135779E-002  0.3513941E+03  0.7818608E-02  0.1062077E+00
         21   -1    0    0  503  502  0.00000000000E+00  0.00000000000E+00  0.11317914724E+04  0.11317914724E+04  0.00000000000E+00 0.  1.
         21   -1    0    0  501  503 -0.00000000000E+00 -0.00000000000E+00 -0.13099951820E+03  0.13099951820E+03  0.00000000000E+00 0. -1.
          6    2    1    2  501    0 -0.28927123648E+03 -0.10145962971E+03  0.75932151522E+03  0.83668808278E+03  0.17177275593E+03 0.  0.
         24    2    3    3    0    0 -0.79936178802E+02 -0.85145345550E+02  0.30886081946E+03  0.33967274030E+03  0.79643217884E+02 0.  0.
         -6    2    1    2    0  502  0.28927123648E+03  0.10145962971E+03  0.24147043902E+03  0.42610290785E+03  0.17112513096E+03 0.  0.
        -24    2    5    5    0    0  0.84233390807E+02  0.84679483146E+02  0.80216640585E+02  0.16467037547E+03  0.80098340428E+02 0.  0.
          5    1    3    3  501    0 -0.20933505767E+03 -0.16314284162E+02  0.45046069576E+03  0.49701534248E+03  0.47000000000E+01 0. -1.
        -11    1    4    4    0    0 -0.19224911939E+01 -0.25015317948E+02  0.13860404400E+02  0.28663093248E+02  0.00000000000E+00 0.  1.
         12    1    4    4    0    0 -0.78013687609E+02 -0.60130027603E+02  0.29500041506E+03  0.31100964705E+03  0.00000000000E+00 0. -1.
         -5    1    5    5    0  502  0.20503784567E+03  0.16780146566E+02  0.16125379844E+03  0.26143253238E+03  0.47000000000E+01 0.  1.
         13    1    6    6    0    0  0.38012651523E+01  0.23830363357E+02  0.55955549359E+02  0.60937339445E+02  0.00000000000E+00 0. -1.
        -14    1    6    6    0    0  0.80432125654E+02  0.60849119789E+02  0.24261091225E+02  0.10373303603E+03  0.00000000000E+00 0.  1.
</event>
<event>
12    1  0.8135779E-002  0.2037205E+03  0.7818608E-02  0.1146739E+00
         21   -1    0    0  501  502  0.00000000000E+00  0.00000000000E+00  0.60942949824E+02  0.60942949824E+02  0.00000000000E+00 0. -1.
         21   -1    0    0  502  503 -0.00000000000E+00 -0.00000000000E+00 -0.68931956939E+03  0.68931956939E+03  0.00000000000E+00 0. -1.
         -6    2    1    2    0  503 -0.19590626965E+00 -0.10776684308E+03 -0.26945267217E+03  0.33779698137E+03  0.17288240869E+03 0.  0.
        -24    2    3    3    0    0 -0.47143534482E+02 -0.12158249417E+03 -0.23292531045E+03  0.27654920456E+03  0.72252657827E+02 0.  0.
          6    2    1    2  501    0  0.19590626965E+00  0.10776684308E+03 -0.35892394739E+03  0.41246553784E+03  0.17230115800E+03 0.  0.
         24    2    5    5    0    0 -0.42255649219E+02  0.11951893143E+03 -0.32082052532E+03  0.35403432257E+03  0.79650343595E+02 0.  0.
          5    1    5    5  501    0  0.42451555489E+02 -0.11752088348E+02 -0.38103422072E+02  0.58431215266E+02  0.47000000000E+01 0. -1.
        -11    1    6    6    0    0  0.12616802140E+02  0.45497434690E+01 -0.65512960915E+01  0.14926598486E+02  0.00000000000E+00 0.  1.
         12    1    6    6    0    0 -0.54872451359E+02  0.11496918796E+03 -0.31426922923E+03  0.33910772409E+03  0.00000000000E+00 0. -1.
         -5    1    3    3    0  503  0.46947628212E+02  0.13815651089E+02 -0.36527361720E+02  0.61247776808E+02  0.47000000000E+01 0.  1.
         13    1    4    4    0    0 -0.44463118567E+02 -0.76406997835E+02 -0.20531134929E+03  0.22353466929E+03  0.00000000000E+00 0. -1.
        -14    1    4    4    0    0 -0.26804159148E+01 -0.45175496331E+02 -0.27613961165E+02  0.53014535266E+02  0.00000000000E+00 0.  1.
</event>
<event>
12    1  0.8135779E-002  0.2273335E+03  0.7818608E-02  0.1128554E+00
         21   -1    0    0  503  502  0.00000000000E+00  0.00000000000E+00  0.35238376647E+03  0.35238376647E+03  0.00000000000E+00 0. -1.
         21   -1    0    0  501  503 -0.00000000000E+00 -0.00000000000E+00 -0.25684545813E+03  0.25684545813E+03  0.00000000000E+00 0. -1.
          6    2    1    2  501    0 -0.90155259068E+02 -0.11847638264E+03 -0.15181513945E+03  0.27336484596E+03  0.17180185814E+03 0.  0.
         24    2    3    3    0    0  0.17384220473E+02 -0.28807674705E+02 -0.70503227172E+02  0.11138048276E+03  0.79390261714E+02 0.  0.
         -6    2    1    2    0  502  0.90155259068E+02  0.11847638264E+03  0.24735344779E+03  0.33586437864E+03  0.17162904395E+03 0.  0.
        -24    2    5    5    0    0  0.75482626479E+02  0.73698910182E+02  0.25669563432E+03  0.28759767546E+03  0.75436184872E+02 0.  0.
          5    1    3    3  501    0 -0.10753947954E+03 -0.89668707938E+02 -0.81311912276E+02  0.16198436320E+03  0.47000000000E+01 0. -1.
        -13    1    4    4    0    0  0.35268442338E+02 -0.47948257568E+02 -0.43228559382E+02  0.73563623993E+02  0.00000000000E+00 0.  1.
         14    1    4    4    0    0 -0.17884221865E+02  0.19140582863E+02 -0.27274667790E+02  0.37816858769E+02  0.00000000000E+00 0. -1.
         -5    1    5    5    0  502  0.14672632589E+02  0.44777472461E+02 -0.93421865335E+01  0.48266703185E+02  0.47000000000E+01 0.  1.
         11    1    6    6    0    0  0.59067956937E+02  0.24368302101E+02  0.74593013854E+02  0.98218915693E+02  0.00000000000E+00 0. -1.
        -12    1    6    6    0    0  0.16414669541E+02  0.49330608081E+02  0.18210262047E+03  0.18937875977E+03  0.00000000000E+00 0.  1.
</event>
<event>
12    1  0.8135779E-002  0.2204409E+03  0.7818608E-02  0.1134036E+00
         21   -1    0    0  501  502  0.00000000000E+00  0.00000000000E+00  0.15317800714E+03  0.15317800714E+03  0.00000000000E+00 0.  1.
         21   -1    0    0  502  503 -0.00000000000E+00 -0.00000000000E+00 -0.40996222078E+03  0.40996222078E+03  0.00000000000E+00 0.  1.
         -6    2    1    2    0  503 -0.69685386347E+02  0.11632179894E+03 -0.26551702580E+03  0.34509921456E+03  0.17380265510E+03 0.  0.
        -24    2    3    3    0    0 -0.86332198219E+02  0.96189512797E+02 -0.11037212989E+03  0.18770018655E+03  0.79647235690E+02 0.  0.
          6    2    1    2  501    0  0.69685386347E+02 -0.11632179894E+03  0.87328121551E+01  0.21804101336E+03  0.17052509352E+03 0.  0.
         24    2    5    5    0    0  0.61366100105E+02 -0.49660405497E+02  0.65234716111E+02  0.13013477325E+03  0.80296556007E+02 0.  0.
          5    1    5    5  501    0  0.83192862417E+01 -0.66661393445E+02 -0.56501903956E+02  0.87906240110E+02  0.47000000000E+01 0. -1.
        -13    1    6    6    0    0  0.20008503846E+02 -0.36606799045E+02 -0.10358133019E+02  0.42984751740E+02  0.00000000000E+00 0.  1.
         14    1    6    6    0    0  0.41357596259E+02 -0.13053606452E+02  0.75592849130E+02  0.87150021511E+02  0.00000000000E+00 0. -1.
         -5    1    3    3    0  503  0.16646811872E+02  0.20132286145E+02 -0.15514489591E+03  0.15739902800E+03  0.47000000000E+01 0.  1.
         11    1    4    4    0    0 -0.20811219842E+02  0.12366675975E+02 -0.69724851424E+02  0.73807834625E+02  0.00000000000E+00 0. -1.
        -12    1    4    4    0    0 -0.65520978378E+02  0.83822836822E+02 -0.40647278468E+02  0.11389235193E+03  0.00000000000E+00 0.  1.
</event>
<event>
12    1  0.8135779E-002  0.2127753E+03  0.7818608E-02  0.1139476E+00
         21   -1    0    0  501  502  0.00000000000E+00  0.00000000000E+00  0.10503730633E+04  0.10503730633E+04  0.00000000000E+00 0. -1.
         21   -1    0    0  502  503 -0.00000000000E+00 -0.00000000000E+00 -0.52812042120E+02  0.52812042120E+02  0.00000000000E+00 0. -1.
         -6    2    1    2    0  503 -0.52041402541E+02 -0.11184766607E+03  0.26070908817E+03  0.33622741572E+03  0.17280462506E+03 0.  0.
        -24    2    3    3    0    0 -0.20208295698E+01 -0.13190321017E+03  0.16858402934E+03  0.22939390490E+03  0.82452701911E+02 0.  0.
          6    2    1    2  501    0  0.52041402541E+02  0.11184766607E+03  0.73685193302E+03  0.76695768972E+03  0.17336412152E+03 0.  0.
         24    2    5    5    0    0 -0.98595508145E+01 -0.47767464736E+01  0.30760172095E+03  0.31783541662E+03  0.79249638968E+02 0.  0.
          5    1    5    5  501    0  0.61900953355E+02  0.11662441255E+03  0.42925021207E+03  0.44912227310E+03  0.47000000000E+01 0. -1.
        -13    1    6    6    0    0  0.19873153469E+02 -0.28578640817E+02  0.21348975130E+03  0.21630893381E+03  0.00000000000E+00 0.  1.
         14    1    6    6    0    0 -0.29732704283E+02  0.23801894343E+02  0.94111969657E+02  0.10152648281E+03  0.00000000000E+00 0. -1.
         -5    1    3    3    0  503 -0.50020572971E+02  0.20055544092E+02  0.92125058838E+02  0.10683351082E+03  0.47000000000E+01 0.  1.
         11    1    4    4    0    0  0.17138689392E+02 -0.55003737792E+02  0.12797476309E+03  0.14034488175E+03  0.00000000000E+00 0. -1.
        -12    1    4    4    0    0 -0.19159518962E+02 -0.76899472373E+02  0.40609266241E+02  0.89049023143E+02  0.00000000000E+00 0.  1.
</event>
<event>
12    1  0.8135779E-002  0.1920034E+03  0.7818608E-02  0.1157089E+00
         21   -1    0    0  501  502  0.00000000000E+00  0.00000000000E+00  0.28231118555E+03  0.28231118555E+03  0.00000000000E+00 0. -1.
         21   -1    0    0  502  503 -0.00000000000E+00 -0.00000000000E+00 -0.13840762206E+03  0.13840762206E+03  0.00000000000E+00 0. -1.
         -6    2    1    2    0  503 -0.27243145643E+02 -0.83326285222E+02  0.12557554332E+03  0.22784265961E+03  0.16869381039E+03 0.  0.
        -24    2    3    3    0    0 -0.79717671627E+02 -0.74645950535E+02  0.10315371778E+03  0.16993106882E+03  0.79428921413E+02 0.  0.
          6    2    1    2  501    0  0.27243145643E+02  0.83326285222E+02  0.18328020172E+02  0.19287614801E+03  0.17082105653E+03 0.  0.
         24    2    5    5    0    0  0.43633379105E+02  0.72551797318E+02  0.70759513238E+02  0.13669892124E+03  0.80697281786E+02 0.  0.
          5    1    5    5  501    0 -0.16390233462E+02  0.10774487903E+02 -0.52431493066E+02  0.56177226770E+02  0.47000000000E+01 0. -1.
        -11    1    6    6    0    0  0.66697945070E+00 -0.12259532516E+02  0.31554116577E+02  0.33858577525E+02  0.00000000000E+00 0.  1.
         12    1    6    6    0    0  0.42966399655E+02  0.84811329834E+02  0.39205396661E+02  0.10284034371E+03  0.00000000000E+00 0. -1.
         -5    1    3    3    0  503  0.52474525984E+02 -0.86803346864E+01  0.22421825535E+02  0.57911590790E+02  0.47000000000E+01 0.  1.
         11    1    4    4    0    0 -0.35057540833E+02  0.93343472519E+01  0.12063626319E+02  0.38232084534E+02  0.00000000000E+00 0. -1.
        -12    1    4    4    0    0 -0.44660130794E+02 -0.83980297787E+02  0.91090091463E+02  0.13169898428E+03  0.00000000000E+00 0.  1.
</event>
<event>
12    1  0.8135779E-002  0.1878443E+03  0.7818608E-02  0.1160456E+00
         21   -1    0    0  503  502  0.00000000000E+00  0.00000000000E+00  0.10167892885E+03  0.10167892885E+03  0.00000000000E+00 0. -1.
         21   -1    0    0  501  503 -0.00000000000E+00 -0.00000000000E+00 -0.63508124726E+03  0.63508124726E+03  0.00000000000E+00 0. -1.
          6    2    1    2  501    0  0.50792799171E+01  0.75208185086E+02 -0.51498283335E+03  0.54817224627E+03  0.17205645221E+03 0.  0.
         24    2    3    3    0    0  0.22267298461E+02  0.59103417379E+01 -0.42787247459E+03  0.43544281942E+03  0.77490836587E+02 0.  0.
         -6    2    1    2    0  502 -0.50792799171E+01 -0.75208185086E+02 -0.18419485064E+02  0.18858792984E+03  0.17188385515E+03 0.  0.
        -24    2    5    5    0    0 -0.48738510596E+02 -0.94675504852E+02 -0.32616981791E+02  0.13850036775E+03  0.82338270158E+02 0.  0.
          5    1    3    3  501    0 -0.17188018544E+02  0.69297843348E+02 -0.87110358763E+02  0.11272942685E+03  0.47000000000E+01 0. -1.
        -11    1    4    4    0    0  0.15326778432E+02 -0.27560877045E+02 -0.81514323998E+02  0.87401928454E+02  0.00000000000E+00 0.  1.
         12    1    4    4    0    0  0.69405200288E+01  0.33471218783E+02 -0.34635815059E+03  0.34804089097E+03  0.00000000000E+00 0. -1.
         -5    1    5    5    0  502  0.43659230679E+02  0.19467319766E+02  0.14197496727E+02  0.50087562085E+02  0.47000000000E+01 0.  1.
         11    1    6    6    0    0  0.13103758738E+02 -0.64428528267E+02 -0.14919575825E+02  0.67419118138E+02  0.00000000000E+00 0. -1.
        -12    1    6    6    0    0 -0.61842269334E+02 -0.30246976585E+02 -0.17697405967E+02  0.71081249615E+02  0.00000000000E+00 0.  1.
</event>
<event>
12    1  0.8135779E-002  0.1820809E+03  0.7818608E-02  0.1165999E+00
         21   -1    0    0  501  502  0.00000000000E+00  0.00000000000E+00  0.19578594477E+03  0.19578594477E+03  0.00000000000E+00 0. -1.
         21   -1    0    0  502  503 -0.00000000000E+00 -0.00000000000E+00 -0.24033355902E+03  0.24033355902E+03  0.00000000000E+00 0. -1.
         -6    2    1    2    0  503 -0.11161827754E+02 -0.53388548780E+02 -0.14145822472E+03  0.23057296846E+03  0.17371971939E+03 0.  0.
        -24    2    3    3    0    0 -0.62518722781E+02 -0.73437523056E+02 -0.10700514789E+03  0.16539170935E+03  0.81256724990E+02 0.  0.
          6    2    1    2  501    0  0.11161827754E+02  0.53388548780E+02  0.96910610466E+02  0.20554653533E+03  0.17286638836E+03 0.  0.
         24    2    5    5    0    0 -0.43751170984E+01  0.27043334471E+02 -0.18424696049E+02  0.86132173122E+02  0.79553744307E+02 0.  0.
          5    1    5    5  501    0  0.15536944852E+02  0.26345214309E+02  0.11533530651E+03  0.11941436221E+03  0.47000000000E+01 0. -1.
        -13    1    6    6    0    0 -0.81341446891E+01 -0.24261792782E+02  0.98640669583E+01  0.27424418239E+02  0.00000000000E+00 0.  1.
         14    1    6    6    0    0  0.37590275907E+01  0.51305127253E+02 -0.28288763007E+02  0.58707754882E+02  0.00000000000E+00 0. -1.
         -5    1    3    3    0  503  0.51356895027E+02  0.20048974276E+02 -0.34453076832E+02  0.65181259113E+02  0.47000000000E+01 0.  1.
         13    1    4    4    0    0 -0.53001142529E+02 -0.63680036157E+02 -0.12048456480E+03  0.14622174418E+03  0.00000000000E+00 0. -1.
        -14    1    4    4    0    0 -0.95175802520E+01 -0.97574868992E+01  0.13479416913E+02  0.19169965174E+02  0.00000000000E+00 0.  1.
</event>
<event>
12    1  0.8135779E-002  0.2363143E+03  0.7818608E-02  0.1122303E+00
         21   -1    0    0  501  502  0.00000000000E+00  0.00000000000E+00  0.13202838126E+03  0.13202838126E+03  0.00000000000E+00 0.  1.
         21   -1    0    0  502  503 -0.00000000000E+00 -0.00000000000E+00 -0.44252612319E+03  0.44252612319E+03  0.00000000000E+00 0. -1.
         -6    2    1    2    0  503  0.85080426149E+02 -0.13727160074E+03 -0.21618481780E+03  0.32028160326E+03  0.17251741550E+03 0.  0.
        -24    2    3    3    0    0 -0.11250161524E+02 -0.59384018614E+02 -0.14889697798E+03  0.17922912735E+03  0.79370915566E+02 0.  0.
          6    2    1    2  501    0 -0.85080426149E+02  0.13727160074E+03 -0.94312924129E+02  0.25427290120E+03  0.17227190526E+03 0.  0.
         24    2    5    5    0    0 -0.60144319488E+02  0.54311865366E+01 -0.28516865933E+02  0.10475729831E+03  0.80709621190E+02 0.  0.
          5    1    5    5  501    0 -0.24936106662E+02  0.13184041421E+03 -0.65796058196E+02  0.14951560289E+03  0.47000000000E+01 0. -1.
        -11    1    6    6    0    0  0.17560931147E+02 -0.42122398349E+01 -0.18440111550E+02  0.25810210793E+02  0.00000000000E+00 0.  1.
         12    1    6    6    0    0 -0.77705250635E+02  0.96434263716E+01 -0.10076754382E+02  0.78947087516E+02  0.00000000000E+00 0. -1.
         -5    1    3    3    0  503  0.96330587674E+02 -0.77887582129E+02 -0.67287839827E+02  0.14105247591E+03  0.47000000000E+01 0.  1.
         11    1    4    4    0    0  0.23971898264E+02 -0.24278482063E+01 -0.78297341687E+02  0.81920815844E+02  0.00000000000E+00 0. -1.
        -12    1    4    4    0    0 -0.35222059788E+02 -0.56956170408E+02 -0.70599636289E+02  0.97308311502E+02  0.00000000000E+00 0.  1.
</event>
<event>
12    1  0.8135779E-002  0.1797673E+03  0.7818608E-02  0.1168737E+00
         21   -1    0    0  503  502  0.00000000000E+00  0.00000000000E+00  0.13766464797E+03  0.13766464797E+03  0.00000000000E+00 0.  1.
         21   -1    0    0  501  503 -0.00000000000E+00 -0.00000000000E+00 -0.27948756275E+03  0.27948756275E+03  0.00000000000E+00 0.  1.
          6    2    1    2  501    0 -0.19314490145E+02  0.49209246635E+02  0.15504532263E+02  0.18043465280E+03  0.17181872403E+03 0.  0.
         24    2    3    3    0    0  0.45972695752E+02  0.48229128903E+02  0.38785661580E+02  0.11095459627E+03  0.79793842241E+02 0.  0.
         -6    2    1    2    0  502  0.19314490145E+02 -0.49209246635E+02 -0.15732744704E+03  0.23671755793E+03  0.16878589145E+03 0.  0.
        -24    2    5    5    0    0 -0.50834632161E+02 -0.33923361419E+02 -0.11042653782E+03  0.15083191924E+03  0.82591121366E+02 0.  0.
          5    1    3    3  501    0 -0.65287185898E+02  0.98011773239E+00 -0.23281129317E+02  0.69480056531E+02  0.47000000000E+01 0. -1.
        -13    1    4    4    0    0  0.46757793006E+02  0.45036472424E+02  0.60651138330E+02  0.88843320716E+02  0.00000000000E+00 0.  1.
         14    1    4    4    0    0 -0.78509725396E+00  0.31926564787E+01 -0.21865476750E+02  0.22111275553E+02  0.00000000000E+00 0. -1.
         -5    1    5    5    0  502  0.70149122306E+02 -0.15285885217E+02 -0.46900909219E+02  0.85885638688E+02  0.47000000000E+01 0.  1.
         11    1    6    6    0    0  0.32699031044E+01 -0.39116251894E+02 -0.17066200097E+02  0.42802203381E+02  0.00000000000E+00 0. -1.
        -12    1    6    6    0    0 -0.54104535265E+02  0.51928904748E+01 -0.93360337726E+02  0.10802971586E+03  0.00000000000E+00 0.  1.
</event>
<event>
12    1  0.8135779E-002  0.1784369E+03  0.7818608E-02  0.1169469E+00
         21   -1    0    0  503  502  0.00000000000E+00  0.00000000000E+00  0.67116159407E+02  0.67116159407E+02  0.00000000000E+00 0. -1.
         21   -1    0    0  501  503 -0.00000000000E+00 -0.00000000000E+00 -0.48884592398E+03  0.48884592398E+03  0.00000000000E+00 0. -1.
          6    2    1    2  501    0  0.24110053393E+02  0.40279340020E+02 -0.26151926034E+03  0.31659445815E+03  0.17215111819E+03 0.  0.
         24    2    3    3    0    0  0.29045405239E+02 -0.39246690695E+02 -0.11115436333E+03  0.14635803575E+03  0.81740099367E+02 0.  0.
         -6    2    1    2    0  502 -0.24110053393E+02 -0.40279340020E+02 -0.16021050423E+03  0.23936762523E+03  0.17153930873E+03 0.  0.
        -24    2    5    5    0    0  0.37931961952E+02 -0.40385911083E+01 -0.29942415281E+02  0.90523852950E+02  0.76438705931E+02 0.  0.
          5    1    3    3  501    0 -0.49353518459E+01  0.79526030715E+02 -0.15036489702E+03  0.17023642241E+03  0.47000000000E+01 0. -1.
        -11    1    4    4    0    0 -0.10747943101E+02  0.76562236597E+01  0.56447167212E+01  0.14352660676E+02  0.00000000000E+00 0.  1.
         12    1    4    4    0    0  0.39793348340E+02 -0.46902914354E+02 -0.11679908005E+03  0.13200537507E+03  0.00000000000E+00 0. -1.
         -5    1    5    5    0  502 -0.62042015345E+02 -0.36240748912E+02 -0.13026808895E+03  0.14884377228E+03  0.47000000000E+01 0.  1.
         11    1    6    6    0    0 -0.18453519487E+02  0.31752484084E+01  0.98284979417E+01  0.21147433785E+02  0.00000000000E+00 0. -1.
        -12    1    6    6    0    0  0.56385481438E+02 -0.72138395167E+01 -0.39770913223E+02  0.69376419165E+02  0.00000000000E+00 0.  1.
</event>
<event>
12    1  0.8135779E-002  0.2234329E+03  0.7818608E-02  0.1132096E+00
         21   -1    0    0  501  502  0.00000000000E+00  0.00000000000E+00  0.79807240826E+03  0.79807240826E+03  0.00000000000E+00 0. -1.
         21   -1    0    0  502  503 -0.00000000000E+00 -0.00000000000E+00 -0.64002747717E+02  0.64002747717E+02  0.00000000000E+00 0. -1.
         -6    2    1    2    0  503  0.13332963791E+03 -0.19523565246E+02  0.45030172129E+03  0.50090138031E+03  0.17312593871E+03 0.  0.
        -24    2    3    3    0    0  0.36608747485E+02 -0.64325924132E+02  0.18200928938E+03  0.21217122771E+03  0.80070116371E+02 0.  0.
          6    2    1    2  501    0 -0.13332963791E+03  0.19523565246E+02  0.28376793926E+03  0.36117377567E+03  0.17822539364E+03 0.  0.
         24    2    5    5    0    0 -0.98395438007E+02 -0.57521105203E+02  0.17339709750E+03  0.22203322702E+03  0.79005447390E+02 0.  0.
          5    1    5    5  501    0 -0.34934199899E+02  0.77044670449E+02  0.11037084176E+03  0.13914054865E+03  0.47000000000E+01 0. -1.
        -13    1    6    6    0    0 -0.69175765116E+02 -0.15477214935E+02  0.14965857545E+03  0.16559746335E+03  0.00000000000E+00 0.  1.
         14    1    6    6    0    0 -0.29219672891E+02 -0.42043890268E+02  0.23738522050E+02  0.56435763677E+02  0.00000000000E+00 0. -1.
         -5    1    3    3    0  503  0.96720890421E+02  0.44802358886E+02  0.26829243190E+03  0.28873015260E+03  0.47000000000E+01 0.  1.
         11    1    4    4    0    0  0.53204743190E+01 -0.17458039557E+02  0.14173864688E+03  0.14290883322E+03  0.00000000000E+00 0. -1.
        -12    1    4    4    0    0  0.31288273166E+02 -0.46867884575E+02  0.40270642501E+02  0.69262394484E+02  0.00000000000E+00 0.  1.
</event>
<event>
12    1  0.8135779E-002  0.2002534E+03  0.7818608E-02  0.1149544E+00
         21   -1    0    0  501  502  0.00000000000E+00  0.00000000000E+00  0.36664305663E+02  0.36664305663E+02  0.00000000000E+00 0. -1.
         21   -1    0    0  502  503 -0.00000000000E+00 -0.00000000000E+00 -0.11119120788E+04  0.11119120788E+04  0.00000000000E+00 0. -1.
         -6    2    1    2    0  503 -0.37788588131E+02  0.95903098419E+02 -0.61188080295E+03  0.64378892688E+03  0.17158287699E+03 0.  0.
        -24    2    3    3    0    0 -0.11870552791E+02  0.18200276723E+02 -0.48523265215E+03  0.49288724645E+03  0.83755303740E+02 0.  0.
          6    2    1    2  501    0  0.37788588131E+02 -0.95903098419E+02 -0.46336697016E+03  0.50478745755E+03  0.17168589515E+03 0.  0.
         24    2    5    5    0    0  0.72855599642E+02 -0.36535057283E+02 -0.18593125166E+03  0.21887326151E+03  0.81806634498E+02 0.  0.
          5    1    5    5  501    0 -0.35067011511E+02 -0.59368041136E+02 -0.27743571849E+03  0.28591419605E+03  0.47000000000E+01 0. -1.
        -11    1    6    6    0    0  0.12227812664E+02  0.25045491994E+02 -0.59823243177E+02  0.65997094603E+02  0.00000000000E+00 0.  1.
         12    1    6    6    0    0  0.60627786978E+02 -0.61580549277E+02 -0.12610800848E+03  0.15287616690E+03  0.00000000000E+00 0. -1.
         -5    1    3    3    0  503 -0.25918035340E+02  0.77702821696E+02 -0.12664815080E+03  0.15090168043E+03  0.47000000000E+01 0.  1.
         11    1    4    4    0    0 -0.20369703242E+02 -0.95396066145E+01 -0.34269536216E+02  0.40991828662E+02  0.00000000000E+00 0. -1.
        -12    1    4    4    0    0  0.84991504515E+01  0.27739883338E+02 -0.45096311593E+03  0.45189541779E+03  0.00000000000E+00 0.  1.
</event>
<event>
12    1  0.8135779E-002  0.2134275E+03  0.7818608E-02  0.1138881E+00
         21   -1    0    0  503  502  0.00000000000E+00  0.00000000000E+00  0.14195098810E+03  0.14195098810E+03  0.00000000000E+00 0. -1.
         21   -1    0    0  501  503 -0.00000000000E+00 -0.00000000000E+00 -0.81322774983E+03  0.81322774983E+03  0.00000000000E+00 0.  1.
          6    2    1    2  501    0  0.74601783612E+02 -0.10057199347E+03 -0.70724451942E+03  0.73874631577E+03  0.17283274236E+03 0.  0.
         24    2    3    3    0    0  0.11379960742E+03 -0.47434481375E+02 -0.46821523325E+03  0.49071979657E+03  0.79875111407E+02 0.  0.
         -6    2    1    2    0  502 -0.74601783612E+02  0.10057199347E+03  0.35967757684E+02  0.21643242217E+03  0.17282697064E+03 0.  0.
        -24    2    5    5    0    0 -0.42935512510E+02 -0.11462642370E+02 -0.80848002975E+01  0.91864247180E+02  0.79992659098E+02 0.  0.
          5    1    3    3  501    0 -0.39197823810E+02 -0.53137512100E+02 -0.23902928616E+03  0.24802651920E+03  0.47000000000E+01 0. -1.
        -11    1    4    4    0    0  0.71324475553E+02 -0.52240317908E+02 -0.40412264420E+03  0.41368024268E+03  0.00000000000E+00 0.  1.
         12    1    4    4    0    0  0.42475131869E+02  0.48058365327E+01 -0.64092589053E+02  0.77039553890E+02  0.00000000000E+00 0. -1.
         -5    1    5    5    0  502 -0.31666271102E+02  0.11203463584E+03  0.44052557982E+02  0.12456817498E+03  0.47000000000E+01 0.  1.
         13    1    6    6    0    0 -0.12317018102E+02  0.46053072143E+01  0.34551168099E+02  0.36968919466E+02  0.00000000000E+00 0. -1.
        -14    1    6    6    0    0 -0.30618494409E+02 -0.16067949584E+02 -0.42635968397E+02  0.54895327714E+02  0.00000000000E+00 0.  1.
</event>
<event>
12    1  0.8135779E-002  0.2062264E+03  0.7818608E-02  0.1144626E+00
         21   -1    0    0  503  502  0.00000000000E+00  0.00000000000E+00  0.27978955241E+03  0.27978955241E+03  0.00000000000E+00 0. -1.
         21   -1    0    0  501  503 -0.00000000000E+00 -0.00000000000E+00 -0.15505193432E+03  0.15505193432E+03  0.00000000000E+00 0. -1.
          6    2    1    2  501    0  0.70135223364E+02 -0.90595993760E+02  0.93526344940E+02  0.22644313297E+03  0.17147224740E+03 0.  0.
         24    2    3    3    0    0  0.83706458504E+02 -0.11293098132E+03  0.39743658414E+02  0.16646232385E+03  0.79812086433E+02 0.  0.
         -6    2    1    2    0  502 -0.70135223364E+02  0.90595993760E+02  0.31211273145E+02  0.20839835376E+03  0.17125754476E+03 0.  0.
        -24    2    5    5    0    0 -0.13023958481E+02  0.10066047344E+03  0.61731718803E+02  0.14269768458E+03  0.79054852281E+02 0.  0.
          5    1    3    3  501    0 -0.13571235140E+02  0.22334987558E+02  0.53782686526E+02  0.59980809117E+02  0.47000000000E+01 0. -1.
        -13    1    4    4    0    0 -0.60128499378E+01  0.48484993916E+01  0.14271748670E+02  0.16227911782E+02  0.00000000000E+00 0.  1.
         14    1    4    4    0    0  0.89719308442E+02 -0.11777948071E+03  0.25471909744E+02  0.15023441207E+03  0.00000000000E+00 0. -1.
         -5    1    5    5    0  502 -0.57111264883E+02 -0.10064479682E+02 -0.30520445658E+02  0.65700669182E+02  0.47000000000E+01 0.  1.
         13    1    6    6    0    0 -0.19924895410E+02  0.88960485878E+02  0.12973878597E+02  0.92083065927E+02  0.00000000000E+00 0. -1.
        -14    1    6    6    0    0  0.69009369296E+01  0.11699987565E+02  0.48757840206E+02  0.50614618650E+02  0.00000000000E+00 0.  1.
</event>
<event>
12    1  0.8135779E-002  0.2197940E+03  0.7818608E-02  0.1134220E+00
         21   -1    0    0  501  502  0.00000000000E+00  0.00000000000E+00  0.19162358862E+03  0.19162358862E+03  0.00000000000E+00 0. -1.
         21   -1    0    0  502  503 -0.00000000000E+00 -0.00000000000E+00 -0.27060138643E+03  0.27060138643E+03  0.00000000000E+00 0. -1.
         -6    2    1    2    0  503  0.13034280187E+03  0.37570921396E+02 -0.10163684904E+03  0.24126603134E+03  0.17169283229E+03 0.  0.
        -24    2    3    3    0    0  0.76382244023E+02  0.87908701231E+02 -0.80093042196E+02  0.16424746542E+03  0.83666884335E+02 0.  0.
          6    2    1    2  501    0 -0.13034280187E+03 -0.37570921396E+02  0.22659051231E+02  0.22095894371E+03  0.17294103639E+03 0.  0.
         24    2    5    5    0    0 -0.16887127728E+02 -0.36416540906E+02 -0.30292674458E+02  0.95661306687E+02  0.81376286084E+02 0.  0.
          5    1    5    5  501    0 -0.11345567415E+03 -0.11543804899E+01  0.52951725690E+02  0.12529763702E+03  0.47000000000E+01 0. -1.
        -11    1    6    6    0    0 -0.28126472517E+02  0.43414083411E+01 -0.42954285643E+02  0.51526856470E+02  0.00000000000E+00 0.  1.
         12    1    6    6    0    0  0.11239344789E+02 -0.40757949247E+02  0.12661611184E+02  0.44134450217E+02  0.00000000000E+00 0. -1.
         -5    1    3    3    0  503  0.53960557851E+02 -0.50337779835E+02 -0.21543806848E+02  0.77018565916E+02  0.47000000000E+01 0.  1.
         13    1    4    4    0    0  0.39285819931E+02  0.72879735731E+01 -0.61869098111E+02  0.73649680973E+02  0.00000000000E+00 0. -1.
        -14    1    4    4    0    0  0.37096424092E+02  0.80620727658E+02 -0.18223944086E+02  0.90597784446E+02  0.00000000000E+00 0.  1.
</event>
<event>
12    1  0.8135779E-002  0.2509362E+03  0.7818608E-02  0.1113225E+00
         21   -1    0    0  501  502  0.00000000000E+00  0.00000000000E+00  0.18837263349E+04  0.18837263349E+04  0.00000000000E+00 0. -1.
         21   -1    0    0  502  503 -0.00000000000E+00 -0.00000000000E+00 -0.37621695010E+02  0.37621695010E+02  0.00000000000E+00 0. -1.
         -6    2    1    2    0  503  0.95356913076E+02 -0.15110402072E+03  0.59157471398E+03  0.64259599115E+03  0.17619193984E+03 0.  0.
        -24    2    3    3    0    0  0.73510328754E+02 -0.68559486931E+02  0.16951849763E+03  0.21196341798E+03  0.78024341351E+02 0.  0.
          6    2    1    2  501    0 -0.95356913076E+02  0.15110402072E+03  0.12545299259E+04  0.12787520387E+04  0.17156944860E+03 0.  0.
         24    2    5    5    0    0 -0.45848702274E+02  0.77324551452E+02  0.10283455413E+04  0.10356966154E+04  0.84212451086E+02 0.  0.
          5    1    5    5  501    0 -0.49508210802E+02  0.73779469270E+02  0.22618438454E+03  0.24305542338E+03  0.47000000000E+01 0. -1.
        -11    1    6    6    0    0  0.47055023748E+01 -0.25506711155E+01  0.42139341876E+03  0.42142740899E+03  0.00000000000E+00 0.  1.
         12    1    6    6    0    0 -0.50554204649E+02  0.79875222567E+02  0.60695212258E+03  0.61426920637E+03  0.00000000000E+00 0. -1.
         -5    1    3    3    0  503  0.21846584322E+02 -0.82544533791E+02  0.42205621636E+03  0.43063257317E+03  0.47000000000E+01 0.  1.
         13    1    4    4    0    0  0.51738446238E+02 -0.85137423319E+02  0.13833752030E+03  0.17047732163E+03  0.00000000000E+00 0. -1.
        -14    1    4    4    0    0  0.21771882516E+02  0.16577936389E+02  0.31180977328E+02  0.41486096349E+02  0.00000000000E+00 0.  1.
</event>
<event>
12    1  0.8135779E-002  0.1908778E+03  0.7818608E-02  0.1157736E+00
         21   -1    0    0  501  502  0.00000000000E+00  0.00000000000E+00  0.51218937598E+03  0.51218937598E+03  0.00000000000E+00 0.  1.
         21   -1    0    0  502  503 -0.00000000000E+00 -0.00000000000E+00 -0.10214266522E+03  0.10214266522E+03  0.00000000000E+00 0.  1.
         -6    2    1    2    0  503  0.79876383618E+02  0.18966922967E+02  0.35384826542E+02  0.19384916351E+03  0.17200416105E+03 0.  0.
        -24    2    3    3    0    0 -0.12645482269E+02  0.41112846967E+02  0.38136979965E+02  0.98558020347E+02  0.80056728176E+02 0.  0.
          6    2    1    2  501    0 -0.79876383618E+02 -0.18966922967E+02  0.37466188421E+03  0.42048287769E+03  0.17232046344E+03 0.  0.
         24    2    5    5    0    0 -0.88654728166E+02  0.42861900154E+02  0.27298655412E+03  0.30106836664E+03  0.80147984036E+02 0.  0.
          5    1    5    5  501    0  0.87783445478E+01 -0.61828823121E+02  0.10167533009E+03  0.11941451106E+03  0.47000000000E+01 0. -1.
        -13    1    6    6    0    0 -0.84282622848E+02  0.28307231777E+02  0.27163017428E+03  0.28581079662E+03  0.00000000000E+00 0.  1.
         14    1    6    6    0    0 -0.43721053177E+01  0.14554668377E+02  0.13563798426E+01  0.15257570014E+02  0.00000000000E+00 0. -1.
         -5    1    3    3    0  503  0.92521865888E+02 -0.22145924001E+02 -0.27521534227E+01  0.95291143165E+02  0.47000000000E+01 0.  1.
         11    1    4    4    0    0  0.93838920077E+01  0.23423044026E+02  0.58514505867E+02  0.63723181162E+02  0.00000000000E+00 0. -1.
        -12    1    4    4    0    0 -0.22029374277E+02  0.17689802942E+02 -0.20377525902E+02  0.34834839185E+02  0.00000000000E+00 0.  1.
</event>
<event>
12    1  0.8135779E-002  0.2042510E+03  0.7818608E-02  0.1147963E+00
         21   -1    0    0  503  502  0.00000000000E+00  0.00000000000E+00  0.48471749137E+03  0.48471749137E+03  0.00000000000E+00 0. -1.
         21   -1    0    0  501  503 -0.00000000000E+00 -0.00000000000E+00 -0.11194771565E+03  0.11194771565E+03  0.00000000000E+00 0. -1.
          6    2    1    2  501    0  0.10291017403E+03 -0.35101732725E+02  0.30688321142E+02  0.19824560537E+03  0.16290153908E+03 0.  0.
         24    2    3    3    0    0  0.22116858146E+02 -0.46975457517E+02  0.58634712479E+02  0.11180697963E+03  0.79792995697E+02 0.  0.
         -6    2    1    2    0  502 -0.10291017403E+03  0.35101732725E+02  0.34208145458E+03  0.39841960165E+03  0.17290408282E+03 0.  0.
        -24    2    5    5    0    0 -0.11866986884E+03 -0.20041668355E+02  0.24262045506E+03  0.28351206018E+03  0.83846268903E+02 0.  0.
          5    1    3    3  501    0  0.80793315882E+02  0.11873724792E+02 -0.27946391338E+02  0.86438625744E+02  0.47000000000E+01 0. -1.
        -11    1    4    4    0    0 -0.12212066269E+02 -0.15189502491E+02  0.61912228063E+02  0.64907469001E+02  0.00000000000E+00 0.  1.
         12    1    4    4    0    0  0.34328924415E+02 -0.31785955026E+02 -0.32775155833E+01  0.46899510624E+02  0.00000000000E+00 0. -1.
         -5    1    5    5    0  502  0.15759694816E+02  0.55143401080E+02  0.99460999517E+02  0.11490754148E+03  0.47000000000E+01 0.  1.
         11    1    6    6    0    0 -0.11245797640E+03 -0.16861797281E+02  0.24920105730E+03  0.27392021397E+03  0.00000000000E+00 0. -1.
        -12    1    6    6    0    0 -0.62118924433E+01 -0.31798710734E+01 -0.65806022379E+01  0.95918462031E+01  0.00000000000E+00 0.  1.
</event>
<event>
12    1  0.8135779E-002  0.1953622E+03  0.7818608E-02  0.1156840E+00
         21   -1    0    0  503  502  0.00000000000E+00  0.00000000000E+00  0.32743209792E+03  0.32743209792E+03  0.00000000000E+00 0. -1.
         21   -1    0    0  501  503 -0.00000000000E+00 -0.00000000000E+00 -0.13544691147E+03  0.13544691147E+03  0.00000000000E+00 0. -1.
          6    2    1    2  501    0 -0.51495874654E+02  0.26808049750E+02 -0.44430227918E+01  0.19541272349E+03  0.18653657929E+03 0.  0.
         24    2    3    3    0    0  0.31814710981E+02 -0.20484890293E+02  0.28057194104E+02  0.94142639288E+02  0.81509654802E+02 0.  0.
         -6    2    1    2    0  502  0.51495874654E+02 -0.26808049750E+02  0.19642820924E+03  0.26746628590E+03  0.17199905834E+03 0.  0.
        -24    2    5    5    0    0  0.66554715143E+02 -0.64016333149E+02  0.90805601439E+02  0.15437583401E+03  0.84015592934E+02 0.  0.
          5    1    3    3  501    0 -0.83310585635E+02  0.47292940043E+02 -0.32500216896E+02  0.10127008421E+03  0.47000000000E+01 0. -1.
        -11    1    4    4    0    0  0.40943816993E+02  0.15439606399E+02  0.35486814853E+02  0.56339077239E+02  0.00000000000E+00 0.  1.
         12    1    4    4    0    0 -0.91291060111E+01 -0.35924496692E+02 -0.74296207490E+01  0.37803562049E+02  0.00000000000E+00 0. -1.
         -5    1    5    5    0  502 -0.15058840490E+02  0.37208283399E+02  0.10562260780E+03  0.11309045189E+03  0.47000000000E+01 0.  1.
         13    1    6    6    0    0  0.82554851589E+02 -0.33145220951E+02  0.74201267862E+02  0.11584359000E+03  0.00000000000E+00 0. -1.
        -14    1    6    6    0    0 -0.16000136446E+02 -0.30871112198E+02  0.16604333577E+02  0.38532244007E+02  0.00000000000E+00 0.  1.
</event>
<event>
12    1  0.8135779E-002  0.2397664E+03  0.7818608E-02  0.1120504E+00
         21   -1    0    0  501  502  0.00000000000E+00  0.00000000000E+00  0.10175452243E+04  0.10175452243E+04  0.00000000000E+00 0.  1.
         21   -1    0    0  502  503 -0.00000000000E+00 -0.00000000000E+00 -0.57771104625E+02  0.57771104625E+02  0.00000000000E+00 0.  1.
         -6    2    1    2    0  503  0.34563045648E+02 -0.16306568019E+03  0.37536273335E+03  0.44363241161E+03  0.16771259602E+03 0.  0.
        -24    2    3    3    0    0 -0.43952866463E+02 -0.77336607229E+02  0.21282823718E+03  0.24374800789E+03  0.78768188517E+02 0.  0.
          6    2    1    2  501    0 -0.34563045648E+02  0.16306568019E+03  0.58441138637E+03  0.63168391735E+03  0.17234524289E+03 0.  0.
         24    2    5    5    0    0 -0.44219359967E+02  0.18947524231E+03  0.49869559967E+03  0.54135122413E+03  0.80669867274E+02 0.  0.
          5    1    5    5  501    0  0.96563143190E+01 -0.26409562114E+02  0.85715786695E+02  0.90332693229E+02  0.47000000000E+01 0. -1.
        -13    1    6    6    0    0 -0.42327887562E+02  0.34982538070E+02  0.10659614412E+03  0.11990899039E+03  0.00000000000E+00 0.  1.
         14    1    6    6    0    0 -0.18914724047E+01  0.15449270424E+03  0.39209945556E+03  0.42144223374E+03  0.00000000000E+00 0. -1.
         -5    1    3    3    0  503  0.78515912111E+02 -0.85729072964E+02  0.16253449617E+03  0.19988440372E+03  0.47000000000E+01 0.  1.
         13    1    4    4    0    0 -0.17364858306E+02 -0.17287364882E+02  0.39877856512E+01  0.24825263804E+02  0.00000000000E+00 0. -1.
        -14    1    4    4    0    0 -0.26588008157E+02 -0.60049242347E+02  0.20884045153E+03  0.21892274409E+03  0.00000000000E+00 0.  1.
</event>
<event>
12    1  0.8135779E-002  0.1860979E+03  0.7818608E-02  0.1163552E+00
         21   -1    0    0  501  502  0.00000000000E+00  0.00000000000E+00  0.18563923252E+02  0.18563923252E+02  0.00000000000E+00 0. -1.
         21   -1    0    0  502  503 -0.00000000000E+00 -0.00000000000E+00 -0.18511789145E+04  0.18511789145E+04  0.00000000000E+00 0. -1.
         -6    2    1    2    0  503  0.17679329067E+02  0.69049207177E+02 -0.10537587059E+04  0.10689622491E+04  0.16490157088E+03 0.  0.
        -24    2    3    3    0    0  0.16951212217E+02 -0.25491860989E+02 -0.50819362800E+03  0.51524581631E+03  0.79248401367E+02 0.  0.
          6    2    1    2  501    0 -0.17679329067E+02 -0.69049207177E+02 -0.77885628540E+03  0.80078058869E+03  0.17190720238E+03 0.  0.
         24    2    5    5    0    0  0.38851464354E+01 -0.84781286888E+02 -0.30496767118E+03  0.32611751490E+03  0.78386172816E+02 0.  0.
          5    1    5    5  501    0 -0.21564475503E+02  0.15732079711E+02 -0.47388861422E+03  0.47466307379E+03  0.47000000000E+01 0. -1.
        -13    1    6    6    0    0 -0.27859248522E+02 -0.41928069459E+02 -0.77001010530E+02  0.91995958387E+02  0.00000000000E+00 0.  1.
         14    1    6    6    0    0  0.31744394958E+02 -0.42853217429E+02 -0.22796666065E+03  0.23412155651E+03  0.00000000000E+00 0. -1.
         -5    1    3    3    0  503  0.72811684988E+00  0.94541068165E+02 -0.54556507789E+03  0.55371643279E+03  0.47000000000E+01 0.  1.
         13    1    4    4    0    0  0.12207112418E+02  0.16421377822E+02 -0.37954655727E+02  0.43118802564E+02  0.00000000000E+00 0. -1.
        -14    1    4    4    0    0  0.47440997993E+01 -0.41913238811E+02 -0.47023897227E+03  0.47212701375E+03  0.00000000000E+00 0.  1.
</event>
<event>
12    1  0.8135779E-002  0.2277272E+03  0.7818608E-02  0.1128676E+00
         21   -1    0    0  501  502  0.00000000000E+00  0.00000000000E+00  0.91272274822E+02  0.91272274822E+02  0.00000000000E+00 0. -1.
         21   -1    0    0  502  503 -0.00000000000E+00 -0.00000000000E+00 -0.57558759558E+03  0.57558759558E+03  0.00000000000E+00 0. -1.
         -6    2    1    2    0  503  0.13122069020E+03  0.71041316155E+02 -0.19020217304E+03  0.29488911362E+03  0.16886972660E+03 0.  0.
        -24    2    3    3    0    0  0.28506821603E+02  0.64069931625E+02 -0.15112155248E+03  0.18467058564E+03  0.79673750768E+02 0.  0.
          6    2    1    2  501    0 -0.13122069020E+03 -0.71041316155E+02 -0.29411314772E+03  0.37197075679E+03  0.17202895716E+03 0.  0.
         24    2    5    5    0    0 -0.13856603042E+03 -0.61778779967E+02 -0.15176253960E+03  0.22905282847E+03  0.80100982309E+02 0.  0.
          5    1    5    5  501    0  0.73453402147E+01 -0.92625361884E+01 -0.14235060813E+03  0.14291792831E+03  0.47000000000E+01 0. -1.
        -11    1    6    6    0    0  0.42374341070E+01 -0.45731697952E+01  0.60351849463E+01  0.86771646937E+01  0.00000000000E+00 0.  1.
         12    1    6    6    0    0 -0.14280346453E+03 -0.57205610171E+02 -0.15779772454E+03  0.22037566378E+03  0.00000000000E+00 0. -1.
         -5    1    3    3    0  503  0.10271386860E+03  0.69713845305E+01 -0.39080620560E+02  0.11021852797E+03  0.47000000000E+01 0.  1.
         11    1    4    4    0    0  0.37984669518E+02  0.56604266147E+01 -0.97596535736E+02  0.10488069096E+03  0.00000000000E+00 0. -1.
        -12    1    4    4    0    0 -0.94778479151E+01  0.58409505010E+02 -0.53525016743E+02  0.79789894685E+02  0.00000000000E+00 0.  1.
</event>
<event>
12    1  0.8135779E-002  0.1917504E+03  0.7818608E-02  0.1157030E+00
         21   -1    0    0  501  502  0.00000000000E+00  0.00000000000E+00  0.21996901487E+03  0.21996901487E+03  0.00000000000E+00 0.  1.
         21   -1    0    0  502  503 -0.00000000000E+00 -0.00000000000E+00 -0.21725458626E+03  0.21725458626E+03  0.00000000000E+00 0.  1.
         -6    2    1    2    0  503 -0.82013334912E+02  0.16225281091E+02 -0.10418978151E+03  0.21768609408E+03  0.17187867272E+03 0.  0.
        -24    2    3    3    0    0 -0.74070270725E+02 -0.14978506999E+02 -0.87531127343E+00  0.10936832814E+03  0.79056336573E+02 0.  0.
          6    2    1    2  501    0  0.82013334912E+02 -0.16225281091E+02  0.10690421012E+03  0.21953750704E+03  0.17256523406E+03 0.  0.
         24    2    5    5    0    0  0.47902867277E+02  0.49775061273E+02  0.24044154471E+02  0.10814878222E+03  0.79660506613E+02 0.  0.
          5    1    5    5  501    0  0.34110467636E+02 -0.66000342364E+02  0.82860055650E+02  0.11138872482E+03  0.47000000000E+01 0. -1.
        -13    1    6    6    0    0  0.26353570767E+02 -0.19197687227E+02  0.22919907266E+01  0.32685090004E+02  0.00000000000E+00 0.  1.
         14    1    6    6    0    0  0.21549296510E+02  0.68972748500E+02  0.21752163744E+02  0.75463692219E+02  0.00000000000E+00 0. -1.
         -5    1    3    3    0  503 -0.79430641871E+01  0.31203788091E+02 -0.10331447023E+03  0.10831776595E+03  0.47000000000E+01 0.  1.
         13    1    4    4    0    0  0.13148594768E+02 -0.17024640081E+02  0.44370933103E+01  0.21963872867E+02  0.00000000000E+00 0. -1.
        -14    1    4    4    0    0 -0.87218865494E+02  0.20461330816E+01 -0.53124045837E+01  0.87404455270E+02  0.00000000000E+00 0.  1.
</event>
<event>
12    1  0.8135779E-002  0.1794275E+03  0.7818608E-02  0.1169931E+00
         21   -1    0    0  503  502  0.00000000000E+00  0.00000000000E+00  0.35229871126E+03  0.35229871126E+03  0.00000000000E+00 0.  1.
         21   -1    0    0  501  503 -0.00000000000E+00 -0.00000000000E+00 -0.90796195975E+02  0.90796195975E+02  0.00000000000E+00 0.  1.
          6    2    1    2  501    0 -0.97953501461E+01  0.13778008785E+02  0.90845458562E+02  0.19547004007E+03  0.17224940293E+03 0.  0.
         24    2    3    3    0    0 -0.84048441847E+01  0.19732196137E+02  0.13102695445E+03  0.15455514711E+03  0.79115293932E+02 0.  0.
         -6    2    1    2    0  502  0.97953501461E+01 -0.13778008785E+02  0.17065705672E+03  0.24762486717E+03  0.17862939685E+03 0.  0.
        -24    2    5    5    0    0 -0.55615735611E+02  0.29330217221E+02  0.11117099890E+03  0.14914842143E+03  0.77025248652E+02 0.  0.
          5    1    3    3  501    0 -0.13905059615E+01 -0.59541873527E+01 -0.40181495890E+02  0.40914892959E+02  0.47000000000E+01 0. -1.
        -11    1    4    4    0    0  0.34445856029E+02  0.12146040664E+02  0.43449687279E+02  0.56761946989E+02  0.00000000000E+00 0.  1.
         12    1    4    4    0    0 -0.42850700214E+02  0.75861554739E+01  0.87577267174E+02  0.97793200118E+02  0.00000000000E+00 0. -1.
         -5    1    5    5    0  502  0.65411085757E+02 -0.43108226006E+02  0.59486057820E+02  0.98476445733E+02  0.47000000000E+01 0.  1.
         11    1    6    6    0    0 -0.42166264737E+01 -0.47042030760E+01  0.79670544547E+02  0.79920617702E+02  0.00000000000E+00 0. -1.
        -12    1    6    6    0    0 -0.51399109137E+02  0.34034420297E+02  0.31500454351E+02  0.69227803731E+02  0.00000000000E+00 0.  1.
</event>
<event>
12    1  0.8135779E-002  0.1866758E+03  0.7818608E-02  0.1161835E+00
         21   -1    0    0  503  502  0.00000000000E+00  0.00000000000E+00  0.32479659878E+03  0.32479659878E+03  0.00000000000E+00 0.  1.
         21   -1    0    0  501  503 -0.00000000000E+00 -0.00000000000E+00 -0.26453389116E+03  0.26453389116E+03  0.00000000000E+00 0.  1.
          6    2    1    2  501    0 -0.62877913829E+02  0.35557819334E+02 -0.19770611414E+03  0.27090346311E+03  0.17053735132E+03 0.  0.
         24    2    3    3    0    0 -0.43569518126E+02 -0.75607997449E+01 -0.20325952270E+03  0.22310220996E+03  0.80651682667E+02 0.  0.
         -6    2    1    2    0  502  0.62877913829E+02 -0.35557819334E+02  0.25796882176E+03  0.31842702684E+03  0.17213328515E+03 0.  0.
        -24    2    5    5    0    0 -0.23908225018E+02 -0.17574977858E+02  0.70550413463E+02  0.11105546116E+03  0.80470314671E+02 0.  0.
          5    1    3    3  501    0 -0.19308395703E+02  0.43118619079E+02  0.55534085661E+01  0.47801253149E+02  0.47000000000E+01 0. -1.
        -13    1    4    4    0    0 -0.64497074240E+02 -0.20125053154E+02 -0.14821416239E+03  0.16288747123E+03  0.00000000000E+00 0.  1.
         14    1    4    4    0    0  0.20927556113E+02  0.12564253409E+02 -0.55045360311E+02  0.60214738730E+02  0.00000000000E+00 0. -1.
         -5    1    5    5    0  502  0.86786138848E+02 -0.17982841476E+02  0.18741840830E+03  0.20737156568E+03  0.47000000000E+01 0.  1.
         13    1    6    6    0    0  0.61849255249E+01  0.22426263785E+01  0.74515656177E+02  0.74805519130E+02  0.00000000000E+00 0. -1.
        -14    1    6    6    0    0 -0.30093150543E+02 -0.19817604236E+02 -0.39652427144E+01  0.36249942028E+02  0.00000000000E+00 0.  1.
</event>
<event>
12    1  0.8135779E-002  0.1736123E+03  0.7818608E-02  0.1174417E+00
         21   -1    0    0  501  502  0.00000000000E+00  0.00000000000E+00  0.46545420312E+02  0.46545420312E+02  0.00000000000E+00 0.  1.
         21   -1    0    0  502  503 -0.00000000000E+00 -0.00000000000E+00 -0.85411631896E+03  0.85411631896E+03  0.00000000000E+00 0.  1.
         -6    2    1    2    0  503  0.21828977864E+02 -0.52037323111E+00 -0.62844640622E+03  0.65198629075E+03  0.17223374458E+03 0.  0.
        -24    2    3    3    0    0  0.72244712470E+01 -0.11901591000E+02 -0.13014033518E+03  0.15331419993E+03  0.79842947121E+02 0.  0.
          6    2    1    2  501    0 -0.21828977864E+02  0.52037323111E+00 -0.17912449243E+03  0.24867544852E+03  0.17110558099E+03 0.  0.
         24    2    5    5    0    0 -0.16243126903E+02  0.25843397291E+02 -0.23985297033E+02  0.91313708489E+02  0.82650943910E+02 0.  0.
          5    1    5    5  501    0 -0.55858509616E+01 -0.25323024059E+02 -0.15513919540E+03  0.15736174003E+03  0.47000000000E+01 0. -1.
        -13    1    6    6    0    0 -0.34214287386E+02 -0.17774282259E+02 -0.21333793306E+02  0.44064422247E+02  0.00000000000E+00 0.  1.
         14    1    6    6    0    0  0.17971160483E+02  0.43617679549E+02 -0.26515037275E+01  0.47249286242E+02  0.00000000000E+00 0. -1.
         -5    1    3    3    0  503  0.14604506617E+02  0.11381217769E+02 -0.49830607104E+03  0.49867209082E+03  0.47000000000E+01 0.  1.
         11    1    4    4    0    0  0.16543737955E+02  0.16588187509E+02 -0.41317534127E+01  0.23789380333E+02  0.00000000000E+00 0. -1.
        -12    1    4    4    0    0 -0.93192667081E+01 -0.28489778509E+02 -0.12600858177E+03  0.12952481959E+03  0.00000000000E+00 0.  1.
</event>
<event>
12    1  0.8135779E-002  0.1738099E+03  0.7818608E-02  0.1174216E+00
         21   -1    0    0  503  502  0.00000000000E+00  0.00000000000E+00  0.59649521718E+02  0.59649521718E+02  0.00000000000E+00 0. -1.
         21   -1    0    0  501  503 -0.00000000000E+00 -0.00000000000E+00 -0.51713128547E+03  0.51713128547E+03  0.00000000000E+00 0. -1.
          6    2    1    2  501    0  0.89828751157E+01 -0.18294001707E+02 -0.27679023092E+03  0.32683742471E+03  0.17261085632E+03 0.  0.
         24    2    3    3    0    0 -0.29389847539E+01  0.28355147156E+02 -0.24871690742E+03  0.27090464966E+03  0.10352090210E+03 0.  0.
         -6    2    1    2    0  502 -0.89828751157E+01  0.18294001707E+02 -0.18069153284E+03  0.24994338248E+03  0.17148440705E+03 0.  0.
        -24    2    5    5    0    0 -0.31264283128E+02 -0.34265048221E+02 -0.16721994122E+03  0.19110046741E+03  0.80033311667E+02 0.  0.
          5    1    3    3  501    0  0.11921859870E+02 -0.46649148862E+02 -0.28073323499E+02  0.55932775049E+02  0.47000000000E+01 0. -1.
        -11    1    4    4    0    0  0.26281968472E+02 -0.31322328809E+02 -0.91231903387E+02  0.99975448708E+02  0.00000000000E+00 0.  1.
         12    1    4    4    0    0 -0.29220953226E+02  0.59677475964E+02 -0.15748500403E+03  0.17092920096E+03  0.00000000000E+00 0. -1.
         -5    1    5    5    0  502  0.22281408013E+02  0.52559049928E+02 -0.13471591620E+02  0.58842915063E+02  0.47000000000E+01 0.  1.
         11    1    6    6    0    0 -0.38302165706E+01 -0.26147845561E+02 -0.15921311863E+03  0.16139144194E+03  0.00000000000E+00 0. -1.
        -12    1    6    6    0    0 -0.27434066558E+02 -0.81172026601E+01 -0.80068225869E+01  0.29709025478E+02  0.00000000000E+00 0.  1.
</event>
<event>
12    1  0.8135779E-002  0.1780761E+03  0.7818608E-02  0.1169853E+00
         21   -1    0    0  503  502  0.00000000000E+00  0.00000000000E+00  0.61332799697E+03  0.61332799697E+03  0.00000000000E+00 0.  1.
         21   -1    0    0  501  503 -0.00000000000E+00 -0.00000000000E+00 -0.73822482216E+02  0.73822482216E+02  0.00000000000E+00 0.  1.
          6    2    1    2  501    0 -0.15892091038E+02  0.35608681030E+02  0.80436883697E+02  0.19475316897E+03  0.17302649462E+03 0.  0.
         24    2    3    3    0    0 -0.38496776235E+02 -0.40981327927E+02  0.56747964805E+02  0.11132501938E+03  0.77533588927E+02 0.  0.
         -6    2    1    2    0  502  0.15892091038E+02 -0.35608681030E+02  0.45906863105E+03  0.49239731021E+03  0.17375432762E+03 0.  0.
        -24    2    5    5    0    0 -0.32339019356E+02 -0.66194767261E+02  0.20576535276E+03  0.23269288308E+03  0.79868880378E+02 0.  0.
          5    1    3    3  501    0  0.22604685197E+02  0.76590008957E+02  0.23688918893E+02  0.83428149585E+02  0.47000000000E+01 0. -1.
        -11    1    4    4    0    0 -0.49672331247E+02 -0.94609536563E+01  0.59124034948E+02  0.77797825446E+02  0.00000000000E+00 0.  1.
         12    1    4    4    0    0  0.11175555012E+02 -0.31520374270E+02 -0.23760701431E+01  0.33527193937E+02  0.00000000000E+00 0. -1.
         -5    1    5    5    0  502  0.48231110394E+02  0.30586086231E+02  0.25330327829E+03  0.25970442713E+03  0.47000000000E+01 0.  1.
         11    1    6    6    0    0 -0.10038287701E+02  0.12410871176E+02  0.87518565858E+02  0.88962330866E+02  0.00000000000E+00 0. -1.
        -12    1    6    6    0    0 -0.22300731655E+02 -0.78605638437E+02  0.11824678691E+03  0.14373055222E+03  0.00000000000E+00 0.  1.
</event>
<event>
12    1  0.8135779E-002  0.1888534E+03  0.7818608E-02  0.1159730E+00
         21   -1    0    0  501  502  0.00000000000E+00  0.00000000000E+00  0.11229119499E+04  0.11229119499E+04  0.00000000000E+00 0.  1.
         21   -1    0    0  502  503 -0.00000000000E+00 -0.00000000000E+00 -0.13770792293E+03  0.13770792293E+03  0.00000000000E+00 0.  1.
         -6    2    1    2    0  503  0.16151767106E+02 -0.73825317962E+02 -0.61007484662E+02  0.19749986492E+03  0.17196867827E+03 0.  0.
        -24    2    3    3    0    0 -0.46234837911E+02 -0.54218399215E+02 -0.76437687374E+02  0.13014482870E+03  0.77573586593E+02 0.  0.
          6    2    1    2  501    0 -0.16151767106E+02  0.73825317962E+02  0.10462115116E+04  0.10631200079E+04  0.17307387730E+03 0.  0.
         24    2    5    5    0    0 -0.60316392365E+02  0.97553401880E+01  0.38994957023E+03  0.40224384561E+03  0.77499742936E+02 0.  0.
          5    1    5    5  501    0  0.44164625259E+02  0.64069977774E+02  0.65626194135E+03  0.66087616226E+03  0.47000000000E+01 0. -1.
        -11    1    6    6    0    0  0.49420857935E+01  0.29006430917E+02  0.90556470277E+02  0.95216970943E+02  0.00000000000E+00 0.  1.
         12    1    6    6    0    0 -0.65258478158E+02 -0.19251090729E+02  0.29939309996E+03  0.30702687467E+03  0.00000000000E+00 0. -1.
         -5    1    3    3    0  503  0.62386605017E+02 -0.19606918747E+02  0.15430202712E+02  0.67355036219E+02  0.47000000000E+01 0.  1.
         13    1    4    4    0    0 -0.46089503544E+02 -0.10502484693E+02 -0.65668069316E+01  0.47724914614E+02  0.00000000000E+00 0. -1.
        -14    1    4    4    0    0 -0.14533436750E+00 -0.43715914522E+02 -0.69870880443E+02  0.82419914089E+02  0.00000000000E+00 0.  1.
</event>
<event>
12    1  0.8135779E-002  0.1960307E+03  0.7818608E-02  0.1154619E+00
         21   -1    0    0  503  502  0.00000000000E+00  0.00000000000E+00  0.10366155116E+04  0.10366155116E+04  0.00000000000E+00 0.  1.
         21   -1    0    0  501  503 -0.00000000000E+00 -0.00000000000E+00 -0.36568772668E+02  0.36568772668E+02  0.00000000000E+00 0.  1.
          6    2    1    2  501    0 -0.78923595943E+02  0.63974071390E+01  0.43113762324E+03  0.47361130712E+03  0.17932696185E+03 0.  0.
         24    2    3    3    0    0 -0.99554800950E+02  0.54033157464E+02  0.26201776556E+03  0.29664117521E+03  0.80696572800E+02 0.  0.
         -6    2    1    2    0  502  0.78923595943E+02 -0.63974071390E+01  0.56890911567E+03  0.59957297713E+03  0.17193112629E+03 0.  0.
        -24    2    5    5    0    0  0.38209048721E+02  0.36159335560E+02  0.50181891906E+03  0.51017535308E+03  0.75427013752E+02 0.  0.
          5    1    3    3  501    0  0.20631205006E+02 -0.47635750325E+02  0.16911985767E+03  0.17697013191E+03  0.47000000000E+01 0. -1.
        -13    1    4    4    0    0 -0.56347154826E+02 -0.80101611388E+01  0.69630592922E+02  0.89930995820E+02  0.00000000000E+00 0.  1.
         14    1    4    4    0    0 -0.43207646124E+02  0.62043318603E+02  0.19238717264E+03  0.20671017939E+03  0.00000000000E+00 0. -1.
         -5    1    5    5    0  502  0.40714547222E+02 -0.42556742699E+02  0.67090196611E+02  0.89397624051E+02  0.47000000000E+01 0.  1.
         13    1    6    6    0    0  0.87875961210E+01  0.38910138491E+01  0.39020338198E+03  0.39032171493E+03  0.00000000000E+00 0. -1.
        -14    1    6    6    0    0  0.29421452600E+02  0.32268321711E+02  0.11161553708E+03  0.11985363814E+03  0.00000000000E+00 0.  1.
</event>
<event>
12    1  0.8135779E-002  0.1828340E+03  0.7818608E-02  0.1165091E+00
         21   -1    0    0  501  502  0.00000000000E+00  0.00000000000E+00  0.66757913906E+03  0.66757913906E+03  0.00000000000E+00 0. -1.
         21   -1    0    0  502  503 -0.00000000000E+00 -0.00000000000E+00 -0.50268085952E+02  0.50268085952E+02  0.00000000000E+00 0.  1.
         -6    2    1    2    0  503 -0.11859247980E+02  0.60707856649E+02  0.33119017586E+03  0.37830568334E+03  0.17205281700E+03 0.  0.
        -24    2    3    3    0    0 -0.26915779743E+02 -0.26884003770E+02  0.11597388941E+03  0.14541263253E+03  0.79042278667E+02 0.  0.
          6    2    1    2  501    0  0.11859247980E+02 -0.60707856649E+02  0.28612087724E+03  0.33954154167E+03  0.17203841578E+03 0.  0.
         24    2    5    5    0    0 -0.49397958236E+02  0.66986954576E+01  0.15703583895E+03  0.18148735573E+03  0.76107652560E+02 0.  0.
          5    1    5    5  501    0  0.61257206215E+02 -0.67406552107E+02  0.12908503830E+03  0.15805418594E+03  0.47000000000E+01 0. -1.
        -13    1    6    6    0    0 -0.13484313463E+02 -0.11738480144E+02 -0.14539997462E+01  0.17936910016E+02  0.00000000000E+00 0.  1.
         14    1    6    6    0    0 -0.35913644772E+02  0.18437175601E+02  0.15848983869E+03  0.16355044572E+03  0.00000000000E+00 0. -1.
         -5    1    3    3    0  503  0.15056531764E+02  0.87591860419E+02  0.21521628645E+03  0.23289305081E+03  0.47000000000E+01 0.  1.
         13    1    4    4    0    0 -0.44929946141E+01 -0.40881889961E+01  0.11314974900E+03  0.11331269120E+03  0.00000000000E+00 0. -1.
        -14    1    4    4    0    0 -0.22422785129E+02 -0.22795814774E+02  0.28241404138E+01  0.32099941328E+02  0.00000000000E+00 0.  1.
</event>
<event>
12    1  0.8135779E-002  0.2257820E+03  0.7818608E-02  0.1131161E+00
         21   -1    0    0  503  502  0.00000000000E+00  0.00000000000E+00  0.74746877090E+03  0.74746877090E+03  0.00000000000E+00 0.  1.
         21   -1    0    0  501  503 -0.00000000000E+00 -0.00000000000E+00 -0.88157912945E+02  0.88157912945E+02  0.00000000000E+00 0. -1.
          6    2    1    2  501    0 -0.38276332204E+02  0.12696743910E+03  0.53578744962E+03  0.57826399894E+03  0.17243912866E+03 0.  0.
         24    2    3    3    0    0  0.15833314660E+02  0.38799870582E+02  0.38520373781E+03  0.39551028958E+03  0.79311699807E+02 0.  0.
         -6    2    1    2    0  502  0.38276332204E+02 -0.12696743910E+03  0.12352340833E+03  0.25736268491E+03  0.18273398966E+03 0.  0.
        -24    2    5    5    0    0  0.54464360855E+02  0.12074184603E+02  0.45251858681E+02  0.96915962044E+02  0.65060129477E+02 0.  0.
          5    1    3    3  501    0 -0.54109646865E+02  0.88167568517E+02  0.15058371181E+03  0.18275370936E+03  0.47000000000E+01 0. -1.
        -11    1    4    4    0    0 -0.30670344851E+02  0.56007568543E+01  0.17087434747E+03  0.17369536883E+03  0.00000000000E+00 0.  1.
         12    1    4    4    0    0  0.46503659511E+02  0.33199113728E+02  0.21432939034E+03  0.22181492074E+03  0.00000000000E+00 0. -1.
         -5    1    5    5    0  502 -0.16188028650E+02 -0.13904162370E+03  0.78271549651E+02  0.16044672286E+03  0.47000000000E+01 0.  1.
         11    1    6    6    0    0  0.11415121030E+02  0.31641723029E+02  0.34972304121E+02  0.48523867116E+02  0.00000000000E+00 0. -1.
        -12    1    6    6    0    0  0.43049239824E+02 -0.19567538426E+02  0.10279554560E+02  0.48392094927E+02  0.00000000000E+00 0.  1.
</event>
<event>
12    1  0.8135779E-002  0.2191833E+03  0.7818608E-02  0.1134615E+00
         21   -1    0    0  501  502  0.00000000000E+00  0.00000000000E+00  0.95224975772E+03  0.95224975772E+03  0.00000000000E+00 0.  1.
         21   -1    0    0  502  503 -0.00000000000E+00 -0.00000000000E+00 -0.53650836144E+02  0.53650836144E+02  0.00000000000E+00 0.  1.
         -6    2    1    2    0  503 -0.90361670017E+00 -0.13526470871E+03  0.32299862147E+03  0.38998095008E+03  0.17163820671E+03 0.  0.
        -24    2    3    3    0    0  0.65974278825E+02 -0.65656560641E+02  0.18316012059E+03  0.21999611688E+03  0.78659215904E+02 0.  0.
          6    2    1    2  501    0  0.90361670017E+00  0.13526470871E+03  0.57560030010E+03  0.61591964378E+03  0.17246432727E+03 0.  0.
         24    2    5    5    0    0  0.52794402066E+02  0.77305484515E+02  0.46490483945E+03  0.48054054539E+03  0.77584271540E+02 0.  0.
          5    1    5    5  501    0 -0.51890785366E+02  0.57959224190E+02  0.11069546065E+03  0.13537909840E+03  0.47000000000E+01 0. -1.
        -13    1    6    6    0    0  0.14213876424E+02  0.33334709668E+02  0.34735208527E+03  0.34923732374E+03  0.00000000000E+00 0.  1.
         14    1    6    6    0    0  0.38580525642E+02  0.43970774847E+02  0.11755275418E+03  0.13130322165E+03  0.00000000000E+00 0. -1.
         -5    1    3    3    0  503 -0.66877895525E+02 -0.69608148065E+02  0.13983850089E+03  0.16998483320E+03  0.47000000000E+01 0.  1.
         11    1    4    4    0    0  0.49941928831E+02  0.45549909841E+00  0.10569257850E+03  0.11689878051E+03  0.00000000000E+00 0. -1.
        -12    1    4    4    0    0  0.16032349993E+02 -0.66112059739E+02  0.77467542089E+02  0.10309733637E+03  0.00000000000E+00 0.  1.
</event>
<event>
12    1  0.8135779E-002  0.1878903E+03  0.7818608E-02  0.1160468E+00
         21   -1    0    0  503  502  0.00000000000E+00  0.00000000000E+00  0.10474606481E+04  0.10474606481E+04  0.00000000000E+00 0.  1.
         21   -1    0    0  501  503 -0.00000000000E+00 -0.00000000000E+00 -0.38512124380E+02  0.38512124380E+02  0.00000000000E+00 0.  1.
          6    2    1    2  501    0 -0.38666251099E+02 -0.66120179296E+02  0.69728447292E+03  0.72205348781E+03  0.17113925907E+03 0.  0.
         24    2    3    3    0    0 -0.76410894569E+02 -0.10225276812E+02  0.53457136046E+03  0.54585318928E+03  0.79031536291E+02 0.  0.
         -6    2    1    2    0  502  0.38666251099E+02  0.66120179296E+02  0.31166405081E+03  0.36391928468E+03  0.17156866880E+03 0.  0.
        -24    2    5    5    0    0  0.35747835840E+02 -0.17439130267E+02  0.22454992145E+03  0.24308205161E+03  0.84167603990E+02 0.  0.
          5    1    3    3  501    0  0.37744643470E+02 -0.55894902484E+02  0.16271311246E+03  0.17620029853E+03  0.47000000000E+01 0. -1.
        -13    1    4    4    0    0 -0.22501780245E+01  0.46219220043E+01  0.28562934211E+03  0.28567559668E+03  0.00000000000E+00 0.  1.
         14    1    4    4    0    0 -0.74160716545E+02 -0.14847198816E+02  0.24894201835E+03  0.26017759260E+03  0.00000000000E+00 0. -1.
         -5    1    5    5    0  502  0.29184152589E+01  0.83559309563E+02  0.87114129361E+02  0.12083723307E+03  0.47000000000E+01 0.  1.
         13    1    6    6    0    0 -0.57290410862E+01  0.19948789023E+02  0.14144116747E+03  0.14295586714E+03  0.00000000000E+00 0. -1.
        -14    1    6    6    0    0  0.41476876926E+02 -0.37387919290E+02  0.83108753979E+02  0.10012618447E+03  0.00000000000E+00 0.  1.
</event>
<event>
12    1  0.8135779E-002  0.1885444E+03  0.7818608E-02  0.1160103E+00
         21   -1    0    0  503  502  0.00000000000E+00  0.00000000000E+00  0.51399312814E+03  0.51399312814E+03  0.00000000000E+00 0. -1.
         21   -1    0    0  501  503 -0.00000000000E+00 -0.00000000000E+00 -0.75239181110E+02  0.75239181110E+02  0.00000000000E+00 0.  1.
          6    2    1    2  501    0 -0.18427410849E+02 -0.70605440287E+02  0.13141232937E+03  0.22866627964E+03  0.17232054279E+03 0.  0.
         24    2    3    3    0    0 -0.17530394780E+02 -0.83026243193E+02  0.21822254186E+02  0.11827082882E+03  0.79442472093E+02 0.  0.
         -6    2    1    2    0  502  0.18427410849E+02  0.70605440287E+02  0.30734161766E+03  0.36056602961E+03  0.17385135632E+03 0.  0.
        -24    2    5    5    0    0 -0.27304732627E+02  0.91893323563E+02  0.14627181813E+03  0.19171647159E+03  0.78548261354E+02 0.  0.
          5    1    3    3  501    0 -0.89701606907E+00  0.12420802906E+02  0.10959007519E+03  0.11039545082E+03  0.47000000000E+01 0. -1.
        -13    1    4    4    0    0 -0.27455520385E+02  0.39630379490E+01 -0.11150571501E+01  0.27762467863E+02  0.00000000000E+00 0.  1.
         14    1    4    4    0    0  0.99251256051E+01 -0.86989281142E+02  0.22937311336E+02  0.90508360957E+02  0.00000000000E+00 0. -1.
         -5    1    5    5    0  502  0.45732143476E+02 -0.21287883276E+02  0.16106979953E+03  0.16884955802E+03  0.47000000000E+01 0.  1.
         11    1    6    6    0    0  0.66308242089E+01  0.74554873558E+02  0.13056557603E+03  0.15049839416E+03  0.00000000000E+00 0. -1.
        -12    1    6    6    0    0 -0.33935556836E+02  0.17338450005E+02  0.15706242100E+02  0.41218077433E+02  0.00000000000E+00 0.  1.
</event>
<event>
12    1  0.8135779E-002  0.1927873E+03  0.7818608E-02  0.1156021E+00
         21   -1    0    0  503  502  0.00000000000E+00  0.00000000000E+00  0.55840208926E+03  0.55840208926E+03  0.00000000000E+00 0. -1.
         21   -1    0    0  501  503 -0.00000000000E+00 -0.00000000000E+00 -0.20569134234E+03  0.20569134234E+03  0.00000000000E+00 0. -1.
          6    2    1    2  501    0  0.15724730767E+01  0.87288143410E+02 -0.13790991734E+03  0.23703600977E+03  0.17188726531E+03 0.  0.
         24    2    3    3    0    0 -0.51015836722E+02  0.13247232129E+02 -0.41152288844E+02  0.10425153951E+03  0.79979796558E+02 0.  0.
         -6    2    1    2    0  502 -0.15724730767E+01 -0.87288143410E+02  0.49062066426E+03  0.52705742183E+03  0.17163681730E+03 0.  0.
        -24    2    5    5    0    0  0.59928986198E+02 -0.82942044046E+02  0.34052673996E+03  0.36472568068E+03  0.81212655801E+02 0.  0.
          5    1    3    3  501    0  0.52588309799E+02  0.74040911281E+02 -0.96757628494E+02  0.13278447026E+03  0.47000000000E+01 0. -1.
        -13    1    4    4    0    0 -0.17499977911E+02  0.26387022996E+02  0.16939788462E+02  0.35909339212E+02  0.00000000000E+00 0.  1.
         14    1    4    4    0    0 -0.33515858811E+02 -0.13139790867E+02 -0.58092077306E+02  0.68342200298E+02  0.00000000000E+00 0. -1.
         -5    1    5    5    0  502 -0.61501459275E+02 -0.43460993633E+01  0.15009392430E+03  0.16233174115E+03  0.47000000000E+01 0.  1.
         11    1    6    6    0    0  0.71160265914E+02 -0.59742690219E+02  0.18440033908E+03  0.20648597418E+03  0.00000000000E+00 0. -1.
        -12    1    6    6    0    0 -0.11231279716E+02 -0.23199353827E+02  0.15612640087E+03  0.15823970650E+03  0.00000000000E+00 0.  1.
</event>
<event>
12    1  0.8135779E-002  0.2300716E+03  0.7818608E-02  0.1126621E+00
         21   -1    0    0  501  502  0.00000000000E+00  0.00000000000E+00  0.60981150413E+02  0.60981150413E+02  0.00000000000E+00 0. -1.
         21   -1    0    0  502  503 -0.00000000000E+00 -0.00000000000E+00 -0.10501614868E+04  0.10501614868E+04  0.00000000000E+00 0. -1.
         -6    2    1    2    0  503 -0.58187144529E+02 -0.14084703663E+03 -0.72623693254E+03  0.76175436292E+03  0.17212203734E+03 0.  0.
        -24    2    3    3    0    0 -0.10917572421E+02 -0.89648858514E+02 -0.21740206372E+03  0.24814879480E+03  0.78473280982E+02 0.  0.
          6    2    1    2  501    0  0.58187144529E+02  0.14084703663E+03 -0.26294340381E+03  0.34938827425E+03  0.17236386240E+03 0.  0.
         24    2    5    5    0    0  0.81813200330E+02  0.16030286118E+03 -0.21202026937E+03  0.28978982424E+03  0.81456372123E+02 0.  0.
          5    1    5    5  501    0 -0.23626055802E+02 -0.19455824555E+02 -0.50923134443E+02  0.59598450008E+02  0.47000000000E+01 0. -1.
        -13    1    6    6    0    0  0.29196224987E+01  0.26842164634E+02 -0.85560701161E+02  0.89719895123E+02  0.00000000000E+00 0.  1.
         14    1    6    6    0    0  0.78893577832E+02  0.13346069655E+03 -0.12645956821E+03  0.20006992912E+03  0.00000000000E+00 0. -1.
         -5    1    3    3    0  503 -0.47269572108E+02 -0.51198178113E+02 -0.50883486881E+03  0.51360556813E+03  0.47000000000E+01 0.  1.
         11    1    4    4    0    0 -0.39955490436E+02 -0.40949844243E+02 -0.71209480491E+02  0.91346160682E+02  0.00000000000E+00 0. -1.
        -12    1    4    4    0    0  0.29037918015E+02 -0.48699014271E+02 -0.14619258323E+03  0.15680263412E+03  0.00000000000E+00 0.  1.
</event>
<event>
12    1  0.8135779E-002  0.2229176E+03  0.7818608E-02  0.1132117E+00
         21   -1    0    0  503  502  0.00000000000E+00  0.00000000000E+00  0.12209112566E+04  0.12209112566E+04  0.00000000000E+00 0.  1.
         21   -1    0    0  501  503 -0.00000000000E+00 -0.00000000000E+00 -0.54516481683E+02  0.54516481683E+02  0.00000000000E+00 0. -1.
          6    2    1    2  501    0 -0.13605267760E+03 -0.26377639517E+02  0.90662079241E+03  0.93311973546E+03  0.17188678987E+03 0.  0.
         24    2    3    3    0    0 -0.68339796803E+02  0.47027972814E+02  0.36209788273E+03  0.37949467523E+03  0.77584623471E+02 0.  0.
         -6    2    1    2    0  502  0.13605267760E+03  0.26377639517E+02  0.25977398246E+03  0.34230800277E+03  0.17460279451E+03 0.  0.
        -24    2    5    5    0    0  0.19956600109E+02  0.22189862136E+02  0.18544429899E+03  0.20431224729E+03  0.80394343659E+02 0.  0.
          5    1    3    3  501    0 -0.67712880796E+02 -0.73405612331E+02  0.54452290968E+03  0.55362506023E+03  0.47000000000E+01 0. -1.
        -11    1    4    4    0    0 -0.27501775734E+02 -0.96460063910E+00  0.24479482488E+03  0.24633672972E+03  0.00000000000E+00 0.  1.
         12    1    4    4    0    0 -0.40838021068E+02  0.47992573453E+02  0.11730305785E+03  0.13315794551E+03  0.00000000000E+00 0. -1.
         -5    1    5    5    0  502  0.11609607749E+03  0.41877773808E+01  0.74329683464E+02  0.13799575548E+03  0.47000000000E+01 0.  1.
         11    1    6    6    0    0  0.35265161528E+02 -0.16631379727E+02  0.55464546933E+02  0.67797864094E+02  0.00000000000E+00 0. -1.
        -12    1    6    6    0    0 -0.15308561420E+02  0.38821241864E+02  0.12997975206E+03  0.13651438319E+03  0.00000000000E+00 0.  1.
</event>
<event>
12    1  0.8135779E-002  0.1839723E+03  0.7818608E-02  0.1164370E+00
         21   -1    0    0  501  502  0.00000000000E+00  0.00000000000E+00  0.43588264396E+03  0.43588264396E+03  0.00000000000E+00 0.  1.
         21   -1    0    0  502  503 -0.00000000000E+00 -0.00000000000E+00 -0.39713117612E+03  0.39713117612E+03  0.00000000000E+00 0.  1.
         -6    2    1    2    0  503 -0.63359666266E+02  0.19422208163E+01 -0.35458632166E+03  0.39877836788E+03  0.17109794754E+03 0.  0.
        -24    2    3    3    0    0 -0.61993322022E+02 -0.52354754919E+02 -0.30304069886E+03  0.32375124145E+03  0.79981303047E+02 0.  0.
          6    2    1    2  501    0  0.63359666266E+02 -0.19422208163E+01  0.39333778950E+03  0.43423545220E+03  0.17270666394E+03 0.  0.
         24    2    5    5    0    0  0.96499728777E+02  0.23147649140E+02  0.20221011426E+03  0.23858360949E+03  0.78646023991E+02 0.  0.
          5    1    5    5  501    0 -0.33140062511E+02 -0.25089869957E+02  0.19112767524E+03  0.19565184272E+03  0.47000000000E+01 0. -1.
        -13    1    6    6    0    0  0.87685348220E+02 -0.77888662068E+00  0.19207481535E+03  0.21114464627E+03  0.00000000000E+00 0.  1.
         14    1    6    6    0    0  0.88143805568E+01  0.23926535761E+02  0.10135298910E+02  0.27438963211E+02  0.00000000000E+00 0. -1.
         -5    1    3    3    0  503 -0.13663442437E+01  0.54296975735E+02 -0.51545622796E+02  0.75027126427E+02  0.47000000000E+01 0.  1.
         13    1    4    4    0    0  0.14675680790E+02 -0.30949886896E+02 -0.96858781988E+02  0.10273701745E+03  0.00000000000E+00 0. -1.
        -14    1    4    4    0    0 -0.76669002812E+02 -0.21404868023E+02 -0.20618191687E+03  0.22101422400E+03  0.00000000000E+00 0.  1.
</event>
<event>
12    1  0.8135779E-002  0.1811118E+03  0.7818608E-02  0.1166872E+00
         21   -1    0    0  503  502  0.00000000000E+00  0.00000000000E+00  0.14988251762E+04  0.14988251762E+04  0.00000000000E+00 0. -1.
         21   -1    0    0  501  503 -0.00000000000E+00 -0.00000000000E+00 -0.22015181282E+02  0.22015181282E+02  0.00000000000E+00 0. -1.
          6    2    1    2  501    0 -0.12358803046E+02  0.58891183158E+02  0.66460988469E+03  0.68869223813E+03  0.17020513674E+03 0.  0.
         24    2    3    3    0    0 -0.57104975692E+02 -0.69068465034E+01  0.31166921103E+03  0.32686243035E+03  0.79954164971E+02 0.  0.
         -6    2    1    2    0  502  0.12358803046E+02 -0.58891183158E+02  0.81220011026E+03  0.83214811938E+03  0.17082318933E+03 0.  0.
        -24    2    5    5    0    0  0.70982934448E+02 -0.58108649595E+02  0.52963673580E+03  0.54352803739E+03  0.80575823790E+02 0.  0.
          5    1    3    3  501    0  0.44746172647E+02  0.65798029661E+02  0.35294067366E+03  0.36182980778E+03  0.47000000000E+01 0. -1.
        -11    1    4    4    0    0 -0.23292193422E+02 -0.87876039057E+01  0.27798579324E+03  0.27909827929E+03  0.00000000000E+00 0.  1.
         12    1    4    4    0    0 -0.33812782270E+02  0.18807574023E+01  0.33683417784E+02  0.47764151064E+02  0.00000000000E+00 0. -1.
         -5    1    5    5    0  502 -0.58624131402E+02 -0.78253356308E+00  0.28256337445E+03  0.28862008198E+03  0.47000000000E+01 0.  1.
         11    1    6    6    0    0  0.19783710885E+02 -0.47412951309E+02  0.40663193507E+03  0.40986450662E+03  0.00000000000E+00 0. -1.
        -12    1    6    6    0    0  0.51199223563E+02 -0.10695698286E+02  0.12300480073E+03  0.13366353077E+03  0.00000000000E+00 0.  1.
</event>
<event>
12    1  0.8135779E-002  0.2050875E+03  0.7818608E-02  0.1146021E+00
         21   -1    0    0  503  502  0.00000000000E+00  0.00000000000E+00  0.63265921859E+02  0.63265921859E+02  0.00000000000E+00 0. -1.
         21   -1    0    0  501  503 -0.00000000000E+00 -0.00000000000E+00 -0.16872867970E+04  0.16872867970E+04  0.00000000000E+00 0. -1.
          6    2    1    2  501    0  0.16327410502E+02 -0.10628292014E+03 -0.14979086051E+04  0.15118832808E+04  0.17463740180E+03 0.  0.
         24    2    3    3    0    0  0.17020513274E+02 -0.33256264448E+02 -0.12701546366E+04  0.12726609303E+04  0.70550446722E+02 0.  0.
         -6    2    1    2    0  502 -0.16327410502E+02  0.10628292014E+03 -0.12611227007E+03  0.23866943807E+03  0.17174443968E+03 0.  0.
        -24    2    5    5    0    0 -0.30156378683E+02  0.14060363351E+03 -0.10046464488E+03  0.19340308849E+03  0.81442131816E+02 0.  0.
          5    1    3    3  501    0 -0.69310277161E+00 -0.73026655696E+02 -0.22775396842E+03  0.23922235047E+03  0.47000000000E+01 0. -1.
        -13    1    4    4    0    0 -0.20368985713E+02 -0.19280801314E+02 -0.22457162750E+03  0.22631628478E+03  0.00000000000E+00 0.  1.
         14    1    4    4    0    0  0.37389498987E+02 -0.13975463134E+02 -0.10455830091E+04  0.10463446455E+04  0.00000000000E+00 0. -1.
         -5    1    5    5    0  502  0.13828968181E+02 -0.34320713368E+02 -0.25647625181E+02  0.45266349582E+02  0.47000000000E+01 0.  1.
         11    1    6    6    0    0 -0.10357564478E+02  0.54657496101E+02  0.50767601348E+01  0.55861386623E+02  0.00000000000E+00 0. -1.
        -12    1    6    6    0    0 -0.19798814205E+02  0.85946137411E+02 -0.10554140502E+03  0.13754170187E+03  0.00000000000E+00 0.  1.
</event>
<event>
12    1  0.8135779E-002  0.3557596E+03  0.7818608E-02  0.1060358E+00
         21   -1    0    0  503  502  0.00000000000E+00  0.00000000000E+00  0.22493277478E+03  0.22493277478E+03  0.00000000000E+00 0. -1.
         21   -1    0    0  501  503 -0.00000000000E+00 -0.00000000000E+00 -0.66244993781E+03  0.66244993781E+03  0.00000000000E+00 0.  1.
          6    2    1    2  501    0 -0.18995803455E+03  0.24742636443E+03 -0.39228055109E+03  0.52957429062E+03  0.17105858006E+03 0.  0.
         24    2    3    3    0    0 -0.15634642854E+03  0.15706384807E+03 -0.18960690435E+03  0.30508860844E+03  0.89526659332E+02 0.  0.
         -6    2    1    2    0  502  0.18995803455E+03 -0.24742636443E+03 -0.45236611930E+02  0.35780842198E+03  0.16934182908E+03 0.  0.
        -24    2    5    5    0    0  0.32826118260E+02 -0.12198946517E+03 -0.48149299427E+02  0.15667307312E+03  0.79177731422E+02 0.  0.
          5    1    3    3  501    0 -0.33611606003E+02  0.90362516356E+02 -0.20267364674E+03  0.22448568218E+03  0.47000000000E+01 0. -1.
        -11    1    4    4    0    0  0.11223067962E+02  0.16431838827E+02 -0.20648360424E+02  0.28676076613E+02  0.00000000000E+00 0.  1.
         12    1    4    4    0    0 -0.16756949651E+03  0.14063200924E+03 -0.16895854393E+03  0.27641253182E+03  0.00000000000E+00 0. -1.
         -5    1    5    5    0  502  0.15713191629E+03 -0.12543689926E+03  0.29126874969E+01  0.20113534886E+03  0.47000000000E+01 0.  1.
         13    1    6    6    0    0  0.36245406736E+02 -0.76254991968E+02  0.72641340700E+01  0.84742674924E+02  0.00000000000E+00 0. -1.
        -14    1    6    6    0    0 -0.34192884763E+01 -0.45734473201E+02 -0.55413433497E+02  0.71930398196E+02  0.00000000000E+00 0.  1.
</event>
<event>
12    1  0.8135779E-002  0.1839912E+03  0.7818608E-02  0.1166295E+00
         21   -1    0    0  501  502  0.00000000000E+00  0.00000000000E+00  0.46853055261E+02  0.46853055261E+02  0.00000000000E+00 0.  1.
         21   -1    0    0  502  503 -0.00000000000E+00 -0.00000000000E+00 -0.69201372843E+03  0.69201372843E+03  0.00000000000E+00 0.  1.
         -6    2    1    2    0  503  0.31228876950E+01  0.20408033409E+02 -0.27878294365E+03  0.32888457244E+03  0.17325960887E+03 0.  0.
        -24    2    3    3    0    0 -0.11698906742E+02  0.69653063120E+02 -0.11523580831E+03  0.15737797193E+03  0.80623327340E+02 0.  0.
          6    2    1    2  501    0 -0.31228876950E+01 -0.20408033409E+02 -0.36637772952E+03  0.40998221125E+03  0.18282924437E+03 0.  0.
         24    2    5    5    0    0  0.48274632950E+02 -0.32413746290E+02 -0.10291478093E+03  0.14124319742E+03  0.77311690901E+02 0.  0.
          5    1    5    5  501    0 -0.51397520645E+02  0.12005712881E+02 -0.26346294859E+03  0.26873901382E+03  0.47000000000E+01 0. -1.
        -11    1    6    6    0    0  0.44264315676E+02 -0.10498043298E+02 -0.11185679759E+02  0.46847176938E+02  0.00000000000E+00 0.  1.
         12    1    6    6    0    0  0.40103172733E+01 -0.21915702992E+02 -0.91729101169E+02  0.94396020486E+02  0.00000000000E+00 0. -1.
         -5    1    3    3    0  503  0.14821794437E+02 -0.49245029711E+02 -0.16354713534E+03  0.17150660051E+03  0.47000000000E+01 0.  1.
         11    1    4    4    0    0  0.26945260341E+02  0.61247973252E+02 -0.81056034229E+02  0.10510681218E+03  0.00000000000E+00 0. -1.
        -12    1    4    4    0    0 -0.38644167083E+02  0.84050898678E+01 -0.34179774083E+02  0.52271159750E+02  0.00000000000E+00 0.  1.
</event>
<event>
12    1  0.8135779E-002  0.1823896E+03  0.7818608E-02  0.1165613E+00
         21   -1    0    0  501  502  0.00000000000E+00  0.00000000000E+00  0.84975422749E+02  0.84975422749E+02  0.00000000000E+00 0. -1.
         21   -1    0    0  502  503 -0.00000000000E+00 -0.00000000000E+00 -0.40298801252E+03  0.40298801252E+03  0.00000000000E+00 0. -1.
         -6    2    1    2    0  503 -0.57931244928E+02 -0.14594599797E+02 -0.11595475766E+03  0.21576250776E+03  0.17186891065E+03 0.  0.
        -24    2    3    3    0    0 -0.66282159443E+02 -0.68850462581E+02 -0.62697252013E+02  0.13913426018E+03  0.79332755452E+02 0.  0.
          6    2    1    2  501    0  0.57931244928E+02  0.14594599797E+02 -0.20205783211E+03  0.27220092751E+03  0.17232801844E+03 0.  0.
         24    2    5    5    0    0 -0.29339195130E+02  0.31309049534E+02 -0.10477881012E+03  0.14036466294E+03  0.82961404260E+02 0.  0.
          5    1    5    5  501    0  0.87270440058E+02 -0.16714449737E+02 -0.97279021987E+02  0.13183626457E+03  0.47000000000E+01 0. -1.
        -13    1    6    6    0    0 -0.48487890902E+02  0.12426469954E+02 -0.24555197173E+02  0.55753479065E+02  0.00000000000E+00 0.  1.
         14    1    6    6    0    0  0.19148695772E+02  0.18882579580E+02 -0.80223612949E+02  0.84611183870E+02  0.00000000000E+00 0. -1.
         -5    1    3    3    0  503  0.83509145145E+01  0.54255862784E+02 -0.53257505652E+02  0.76628247585E+02  0.47000000000E+01 0.  1.
         11    1    4    4    0    0 -0.45231550603E+02 -0.39190441100E+01 -0.53644816930E+02  0.70278150660E+02  0.00000000000E+00 0. -1.
        -12    1    4    4    0    0 -0.21050608839E+02 -0.64931418471E+02 -0.90524350827E+01  0.68856109519E+02  0.00000000000E+00 0.  1.
</event>
<event>
12    1  0.8135779E-002  0.2479083E+03  0.7818608E-02  0.1114698E+00
         21   -1    0    0  503  502  0.00000000000E+00  0.00000000000E+00  0.59212425919E+02  0.59212425919E+02  0.00000000000E+00 0.  1.
         21   -1    0    0  501  503 -0.00000000000E+00 -0.00000000000E+00 -0.10362621286E+04  0.10362621286E+04  0.00000000000E+00 0.  1.
          6    2    1    2  501    0  0.16270393017E+03  0.71050574633E+02 -0.48756144717E+03  0.54678766802E+03  0.17245241686E+03 0.  0.
         24    2    3    3    0    0  0.64702553353E+02 -0.89224341741E+01 -0.32112506789E+03  0.33768694984E+03  0.81517707411E+02 0.  0.
         -6    2    1    2    0  502 -0.16270393017E+03 -0.71050574633E+02 -0.48948825549E+03  0.54868688648E+03  0.17302541456E+03 0.  0.
        -24    2    5    5    0    0 -0.15238117548E+03 -0.37887046767E+02 -0.48169185386E+03  0.51278072095E+03  0.79130112742E+02 0.  0.
          5    1    3    3  501    0  0.98001376817E+02  0.79973008808E+02 -0.16643637928E+03  0.20910071818E+03  0.47000000000E+01 0. -1.
        -11    1    4    4    0    0  0.44773699280E+02  0.34568088775E+02 -0.16865856805E+03  0.17789139800E+03  0.00000000000E+00 0.  1.
         12    1    4    4    0    0  0.19928854073E+02 -0.43490522949E+02 -0.15246649984E+03  0.15979555183E+03  0.00000000000E+00 0. -1.
         -5    1    5    5    0  502 -0.10322754686E+02 -0.33163527867E+02 -0.77964016254E+01  0.35906165532E+02  0.47000000000E+01 0.  1.
         13    1    6    6    0    0  0.56372799455E+01 -0.14473095742E+02 -0.32276591324E+02  0.35819377061E+02  0.00000000000E+00 0. -1.
        -14    1    6    6    0    0 -0.15801845543E+03 -0.23413951025E+02 -0.44941526254E+03  0.47696134389E+03  0.00000000000E+00 0.  1.
</event>
<event>
12    1  0.8135779E-002  0.1788256E+03  0.7818608E-02  0.1172286E+00
         21   -1    0    0  503  502  0.00000000000E+00  0.00000000000E+00  0.15576847601E+03  0.15576847601E+03  0.00000000000E+00 0. -1.
         21   -1    0    0  501  503 -0.00000000000E+00 -0.00000000000E+00 -0.20495762087E+03  0.20495762087E+03  0.00000000000E+00 0. -1.
          6    2    1    2  501    0 -0.10491469496E+02  0.48202532970E+02 -0.71622621756E+02  0.18049890911E+03  0.15816605554E+03 0.  0.
         24    2    3    3    0    0 -0.27633754036E+02 -0.27413831481E+02 -0.30954737693E+02  0.92819611174E+02  0.78371818368E+02 0.  0.
         -6    2    1    2    0  502  0.10491469496E+02 -0.48202532970E+02  0.22433476892E+02  0.18022718777E+03  0.17188665803E+03 0.  0.
        -24    2    5    5    0    0 -0.59771504643E+02 -0.25714042661E+02  0.25440054859E+02  0.10624241067E+03  0.80040044203E+02 0.  0.
          5    1    3    3  501    0  0.17142284540E+02  0.75616364451E+02 -0.40667884063E+02  0.87679297934E+02  0.47000000000E+01 0. -1.
        -13    1    4    4    0    0  0.26527263875E+01  0.16692197641E+02  0.14765067124E+02  0.22442674229E+02  0.00000000000E+00 0.  1.
         14    1    4    4    0    0 -0.30286480423E+02 -0.44106029122E+02 -0.45719804817E+02  0.70376936945E+02  0.00000000000E+00 0. -1.
         -5    1    5    5    0  502  0.70262974139E+02 -0.22488490309E+02 -0.30065779664E+01  0.73984777099E+02  0.47000000000E+01 0.  1.
         13    1    6    6    0    0  0.10254466859E+01 -0.40550178528E+02  0.93804580800E+01  0.41633658419E+02  0.00000000000E+00 0. -1.
        -14    1    6    6    0    0 -0.60796951329E+02  0.14836135867E+02  0.16059596779E+02  0.64608752248E+02  0.00000000000E+00 0.  1.
</event>
<event>
12    1  0.8135779E-002  0.2251771E+03  0.7818608E-02  0.1130130E+00
         21   -1    0    0  503  502  0.00000000000E+00  0.00000000000E+00  0.11746749740E+03  0.11746749740E+03  0.00000000000E+00 0. -1.
         21   -1    0    0  501  503 -0.00000000000E+00 -0.00000000000E+00 -0.50207572326E+03  0.50207572326E+03  0.00000000000E+00 0. -1.
          6    2    1    2  501    0 -0.38260719988E+02 -0.13928404494E+03 -0.75962151628E+02  0.23764468462E+03  0.17274495587E+03 0.  0.
         24    2    3    3    0    0 -0.61868071114E+01 -0.86335048116E+02  0.23206041749E+02  0.12064574133E+03  0.80776589511E+02 0.  0.
         -6    2    1    2    0  502  0.38260719988E+02  0.13928404494E+03 -0.30864607423E+03  0.38189853605E+03  0.17239537357E+03 0.  0.
        -24    2    5    5    0    0 -0.20907765056E+02  0.67696825741E+02 -0.24787289782E+03  0.27080799394E+03  0.82921657322E+02 0.  0.
          5    1    3    3  501    0 -0.32073912876E+02 -0.52948996827E+02 -0.99168193377E+02  0.11699894329E+03  0.47000000000E+01 0. -1.
        -13    1    4    4    0    0 -0.77897583522E+01 -0.23668994010E+02 -0.29592872058E+02  0.38686427714E+02  0.00000000000E+00 0.  1.
         14    1    4    4    0    0  0.16029512408E+01 -0.62666054105E+02  0.52798913807E+02  0.81959313620E+02  0.00000000000E+00 0. -1.
         -5    1    5    5    0  502  0.59168485044E+02  0.71587219202E+02 -0.60773176415E+02  0.11109054211E+03  0.47000000000E+01 0.  1.
         11    1    6    6    0    0  0.24856060327E+02  0.31606925611E+02 -0.16275569878E+03  0.16764915439E+03  0.00000000000E+00 0. -1.
        -12    1    6    6    0    0 -0.45763825384E+02  0.36089900130E+02 -0.85117199031E+02  0.10315883954E+03  0.00000000000E+00 0.  1.
</event>
<event>
12    1  0.8135779E-002  0.3590789E+03  0.7818608E-02  0.1059036E+00
         21   -1    0    0  503  502  0.00000000000E+00  0.00000000000E+00  0.26086033997E+03  0.26086033997E+03  0.00000000000E+00 0. -1.
         21   -1    0    0  501  503 -0.00000000000E+00 -0.00000000000E+00 -0.56679608824E+03  0.56679608824E+03  0.00000000000E+00 0. -1.
          6    2    1    2  501    0 -0.58577311518E+02  0.30900393301E+03 -0.38922594054E+01  0.35910002240E+03  0.17327130278E+03 0.  0.
         24    2    3    3    0    0 -0.73013927216E+02  0.11774303346E+03  0.33436860955E+02  0.16363979423E+03  0.80408352124E+02 0.  0.
         -6    2    1    2    0  502  0.58577311518E+02 -0.30900393301E+03 -0.30204348886E+03  0.46855640580E+03  0.17146458591E+03 0.  0.
        -24    2    5    5    0    0 -0.13764818248E+02 -0.20239390658E+03 -0.24234540306E+03  0.32648236553E+03  0.81894303665E+02 0.  0.
          5    1    3    3  501    0  0.14436615698E+02  0.19126089955E+03 -0.37329120360E+02  0.19546022817E+03  0.47000000000E+01 0. -1.
        -11    1    4    4    0    0 -0.50125637680E+02  0.10578704000E+03 -0.51894039045E+01  0.11717682065E+03  0.00000000000E+00 0.  1.
         12    1    4    4    0    0 -0.22888289535E+02  0.11955993460E+02  0.38626264859E+02  0.46462973586E+02  0.00000000000E+00 0. -1.
         -5    1    5    5    0  502  0.72342129765E+02 -0.10661002642E+03 -0.59698085796E+02  0.14207404028E+03  0.47000000000E+01 0.  1.
         13    1    6    6    0    0  0.26831301867E+02 -0.92639428639E+02 -0.74498146548E+02  0.12186860276E+03  0.00000000000E+00 0. -1.
        -14    1    6    6    0    0 -0.40596120114E+02 -0.10975447794E+03 -0.16784725651E+03  0.20461376277E+03  0.00000000000E+00 0.  1.
</event>
<event>
12    1  0.8135779E-002  0.3165506E+03  0.7818608E-02  0.1077261E+00
         21   -1    0    0  503  502  0.00000000000E+00  0.00000000000E+00  0.17834961028E+03  0.17834961028E+03  0.00000000000E+00 0.  1.
         21   -1    0    0  501  503 -0.00000000000E+00 -0.00000000000E+00 -0.70387092493E+03  0.70387092493E+03  0.00000000000E+00 0.  1.
          6    2    1    2  501    0  0.42301584044E+01 -0.26607056021E+03 -0.46101365834E+03  0.55916399330E+03  0.17122891397E+03 0.  0.
         24    2    3    3    0    0 -0.47725139879E+02 -0.23529582917E+03 -0.34500399488E+03  0.42829471079E+03  0.82260480201E+02 0.  0.
         -6    2    1    2    0  502 -0.42301584044E+01  0.26607056021E+03 -0.64507656300E+02  0.32305654191E+03  0.17144344344E+03 0.  0.
        -24    2    5    5    0    0 -0.49824230807E+02  0.21670167157E+03 -0.84846101886E+02  0.25268716666E+03  0.84910981343E+02 0.  0.
          5    1    3    3  501    0  0.51955298284E+02 -0.30774731044E+02 -0.11600966346E+03  0.13086928252E+03  0.47000000000E+01 0. -1.
        -13    1    4    4    0    0 -0.20401183032E+02 -0.15678363898E+03 -0.28448743624E+03  0.32546953636E+03  0.00000000000E+00 0.  1.
         14    1    4    4    0    0 -0.27323956847E+02 -0.78512190187E+02 -0.60516558645E+02  0.10282517443E+03  0.00000000000E+00 0. -1.
         -5    1    5    5    0  502  0.45594072403E+02  0.49368888640E+02  0.20338445587E+02  0.70369375248E+02  0.47000000000E+01 0.  1.
         13    1    6    6    0    0  0.19406881112E+01  0.93363764141E+01 -0.30783801912E+02  0.32226955410E+02  0.00000000000E+00 0. -1.
        -14    1    6    6    0    0 -0.51764918919E+02  0.20736529516E+03 -0.54062299974E+02  0.22046021125E+03  0.00000000000E+00 0.  1.
</event>
<event>
12    1  0.8135779E-002  0.1872278E+03  0.7818608E-02  0.1164194E+00
         21   -1    0    0  503  502  0.00000000000E+00  0.00000000000E+00  0.19783672236E+03  0.19783672236E+03  0.00000000000E+00 0. -1.
         21   -1    0    0  501  503 -0.00000000000E+00 -0.00000000000E+00 -0.18117715655E+03  0.18117715655E+03  0.00000000000E+00 0. -1.
          6    2    1    2  501    0  0.67200523715E+02  0.22135070230E+02 -0.49028355790E+02  0.18059729574E+03  0.15876313122E+03 0.  0.
         24    2    3    3    0    0 -0.79801179740E+01  0.40257858025E+02 -0.51779606393E+01  0.91571953972E+02  0.81695985594E+02 0.  0.
         -6    2    1    2    0  502 -0.67200523715E+02 -0.22135070230E+02  0.65687921600E+02  0.19841658316E+03  0.17334464430E+03 0.  0.
        -24    2    5    5    0    0 -0.59172336597E+02  0.50642675882E+02  0.52347275783E+02  0.12384369970E+03  0.80814470450E+02 0.  0.
          5    1    3    3  501    0  0.75180641689E+02 -0.18122787794E+02 -0.43850395150E+02  0.89025341769E+02  0.47000000000E+01 0. -1.
        -13    1    4    4    0    0  0.29271211736E+02  0.25892183501E+02  0.20472165187E+02  0.44117100431E+02  0.00000000000E+00 0.  1.
         14    1    4    4    0    0 -0.37251329710E+02  0.14365674524E+02 -0.25650125826E+02  0.47454853541E+02  0.00000000000E+00 0. -1.
         -5    1    5    5    0  502 -0.80281871182E+01 -0.72777746113E+02  0.13340645818E+02  0.74572883466E+02  0.47000000000E+01 0.  1.
         11    1    6    6    0    0  0.35898758936E+01 -0.30093129021E+01  0.40098474317E+02  0.40371163169E+02  0.00000000000E+00 0. -1.
        -12    1    6    6    0    0 -0.62762212490E+02  0.53651988785E+02  0.12248801465E+02  0.83472536529E+02  0.00000000000E+00 0.  1.
</event>
<event>
12    1  0.8135779E-002  0.1977434E+03  0.7818608E-02  0.1151765E+00
         21   -1    0    0  501  502  0.00000000000E+00  0.00000000000E+00  0.22770217145E+03  0.22770217145E+03  0.00000000000E+00 0.  1.
         21   -1    0    0  502  503 -0.00000000000E+00 -0.00000000000E+00 -0.22961275151E+03  0.22961275151E+03  0.00000000000E+00 0.  1.
         -6    2    1    2    0  503  0.90008996272E+02  0.29400000699E+02 -0.11619438280E+03  0.22892220057E+03  0.17302676056E+03 0.  0.
        -24    2    3    3    0    0  0.95462959941E+02 -0.12985484573E+01 -0.14154086383E+03  0.18846628950E+03  0.79817687241E+02 0.  0.
          6    2    1    2  501    0 -0.90008996272E+02 -0.29400000699E+02  0.11428380273E+03  0.22839272239E+03  0.17359858473E+03 0.  0.
         24    2    5    5    0    0 -0.11835529927E+03  0.22453709913E+02  0.74604247951E+02  0.15705635532E+03  0.67740379252E+02 0.  0.
          5    1    5    5  501    0  0.28346302998E+02 -0.51853710612E+02  0.39679554782E+02  0.71336367062E+02  0.47000000000E+01 0. -1.
        -11    1    6    6    0    0 -0.55452841264E+02 -0.32972016029E+01 -0.77776532286E+00  0.55556224327E+02  0.00000000000E+00 0.  1.
         12    1    6    6    0    0 -0.62902458007E+02  0.25750911516E+02  0.75382013274E+02  0.10150013100E+03  0.00000000000E+00 0. -1.
         -5    1    3    3    0  503 -0.54539636682E+01  0.30698549157E+02  0.25346481032E+02  0.40455911073E+02  0.47000000000E+01 0.  1.
         11    1    4    4    0    0  0.20075864816E+02 -0.34298266603E+02 -0.64369961761E+02  0.75649873875E+02  0.00000000000E+00 0. -1.
        -12    1    4    4    0    0  0.75387095125E+02  0.32999718146E+02 -0.77170902067E+02  0.11281641563E+03  0.00000000000E+00 0.  1.
</event>
<event>
12    1  0.8135779E-002  0.1875754E+03  0.7818608E-02  0.1160934E+00
         21   -1    0    0  501  502  0.00000000000E+00  0.00000000000E+00  0.78350968140E+02  0.78350968140E+02  0.00000000000E+00 0.  1.
         21   -1    0    0  502  503 -0.00000000000E+00 -0.00000000000E+00 -0.64078534063E+03  0.64078534063E+03  0.00000000000E+00 0.  1.
         -6    2    1    2    0  503 -0.73010011188E+02 -0.62668575054E-01 -0.47870699756E+03  0.51372255933E+03  0.17152263056E+03 0.  0.
        -24    2    3    3    0    0 -0.76352820404E+02  0.59296938604E+02 -0.29768749826E+03  0.32313167166E+03  0.80314074091E+02 0.  0.
          6    2    1    2  501    0  0.73010011188E+02  0.62668575054E-01 -0.83727374934E+02  0.20541374944E+03  0.17278330210E+03 0.  0.
         24    2    5    5    0    0  0.98766973597E+02 -0.43667017392E+02 -0.47732690180E+02  0.14301652292E+03  0.80706831396E+02 0.  0.
          5    1    5    5  501    0 -0.25756962409E+02  0.43729685967E+02 -0.35994684754E+02  0.62397226523E+02  0.47000000000E+01 0. -1.
        -13    1    6    6    0    0  0.38000171031E+02 -0.20931537429E+02  0.21256797457E+02  0.48311424070E+02  0.00000000000E+00 0.  1.
         14    1    6    6    0    0  0.60766802566E+02 -0.22735479963E+02 -0.68989487636E+02  0.94705098847E+02  0.00000000000E+00 0. -1.
         -5    1    3    3    0  503  0.33428092166E+01 -0.59359607179E+02 -0.18101949930E+03  0.19059088767E+03  0.47000000000E+01 0.  1.
         13    1    4    4    0    0 -0.32450040229E+02  0.21815050912E+02 -0.29981855635E+02  0.49272844696E+02  0.00000000000E+00 0. -1.
        -14    1    4    4    0    0 -0.43902780176E+02  0.37481887692E+02 -0.26770564262E+03  0.27385882696E+03  0.00000000000E+00 0.  1.
</event>
<event>
12    1  0.8135779E-002  0.2021975E+03  0.7818608E-02  0.1148521E+00
         21   -1    0    0  501  502  0.00000000000E+00  0.00000000000E+00  0.22605157415E+03  0.22605157415E+03  0.00000000000E+00 0. -1.
         21   -1    0    0  502  503 -0.00000000000E+00 -0.00000000000E+00 -0.18728749488E+03  0.18728749488E+03  0.00000000000E+00 0.  1.
         -6    2    1    2    0  503 -0.41168348801E+02  0.96806422742E+02  0.64737287769E+02  0.20948018600E+03  0.16918840229E+03 0.  0.
        -24    2    3    3    0    0  0.14134957920E+01  0.13392495240E+02 -0.17908915196E+02  0.84485859506E+02  0.81460262176E+02 0.  0.
          6    2    1    2  501    0  0.41168348801E+02 -0.96806422742E+02 -0.25973208497E+02  0.20385888303E+03  0.17267750347E+03 0.  0.
         24    2    5    5    0    0  0.29407864896E+01 -0.12086784119E+02  0.32258678524E+02  0.94078163621E+02  0.87494799587E+02 0.  0.
          5    1    5    5  501    0  0.38227562312E+02 -0.84719638623E+02 -0.58231887021E+02  0.10978071941E+03  0.47000000000E+01 0. -1.
        -13    1    6    6    0    0  0.18179918261E+02  0.15451944314E+02 -0.21281917468E+02  0.31971737866E+02  0.00000000000E+00 0.  1.
         14    1    6    6    0    0 -0.15239131771E+02 -0.27538728433E+02  0.53540595992E+02  0.62106425755E+02  0.00000000000E+00 0. -1.
         -5    1    3    3    0  503 -0.42581844593E+02  0.83413927503E+02  0.82646202965E+02  0.12499432649E+03  0.47000000000E+01 0.  1.
         13    1    4    4    0    0  0.35708890989E+02 -0.12358721598E+02  0.55971294605E+00  0.37791218210E+02  0.00000000000E+00 0. -1.
        -14    1    4    4    0    0 -0.34295395197E+02  0.25751216838E+02 -0.18468628142E+02  0.46694641296E+02  0.00000000000E+00 0.  1.
</event>
<event>
12    1  0.8135779E-002  0.2456669E+03  0.7818608E-02  0.1116279E+00
         21   -1    0    0  501  502  0.00000000000E+00  0.00000000000E+00  0.10411226927E+04  0.10411226927E+04  0.00000000000E+00 0. -1.
         21   -1    0    0  502  503 -0.00000000000E+00 -0.00000000000E+00 -0.76855723030E+02  0.76855723030E+02  0.00000000000E+00 0.  1.
         -6    2    1    2    0  503  0.95462309055E+02  0.14776407345E+03  0.20191034657E+03  0.31701659172E+03  0.16965982884E+03 0.  0.
        -24    2    3    3    0    0  0.65064589921E+02  0.13602858748E+03  0.22065203187E+03  0.27913409277E+03  0.80568884223E+02 0.  0.
          6    2    1    2  501    0 -0.95462309055E+02 -0.14776407345E+03  0.76235662312E+03  0.80096182403E+03  0.17147871266E+03 0.  0.
         24    2    5    5    0    0 -0.11664048489E+03 -0.67267984024E+02  0.41642145032E+03  0.44512285859E+03  0.81225307435E+02 0.  0.
          5    1    5    5  501    0  0.21178175837E+02 -0.80496089422E+02  0.34593517280E+03  0.35583896544E+03  0.47000000000E+01 0. -1.
        -13    1    6    6    0    0 -0.33421946618E+02  0.80717514858E+01  0.42235203629E+02  0.54460922810E+02  0.00000000000E+00 0.  1.
         14    1    6    6    0    0 -0.83218538274E+02 -0.75339735510E+02  0.37418624669E+03  0.39066193578E+03  0.00000000000E+00 0. -1.
         -5    1    3    3    0  503  0.30397719134E+02  0.11735485971E+02 -0.18741685292E+02  0.37882498955E+02  0.47000000000E+01 0.  1.
         11    1    4    4    0    0  0.62149061488E+02  0.12239831572E+03  0.13562266755E+03  0.19296984606E+03  0.00000000000E+00 0. -1.
        -12    1    4    4    0    0  0.29155284332E+01  0.13630271757E+02  0.85029364321E+02  0.86164246710E+02  0.00000000000E+00 0.  1.
</event>
<event>
12    1  0.8135779E-002  0.1834812E+03  0.7818608E-02  0.1164527E+00
         21   -1    0    0  501  502  0.00000000000E+00  0.00000000000E+00  0.12630614395E+04  0.12630614395E+04  0.00000000000E+00 0.  1.
         21   -1    0    0  502  503 -0.00000000000E+00 -0.00000000000E+00 -0.30592399447E+02  0.30592399447E+02  0.00000000000E+00 0.  1.
         -6    2    1    2    0  503 -0.63642145203E+02 -0.10265660346E+02  0.38354332667E+03  0.42517151687E+03  0.17178366888E+03 0.  0.
        -24    2    3    3    0    0  0.28572399332E+02  0.18619986865E+02  0.19580838120E+03  0.21397397288E+03  0.79251832818E+02 0.  0.
          6    2    1    2  501    0  0.63642145203E+02  0.10265660346E+02  0.84892571339E+03  0.86848232208E+03  0.17155457001E+03 0.  0.
         24    2    5    5    0    0  0.20266974379E+02 -0.13809449559E+02  0.77348863775E+03  0.77807292688E+03  0.80692971565E+02 0.  0.
          5    1    5    5  501    0  0.43375170824E+02  0.24075109905E+02  0.75437075634E+02  0.90409395204E+02  0.47000000000E+01 0. -1.
        -11    1    6    6    0    0 -0.28938912035E+01  0.29692633106E+02  0.43419225299E+03  0.43521596895E+03  0.00000000000E+00 0.  1.
         12    1    6    6    0    0  0.23160865583E+02 -0.43502082665E+02  0.33929638476E+03  0.34285695793E+03  0.00000000000E+00 0. -1.
         -5    1    3    3    0  503 -0.92214544535E+02 -0.28885647211E+02  0.18773494547E+03  0.21119754399E+03  0.47000000000E+01 0.  1.
         11    1    4    4    0    0 -0.30739240788E+01  0.44961127393E+02  0.99162871476E+02  0.10892303276E+03  0.00000000000E+00 0. -1.
        -12    1    4    4    0    0  0.31646323410E+02 -0.26341140527E+02  0.96645509729E+02  0.10505094012E+03  0.00000000000E+00 0.  1.
</event>
<event>
12    1  0.8135779E-002  0.1913141E+03  0.7818608E-02  0.1158195E+00
         21   -1    0    0  501  502  0.00000000000E+00  0.00000000000E+00  0.26010626691E+03  0.26010626691E+03  0.00000000000E+00 0. -1.
         21   -1    0    0  502  503 -0.00000000000E+00 -0.00000000000E+00 -0.61578746647E+03  0.61578746647E+03  0.00000000000E+00 0.  1.
         -6    2    1    2    0  503  0.74492892253E+02 -0.38077096776E+02 -0.56327409868E+03  0.59358912097E+03  0.16754485368E+03 0.  0.
        -24    2    3    3    0    0  0.42538948997E+02 -0.64638773759E+02 -0.20161719650E+03  0.22952266816E+03  0.77739488140E+02 0.  0.
          6    2    1    2  501    0 -0.74492892253E+02  0.38077096776E+02  0.20759289912E+03  0.28230461240E+03  0.17205239354E+03 0.  0.
         24    2    5    5    0    0 -0.46898326968E+02  0.18716396806E+02  0.27407080532E+02  0.98932542668E+02  0.80540321291E+02 0.  0.
          5    1    5    5  501    0 -0.27594565285E+02  0.19360699970E+02  0.18018581859E+03  0.18337206973E+03  0.47000000000E+01 0. -1.
        -11    1    6    6    0    0 -0.19331169840E+02 -0.31436955683E+02  0.17527656778E+02  0.40855783705E+02  0.00000000000E+00 0.  1.
         12    1    6    6    0    0 -0.27567157128E+02  0.50153352489E+02  0.98794237535E+01  0.58076758964E+02  0.00000000000E+00 0. -1.
         -5    1    3    3    0  503  0.31953943255E+02  0.26561676983E+02 -0.36165690218E+03  0.36406645282E+03  0.47000000000E+01 0.  1.
         11    1    4    4    0    0 -0.14967554478E+02 -0.47296964517E+02 -0.92988759687E+02  0.10539421221E+03  0.00000000000E+00 0. -1.
        -12    1    4    4    0    0  0.57506503476E+02 -0.17341809242E+02 -0.10862843682E+03  0.12412845594E+03  0.00000000000E+00 0.  1.
</event>
<event>
12    1  0.8135779E-002  0.3556322E+03  0.7818608E-02  0.1060817E+00
         21   -1    0    0  503  502  0.00000000000E+00  0.00000000000E+00  0.84851807279E+02  0.84851807279E+02  0.00000000000E+00 0.  1.
         21   -1    0    0  501  503 -0.00000000000E+00 -0.00000000000E+00 -0.15511009091E+04  0.15511009091E+04  0.00000000000E+00 0. -1.
          6    2    1    2  501    0 -0.43614575317E+02  0.30263477072E+03 -0.54168790743E+03  0.64535308075E+03  0.17194410181E+03 0.  0.
         24    2    3    3    0    0 -0.61014894643E+02  0.29661954645E+03 -0.42685957583E+03  0.52896326257E+03  0.76727198392E+02 0.  0.
         -6    2    1    2    0  502  0.43614575317E+02 -0.30263477072E+03 -0.92456119434E+03  0.99059963558E+03  0.18161552881E+03 0.  0.
        -24    2    5    5    0    0  0.54602930054E+02 -0.31594514715E+03 -0.81039545463E+03  0.87504092244E+03  0.78441105756E+02 0.  0.
          5    1    3    3  501    0  0.17400319326E+02  0.60152242677E+01 -0.11482833160E+03  0.11638981817E+03  0.47000000000E+01 0. -1.
        -11    1    4    4    0    0 -0.65250757721E+02  0.16204171269E+03 -0.20384422177E+03  0.26845417632E+03  0.00000000000E+00 0.  1.
         12    1    4    4    0    0  0.42358630783E+01  0.13457783376E+03 -0.22301535405E+03  0.26050908625E+03  0.00000000000E+00 0. -1.
         -5    1    5    5    0  502 -0.10988354737E+02  0.13310376428E+02 -0.11416573971E+03  0.11555871315E+03  0.47000000000E+01 0.  1.
         13    1    6    6    0    0  0.20655036515E+02 -0.18621051478E+03 -0.56694172975E+03  0.59709623285E+03  0.00000000000E+00 0. -1.
        -14    1    6    6    0    0  0.33947893539E+02 -0.12973463237E+03 -0.24345372488E+03  0.27794468959E+03  0.00000000000E+00 0.  1.
</event>
<event>
12    1  0.8135779E-002  0.1995862E+03  0.7818608E-02  0.1150300E+00
         21   -1    0    0  501  502  0.00000000000E+00  0.00000000000E+00  0.12336019116E+03  0.12336019116E+03  0.00000000000E+00 0. -1.
         21   -1    0    0  502  503 -0.00000000000E+00 -0.00000000000E+00 -0.49853191902E+03  0.49853191902E+03  0.00000000000E+00 0.  1.
         -6    2    1    2    0  503 -0.46440394100E+02 -0.89921585729E+02 -0.37268180079E+03  0.42229039620E+03  0.17086501194E+03 0.  0.
        -24    2    3    3    0    0 -0.68695622337E+02 -0.10569579397E+01 -0.21965441663E+03  0.24387602583E+03  0.80667512288E+02 0.  0.
          6    2    1    2  501    0  0.46440394100E+02  0.89921585729E+02 -0.24899270697E+01  0.19960171398E+03  0.17202337836E+03 0.  0.
         24    2    5    5    0    0 -0.13531256406E+02  0.11807915672E+03 -0.87971017362E+00  0.13316279115E+03  0.60048088272E+02 0.  0.
          5    1    5    5  501    0  0.59971650506E+02 -0.28157570991E+02 -0.16102168961E+01  0.66438922831E+02  0.47000000000E+01 0. -1.
        -13    1    6    6    0    0 -0.89766287882E+01  0.24659334040E+02 -0.25346988780E+02  0.36484688020E+02  0.00000000000E+00 0.  1.
         14    1    6    6    0    0 -0.45546276178E+01  0.93419822680E+02  0.24467278607E+02  0.96678103130E+02  0.00000000000E+00 0. -1.
         -5    1    3    3    0  503  0.22255228237E+02 -0.88864627790E+02 -0.15302738415E+03  0.17841437038E+03  0.47000000000E+01 0.  1.
         11    1    4    4    0    0  0.10030750115E+02 -0.21353905645E+02 -0.65087651730E+02  0.69231550913E+02  0.00000000000E+00 0. -1.
        -12    1    4    4    0    0 -0.78726372451E+02  0.20296947705E+02 -0.15456676490E+03  0.17464447492E+03  0.00000000000E+00 0.  1.
</event>
<event>
12    1  0.8135779E-002  0.4396974E+03  0.7818608E-02  0.1031015E+00
         21   -1    0    0  503  502  0.00000000000E+00  0.00000000000E+00  0.20491777809E+04  0.20491777809E+04  0.00000000000E+00 0. -1.
         21   -1    0    0  501  503 -0.00000000000E+00 -0.00000000000E+00 -0.11408509212E+03  0.11408509212E+03  0.00000000000E+00 0. -1.
          6    2    1    2  501    0 -0.39982385507E+03 -0.44510686241E+02  0.51004216826E+03  0.67192025093E+03  0.17173669945E+03 0.  0.
         24    2    3    3    0    0 -0.24524585468E+03 -0.34544235717E+02  0.41603269843E+03  0.49066474410E+03  0.79560363726E+02 0.  0.
         -6    2    1    2    0  502  0.39982385507E+03  0.44510686241E+02  0.14250505205E+04  0.14913426221E+04  0.17746412068E+03 0.  0.
        -24    2    5    5    0    0  0.17864188771E+03 -0.29255776783E+02  0.81303985224E+03  0.83640590617E+03  0.75975088258E+02 0.  0.
          5    1    3    3  501    0 -0.15457800039E+03 -0.99664505248E+01  0.94009469827E+02  0.18125550683E+03  0.47000000000E+01 0. -1.
        -13    1    4    4    0    0 -0.81761231184E+02 -0.50127782326E+02  0.15425946024E+03  0.18164161021E+03  0.00000000000E+00 0.  1.
         14    1    4    4    0    0 -0.16348462349E+03  0.15583546610E+02  0.26177323819E+03  0.30902313388E+03  0.00000000000E+00 0. -1.
         -5    1    5    5    0  502  0.22118196736E+03  0.73766463024E+02  0.61201066827E+03  0.65493671590E+03  0.47000000000E+01 0.  1.
         11    1    6    6    0    0  0.14384662026E+03 -0.75285213345E+01  0.72641673298E+03  0.74056046259E+03  0.00000000000E+00 0. -1.
        -12    1    6    6    0    0  0.34795267452E+02 -0.21727255449E+02  0.86623119251E+02  0.95845443581E+02  0.00000000000E+00 0.  1.
</event>
<event>
12    1  0.8135779E-002  0.1945190E+03  0.7818608E-02  0.1155107E+00
         21   -1    0    0  501  502  0.00000000000E+00  0.00000000000E+00  0.19921328207E+03  0.19921328207E+03  0.00000000000E+00 0. -1.
         21   -1    0    0  502  503 -0.00000000000E+00 -0.00000000000E+00 -0.23940638265E+03  0.23940638265E+03  0.00000000000E+00 0. -1.
         -6    2    1    2    0  503  0.60794626929E+02 -0.59712780372E+02 -0.12279800422E+03  0.23003692580E+03  0.17486004285E+03 0.  0.
        -24    2    3    3    0    0  0.52982595183E+02  0.30580704631E+02 -0.86625216461E+02  0.13234095941E+03  0.79169858669E+02 0.  0.
          6    2    1    2  501    0 -0.60794626929E+02  0.59712780372E+02  0.82604903650E+02  0.20858273892E+03  0.17152721669E+03 0.  0.
         24    2    5    5    0    0 -0.64948060289E+02  0.80826681394E+02  0.84806611020E+01  0.13125524602E+03  0.80030088309E+02 0.  0.
          5    1    5    5  501    0  0.41534333603E+01 -0.21113901022E+02  0.74124242548E+02  0.77327492901E+02  0.47000000000E+01 0. -1.
        -13    1    6    6    0    0 -0.70993057064E+02  0.26075395409E+02  0.76997458169E+00  0.75634206929E+02  0.00000000000E+00 0.  1.
         14    1    6    6    0    0  0.60449967743E+01  0.54751285985E+02  0.77106865203E+01  0.55621039091E+02  0.00000000000E+00 0. -1.
         -5    1    3    3    0  503  0.78120317458E+01 -0.90293485003E+02 -0.36172787764E+02  0.97695966389E+02  0.47000000000E+01 0.  1.
         13    1    4    4    0    0 -0.15459250082E+02 -0.95541696993E+01 -0.29218674949E+02  0.34409323409E+02  0.00000000000E+00 0. -1.
        -14    1    4    4    0    0  0.68441845265E+02  0.40134874330E+02 -0.57406541512E+02  0.97931635997E+02  0.00000000000E+00 0.  1.
</event>
<event>
12    1  0.8135779E-002  0.2851780E+03  0.7818608E-02  0.1093060E+00
         21   -1    0    0  501  502  0.00000000000E+00  0.00000000000E+00  0.11420295189E+03  0.11420295189E+03  0.00000000000E+00 0.  1.
         21   -1    0    0  502  503 -0.00000000000E+00 -0.00000000000E+00 -0.73084418961E+03  0.73084418961E+03  0.00000000000E+00 0. -1.
         -6    2    1    2    0  503  0.12232944126E+03 -0.19008795524E+03 -0.23597646160E+03  0.37015048263E+03  0.17386364321E+03 0.  0.
        -24    2    3    3    0    0  0.12624413811E+03 -0.19191897071E+03 -0.14960937477E+03  0.28354770463E+03  0.72428323577E+02 0.  0.
          6    2    1    2  501    0 -0.12232944126E+03  0.19008795524E+03 -0.38066477611E+03  0.47489665888E+03  0.17182328688E+03 0.  0.
         24    2    5    5    0    0 -0.15785183071E+03  0.16175154795E+03 -0.31180258964E+03  0.39225960390E+03  0.74605483833E+02 0.  0.
          5    1    5    5  501    0  0.35522389454E+02  0.28336407294E+02 -0.68862186472E+02  0.82637054984E+02  0.47000000000E+01 0. -1.
        -13    1    6    6    0    0 -0.53283952540E+02  0.26970600661E+02 -0.41849885547E+02  0.72924658509E+02  0.00000000000E+00 0.  1.
         14    1    6    6    0    0 -0.10456787817E+03  0.13478094729E+03 -0.26995270409E+03  0.31933494539E+03  0.00000000000E+00 0. -1.
         -5    1    3    3    0  503 -0.39146968462E+01  0.18310154695E+01 -0.86367086828E+02  0.86602777994E+02  0.47000000000E+01 0.  1.
         13    1    4    4    0    0  0.64370459672E+02 -0.15547590480E+03 -0.94201094921E+02  0.19284750280E+03  0.00000000000E+00 0. -1.
        -14    1    4    4    0    0  0.61873678434E+02 -0.36443065911E+02 -0.55408279853E+02  0.90700201831E+02  0.00000000000E+00 0.  1.
</event>
<event>
12    1  0.8135779E-002  0.2008435E+03  0.7818608E-02  0.1149102E+00
         21   -1    0    0  501  502  0.00000000000E+00  0.00000000000E+00  0.29261617721E+02  0.29261617721E+02  0.00000000000E+00 0. -1.
         21   -1    0    0  502  503 -0.00000000000E+00 -0.00000000000E+00 -0.15583596867E+04  0.15583596867E+04  0.00000000000E+00 0. -1.
         -6    2    1    2    0  503 -0.10225216919E+03  0.19783831343E+02 -0.10354013998E+04  0.10546349050E+04  0.17132372304E+03 0.  0.
        -24    2    3    3    0    0 -0.97381689644E+01  0.49205003235E+02 -0.35284669603E+03  0.36519494444E+03  0.79690603390E+02 0.  0.
          6    2    1    2  501    0  0.10225216919E+03 -0.19783831343E+02 -0.49369666917E+03  0.53298639940E+03  0.17173000526E+03 0.  0.
         24    2    5    5    0    0  0.98889881118E+02 -0.14649389151E+01 -0.49711577915E+03  0.51347570710E+03  0.82169637134E+02 0.  0.
          5    1    5    5  501    0  0.33622880699E+01 -0.18318892427E+02  0.34191099833E+01  0.19510692297E+02  0.47000000000E+01 0. -1.
        -13    1    6    6    0    0  0.69492915131E+02  0.31147417523E+02 -0.39573496236E+03  0.40299576587E+03  0.00000000000E+00 0.  1.
         14    1    6    6    0    0  0.29396965987E+02 -0.32612356438E+02 -0.10138081679E+03  0.11047994123E+03  0.00000000000E+00 0. -1.
         -5    1    3    3    0  503 -0.92514000223E+02 -0.29421171893E+02 -0.68255470376E+03  0.68943996056E+03  0.47000000000E+01 0.  1.
         11    1    4    4    0    0 -0.36084152059E+02  0.14996106091E+02 -0.25850572886E+03  0.26144246227E+03  0.00000000000E+00 0. -1.
        -12    1    4    4    0    0  0.26345983094E+02  0.34208897144E+02 -0.94340967171E+02  0.10375248217E+03  0.00000000000E+00 0.  1.
</event>
<event>
12    1  0.8135779E-002  0.1809197E+03  0.7818608E-02  0.1167535E+00
         21   -1    0    0  503  502  0.00000000000E+00  0.00000000000E+00  0.76550121309E+03  0.76550121309E+03  0.00000000000E+00 0. -1.
         21   -1    0    0  501  503 -0.00000000000E+00 -0.00000000000E+00 -0.73478968292E+02  0.73478968292E+02  0.00000000000E+00 0. -1.
          6    2    1    2  501    0 -0.40215448265E+02  0.31307489138E+02  0.73543641471E+02  0.19529623289E+03  0.17359294405E+03 0.  0.
         24    2    3    3    0    0  0.16361039142E+02  0.68279252911E+02  0.72516991061E+02  0.12753965199E+03  0.77960944432E+02 0.  0.
         -6    2    1    2    0  502  0.40215448265E+02 -0.31307489138E+02  0.61847860332E+03  0.64368394849E+03  0.17092630465E+03 0.  0.
        -24    2    5    5    0    0 -0.24385362076E+02 -0.19574416631E+02  0.50686054250E+03  0.51410149910E+03  0.80093309141E+02 0.  0.
          5    1    3    3  501    0 -0.56576487407E+02 -0.36971763773E+02  0.10266504102E+01  0.67756580897E+02  0.47000000000E+01 0. -1.
        -13    1    4    4    0    0  0.43653513880E+02  0.18618145321E+02  0.25306136617E+02  0.53783502673E+02  0.00000000000E+00 0.  1.
         14    1    4    4    0    0 -0.27292474739E+02  0.49661107590E+02  0.47210854444E+02  0.73756149315E+02  0.00000000000E+00 0. -1.
         -5    1    5    5    0  502  0.64600810342E+02 -0.11733072507E+02  0.11161806083E+03  0.12958244939E+03  0.47000000000E+01 0.  1.
         11    1    6    6    0    0 -0.58920732595E+01 -0.49062089795E+02  0.34658900637E+03  0.35009390814E+03  0.00000000000E+00 0. -1.
        -12    1    6    6    0    0 -0.18493288817E+02  0.29487673164E+02  0.16027153613E+03  0.16400759096E+03  0.00000000000E+00 0.  1.
</event>
<event>
12    1  0.8135779E-002  0.2141182E+03  0.7818608E-02  0.1138611E+00
         21   -1    0    0  501  502  0.00000000000E+00  0.00000000000E+00  0.94710452185E+03  0.94710452185E+03  0.00000000000E+00 0. -1.
         21   -1    0    0  502  503 -0.00000000000E+00 -0.00000000000E+00 -0.55873295583E+02  0.55873295583E+02  0.00000000000E+00 0. -1.
         -6    2    1    2    0  503  0.11328721846E+03 -0.55812090325E+02  0.63391524218E+03  0.66910023842E+03  0.17290925797E+03 0.  0.
        -24    2    3    3    0    0  0.21425537586E+02 -0.82173480511E+02  0.39239526001E+03  0.40931670720E+03  0.79715695787E+02 0.  0.
          6    2    1    2  501    0 -0.11328721846E+03  0.55812090325E+02  0.25731598408E+03  0.33387757901E+03  0.17121255447E+03 0.  0.
         24    2    5    5    0    0 -0.33274949842E+02  0.48743671962E+02  0.49637310919E+02  0.11115702101E+03  0.80055311141E+02 0.  0.
          5    1    5    5  501    0 -0.80012268616E+02  0.70684183630E+01  0.20767867317E+03  0.22272055800E+03  0.47000000000E+01 0. -1.
        -11    1    6    6    0    0 -0.13370231092E+02  0.29737397662E+02  0.69800205968E+02  0.77039890008E+02  0.00000000000E+00 0.  1.
         12    1    6    6    0    0 -0.19904718750E+02  0.19006274299E+02 -0.20162895050E+02  0.34117131005E+02  0.00000000000E+00 0. -1.
         -5    1    3    3    0  503  0.91861680872E+02  0.26361390186E+02  0.24151998217E+03  0.25978353122E+03  0.47000000000E+01 0.  1.
         11    1    4    4    0    0 -0.19478015810E+02 -0.28883301011E+01  0.14491961959E+03  0.14625126219E+03  0.00000000000E+00 0. -1.
        -12    1    4    4    0    0  0.40903553396E+02 -0.79285150410E+02  0.24747564042E+03  0.26306544501E+03  0.00000000000E+00 0.  1.
</event>
<event>
12    1  0.8135779E-002  0.2897202E+03  0.7818608E-02  0.1090584E+00
         21   -1    0    0  503  502  0.00000000000E+00  0.00000000000E+00  0.88980540873E+02  0.88980540873E+02  0.00000000000E+00 0.  1.
         21   -1    0    0  501  503 -0.00000000000E+00 -0.00000000000E+00 -0.94281940651E+03  0.94281940651E+03  0.00000000000E+00 0.  1.
          6    2    1    2  501    0 -0.18086250896E+03 -0.14677479346E+03 -0.44937971319E+03  0.53467739080E+03  0.17228957735E+03 0.  0.
         24    2    3    3    0    0 -0.10821986298E+03 -0.21421518473E+02 -0.26988563836E+03  0.30395979185E+03  0.85923670031E+02 0.  0.
         -6    2    1    2    0  502  0.18086250896E+03  0.14677479346E+03 -0.40445915245E+03  0.49712255658E+03  0.17114188010E+03 0.  0.
        -24    2    5    5    0    0  0.59954011490E+02  0.88383255806E+01 -0.16399438836E+03  0.19464821602E+03  0.85563830523E+02 0.  0.
          5    1    3    3  501    0 -0.72642645975E+02 -0.12535327499E+03 -0.17949407482E+03  0.23071759894E+03  0.47000000000E+01 0. -1.
        -13    1    4    4    0    0 -0.11010959589E+03 -0.39944373316E+02 -0.25310843535E+03  0.27889703496E+03  0.00000000000E+00 0.  1.
         14    1    4    4    0    0  0.18897329094E+01  0.18522854843E+02 -0.16777203019E+02  0.25062756894E+02  0.00000000000E+00 0. -1.
         -5    1    5    5    0  502  0.12090849747E+03  0.13793646788E+03 -0.24046476409E+03  0.30247434056E+03  0.47000000000E+01 0.  1.
         11    1    6    6    0    0 -0.15959129754E+02  0.80407033131E+01 -0.51552122011E+01  0.18599003874E+02  0.00000000000E+00 0. -1.
        -12    1    6    6    0    0  0.75913141244E+02  0.79762226746E+00 -0.15883917616E+03  0.17604921215E+03  0.00000000000E+00 0.  1.
</event>
<event>
12    1  0.8135779E-002  0.1932375E+03  0.7818608E-02  0.1156528E+00
         21   -1    0    0  501  502  0.00000000000E+00  0.00000000000E+00  0.17073895982E+03  0.17073895982E+03  0.00000000000E+00 0.  1.
         21   -1    0    0  502  503 -0.00000000000E+00 -0.00000000000E+00 -0.59391249873E+03  0.59391249873E+03  0.00000000000E+00 0.  1.
         -6    2    1    2    0  503  0.63858317881E+02  0.39060513928E+02 -0.51655655154E+03  0.55003292106E+03  0.17349909162E+03 0.  0.
        -24    2    3    3    0    0  0.39507408211E+02  0.60119676338E+02 -0.50357536658E+03  0.51500355786E+03  0.80407114062E+02 0.  0.
          6    2    1    2  501    0 -0.63858317881E+02 -0.39060513928E+02  0.93383012627E+02  0.21461853750E+03  0.17814915402E+03 0.  0.
         24    2    5    5    0    0 -0.95505794908E+02 -0.21156726447E+02  0.13804441870E+02  0.12700034685E+03  0.79809532955E+02 0.  0.
          5    1    5    5  501    0  0.31647477026E+02 -0.17903787481E+02  0.79578570757E+02  0.87618190646E+02  0.47000000000E+01 0. -1.
        -13    1    6    6    0    0 -0.52373603302E+02 -0.43121453060E+02 -0.16596841072E+02  0.69842030114E+02  0.00000000000E+00 0.  1.
         14    1    6    6    0    0 -0.43132191605E+02  0.21964726613E+02  0.30401282942E+02  0.57158316739E+02  0.00000000000E+00 0. -1.
         -5    1    3    3    0  503  0.24350909670E+02 -0.21059162410E+02 -0.12981184961E+02  0.35029363199E+02  0.47000000000E+01 0.  1.
         13    1    4    4    0    0  0.23322973789E+02  0.41751224671E+02 -0.10170145341E+03  0.11238465862E+03  0.00000000000E+00 0. -1.
        -14    1    4    4    0    0  0.16184434422E+02  0.18368451667E+02 -0.40187391317E+03  0.40261889923E+03  0.00000000000E+00 0.  1.
</event>
<event>
12    1  0.8135779E-002  0.2012354E+03  0.7818608E-02  0.1148892E+00
         21   -1    0    0  503  502  0.00000000000E+00  0.00000000000E+00  0.59098800535E+03  0.59098800535E+03  0.00000000000E+00 0. -1.
         21   -1    0    0  501  503 -0.00000000000E+00 -0.00000000000E+00 -0.95157451879E+02  0.95157451879E+02  0.00000000000E+00 0.  1.
          6    2    1    2  501    0  0.10327751826E+03 -0.13878414728E+02  0.65758993290E+02  0.21170719152E+03  0.17215351744E+03 0.  0.
         24    2    3    3    0    0  0.13948222520E+03  0.57272859401E+01  0.63825145364E+02  0.17022232594E+03  0.73579196219E+02 0.  0.
         -6    2    1    2    0  502 -0.10327751826E+03  0.13878414728E+02  0.43007156018E+03  0.47443826571E+03  0.17108847104E+03 0.  0.
        -24    2    5    5    0    0 -0.13345747832E+03 -0.85688888611E+01  0.38640516577E+03  0.41661478061E+03  0.79841085395E+02 0.  0.
          5    1    3    3  501    0 -0.36204706948E+02 -0.19605700668E+02  0.19338479262E+01  0.41484865573E+02  0.47000000000E+01 0. -1.
        -11    1    4    4    0    0  0.11881147999E+03 -0.12411478569E+02  0.24032608831E+02  0.12185146230E+03  0.00000000000E+00 0.  1.
         12    1    4    4    0    0  0.20670745214E+02  0.18138764509E+02  0.39792536533E+02  0.48370863641E+02  0.00000000000E+00 0. -1.
         -5    1    5    5    0  502  0.30179960067E+02  0.22447303589E+02  0.43666394414E+02  0.57823485101E+02  0.47000000000E+01 0.  1.
         11    1    6    6    0    0 -0.84961041371E+02  0.32985758303E+02  0.20679157060E+03  0.22598493859E+03  0.00000000000E+00 0. -1.
        -12    1    6    6    0    0 -0.48496436953E+02 -0.41554647164E+02  0.17961359517E+03  0.19062984202E+03  0.00000000000E+00 0.  1.
</event>
<event>
12    1  0.8135779E-002  0.2037696E+03  0.7818608E-02  0.1147897E+00
         21   -1    0    0  501  502  0.00000000000E+00  0.00000000000E+00  0.12249883929E+03  0.12249883929E+03  0.00000000000E+00 0.  1.
         21   -1    0    0  502  503 -0.00000000000E+00 -0.00000000000E+00 -0.45763664230E+03  0.45763664230E+03  0.00000000000E+00 0.  1.
         -6    2    1    2    0  503  0.10687755161E+03 -0.18960560651E+02 -0.32337926316E+03  0.38222532491E+03  0.17245213035E+03 0.  0.
        -24    2    3    3    0    0  0.13559635386E+03  0.27489511495E+01 -0.30100770144E+03  0.33957970053E+03  0.79465771078E+02 0.  0.
          6    2    1    2  501    0 -0.10687755161E+03  0.18960560651E+02 -0.11758539852E+02  0.19791015668E+03  0.16506923687E+03 0.  0.
         24    2    5    5    0    0  0.92941943615E+01  0.85980676740E+01  0.62428311407E+01  0.79802599003E+02  0.78544083484E+02 0.  0.
          5    1    5    5  501    0 -0.11617174597E+03  0.10362492977E+02 -0.18001370992E+02  0.11810755768E+03  0.47000000000E+01 0. -1.
        -13    1    6    6    0    0  0.58323893290E+00 -0.23486439571E+02  0.30607405755E+02  0.38584534446E+02  0.00000000000E+00 0.  1.
         14    1    6    6    0    0  0.87109554286E+01  0.32084507245E+02 -0.24364574614E+02  0.41218064556E+02  0.00000000000E+00 0. -1.
         -5    1    3    3    0  503 -0.28718802248E+02 -0.21709511800E+02 -0.22371561719E+02  0.42645624382E+02  0.47000000000E+01 0.  1.
         11    1    4    4    0    0  0.37596150535E+02  0.15363239740E+02 -0.28240361068E+02  0.49467339363E+02  0.00000000000E+00 0. -1.
        -12    1    4    4    0    0  0.98000203326E+02 -0.12614288591E+02 -0.27276734037E+03  0.29011236116E+03  0.00000000000E+00 0.  1.
</event>
<event>
12    1  0.8135779E-002  0.4126214E+03  0.7818608E-02  0.1039743E+00
         21   -1    0    0  501  502  0.00000000000E+00  0.00000000000E+00  0.13670444357E+04  0.13670444357E+04  0.00000000000E+00 0.  1.
         21   -1    0    0  502  503 -0.00000000000E+00 -0.00000000000E+00 -0.15689820153E+03  0.15689820153E+03  0.00000000000E+00 0. -1.
         -6    2    1    2    0  503  0.32514132077E+03 -0.18751124935E+03  0.25258030043E+03  0.48125910288E+03  0.16412242026E+03 0.  0.
        -24    2    3    3    0    0  0.30007838353E+03 -0.21063696667E+03  0.22770342674E+03  0.43878677696E+03  0.79183439520E+02 0.  0.
          6    2    1    2  501    0 -0.32514132077E+03  0.18751124935E+03  0.95756593373E+03  0.10426835343E+04  0.17140329124E+03 0.  0.
         24    2    5    5    0    0 -0.32447452007E+03  0.18711922294E+03  0.82125741888E+03  0.90629182078E+03  0.81263759355E+02 0.  0.
          5    1    5    5  501    0 -0.66680070003E+00  0.39202641176E+00  0.13630851485E+03  0.13639171356E+03  0.47000000000E+01 0. -1.
        -13    1    6    6    0    0 -0.18745200239E+03  0.64484062109E+02  0.39080627965E+03  0.43820770837E+03  0.00000000000E+00 0.  1.
         14    1    6    6    0    0 -0.13702251768E+03  0.12263516083E+03  0.43045113923E+03  0.46808411241E+03  0.00000000000E+00 0. -1.
         -5    1    3    3    0  503  0.25062937237E+02  0.23125717318E+02  0.24876873687E+02  0.42472325917E+02  0.47000000000E+01 0.  1.
         11    1    4    4    0    0  0.23634264543E+03 -0.12483980254E+03  0.17624303661E+03  0.32016313077E+03  0.00000000000E+00 0. -1.
        -12    1    4    4    0    0  0.63735738098E+02 -0.85797164130E+02  0.51460390128E+02  0.11862364619E+03  0.00000000000E+00 0.  1.
</event>
<event>
12    1  0.8135779E-002  0.1805693E+03  0.7818608E-02  0.1167255E+00
         21   -1    0    0  503  502  0.00000000000E+00  0.00000000000E+00  0.22293883555E+03  0.22293883555E+03  0.00000000000E+00 0. -1.
         21   -1    0    0  501  503 -0.00000000000E+00 -0.00000000000E+00 -0.15117232466E+03  0.15117232466E+03  0.00000000000E+00 0. -1.
          6    2    1    2  501    0  0.34815965461E+02  0.43477529739E+02  0.21126908584E+01  0.18057325727E+03  0.17175503117E+03 0.  0.
         24    2    3    3    0    0  0.38111696226E+02  0.21151891757E+01  0.61802587114E+02  0.10772630281E+03  0.79551374151E+02 0.  0.
         -6    2    1    2    0  502 -0.34815965461E+02 -0.43477529739E+02  0.69653820027E+02  0.19353790295E+03  0.17176384424E+03 0.  0.
        -24    2    5    5    0    0  0.51468539965E+01 -0.90914938083E+02  0.43859581901E+02  0.12619722156E+03  0.75564937183E+02 0.  0.
          5    1    3    3  501    0 -0.32957307648E+01  0.41362340564E+02 -0.59689896255E+02  0.72846954453E+02  0.47000000000E+01 0. -1.
        -13    1    4    4    0    0  0.46084624046E+02 -0.22810621829E+02  0.14103862981E+02  0.53320127463E+02  0.00000000000E+00 0.  1.
         14    1    4    4    0    0 -0.79729278203E+01  0.24925811005E+02  0.47698724133E+02  0.54406175350E+02  0.00000000000E+00 0. -1.
         -5    1    5    5    0  502 -0.39962819458E+02  0.47437408343E+02  0.25794238127E+02  0.67340681389E+02  0.47000000000E+01 0.  1.
         11    1    6    6    0    0 -0.18884706931E+02 -0.42432894462E+02 -0.12467611314E+02  0.48089749637E+02  0.00000000000E+00 0. -1.
        -12    1    6    6    0    0  0.24031560928E+02 -0.48482043621E+02  0.56327193215E+02  0.78107471920E+02  0.00000000000E+00 0.  1.
</event>
<event>
12    1  0.8135779E-002  0.2059600E+03  0.7818608E-02  0.1145220E+00
         21   -1    0    0  503  502  0.00000000000E+00  0.00000000000E+00  0.44858523870E+03  0.44858523870E+03  0.00000000000E+00 0.  1.
         21   -1    0    0  501  503 -0.00000000000E+00 -0.00000000000E+00 -0.93711798882E+02  0.93711798882E+02  0.00000000000E+00 0.  1.
          6    2    1    2  501    0 -0.30259584894E+02 -0.10973893031E+03  0.18610701068E+03  0.27758843341E+03  0.17164277915E+03 0.  0.
         24    2    3    3    0    0  0.85796402964E+01  0.10790256875E+02  0.63180512517E+02  0.10104160017E+03  0.77637542024E+02 0.  0.
         -6    2    1    2    0  502  0.30259584894E+02  0.10973893031E+03  0.16876642914E+03  0.26470860417E+03  0.16920479371E+03 0.  0.
        -24    2    5    5    0    0  0.65387364116E+02  0.11718523211E+03  0.16686863933E+03  0.22844429817E+03  0.79584977008E+02 0.  0.
          5    1    3    3  501    0 -0.38839225190E+02 -0.12052918719E+03  0.12292649816E+03  0.17654683324E+03  0.47000000000E+01 0. -1.
        -11    1    4    4    0    0  0.16457534647E+02 -0.22870333163E+02 -0.94401536618E+00  0.28192086667E+02  0.00000000000E+00 0.  1.
         12    1    4    4    0    0 -0.78778943504E+01  0.33660590038E+02  0.64124527883E+02  0.72849513501E+02  0.00000000000E+00 0. -1.
         -5    1    5    5    0  502 -0.35127779223E+02 -0.74463017974E+01  0.18977898095E+01  0.36264306001E+02  0.47000000000E+01 0.  1.
         13    1    6    6    0    0 -0.13197315894E+02  0.36740257707E+01  0.34753152491E+02  0.37355712016E+02  0.00000000000E+00 0. -1.
        -14    1    6    6    0    0  0.78584680010E+02  0.11351120634E+03  0.13211548684E+03  0.19108858616E+03  0.00000000000E+00 0.  1.
</event>
<event>
12    1  0.8135779E-002  0.2257211E+03  0.7818608E-02  0.1130549E+00
         21   -1    0    0  503  502  0.00000000000E+00  0.00000000000E+00  0.80204590460E+02  0.80204590460E+02  0.00000000000E+00 0. -1.
         21   -1    0    0  501  503 -0.00000000000E+00 -0.00000000000E+00 -0.76468447117E+03  0.76468447117E+03  0.00000000000E+00 0.  1.
          6    2    1    2  501    0  0.10562810177E+03  0.91139053417E+02 -0.15685095622E+03  0.27100553429E+03  0.17140056654E+03 0.  0.
         24    2    3    3    0    0  0.82515562796E+02  0.12729686325E+03 -0.97239555590E+02  0.19740400065E+03  0.80619469142E+02 0.  0.
         -6    2    1    2    0  502 -0.10562810177E+03 -0.91139053417E+02 -0.52762892449E+03  0.57388352733E+03  0.17744407020E+03 0.  0.
        -24    2    5    5    0    0 -0.70298847241E+01 -0.59647169249E+02 -0.13253018454E+03  0.16542489849E+03  0.78701608282E+02 0.  0.
          5    1    3    3  501    0  0.23112538977E+02 -0.36157809831E+02 -0.59611400631E+02  0.73601533645E+02  0.47000000000E+01 0. -1.
        -11    1    4    4    0    0 -0.24619967454E+01  0.62795937166E+02 -0.51819709085E+02  0.81453504542E+02  0.00000000000E+00 0.  1.
         12    1    4    4    0    0  0.84977559541E+02  0.64500926082E+02 -0.45419846505E+02  0.11595049611E+03  0.00000000000E+00 0. -1.
         -5    1    5    5    0  502 -0.98598217048E+02 -0.31491884168E+02 -0.39509873994E+03  0.40845862885E+03  0.47000000000E+01 0.  1.
         13    1    6    6    0    0 -0.31102465470E+02 -0.65350933434E+02 -0.11163073771E+03  0.13303957855E+03  0.00000000000E+00 0. -1.
        -14    1    6    6    0    0  0.24072580745E+02  0.57037641846E+01 -0.20899446834E+02  0.32385319940E+02  0.00000000000E+00 0.  1.
</event>
<event>
12    1  0.8135779E-002  0.1858603E+03  0.7818608E-02  0.1162396E+00
         21   -1    0    0  503  502  0.00000000000E+00  0.00000000000E+00  0.52141039841E+03  0.52141039841E+03  0.00000000000E+00 0.  1.
         21   -1    0    0  501  503 -0.00000000000E+00 -0.00000000000E+00 -0.89175117258E+02  0.89175117258E+02  0.00000000000E+00 0.  1.
          6    2    1    2  501    0 -0.27328032508E+02 -0.63479717551E+02  0.60843512038E+02  0.19556579639E+03  0.17253275590E+03 0.  0.
         24    2    3    3    0    0 -0.73140158420E+02 -0.79187623427E+02  0.63742826671E+02  0.14682171764E+03  0.76637499581E+02 0.  0.
         -6    2    1    2    0  502  0.27328032508E+02  0.63479717551E+02  0.37139176911E+03  0.41501971927E+03  0.17185175391E+03 0.  0.
        -24    2    5    5    0    0  0.61056004169E+00 -0.30908276936E+02  0.50735779834E+02  0.79661298630E+02  0.53067021561E+02 0.  0.
          5    1    3    3  501    0  0.45812125912E+02  0.15707905876E+02 -0.28993146329E+01  0.48744078747E+02  0.47000000000E+01 0. -1.
        -11    1    4    4    0    0 -0.52694337221E+02 -0.82739000398E+02  0.22483674782E+02  0.10063772153E+03  0.00000000000E+00 0.  1.
         12    1    4    4    0    0 -0.20445821199E+02  0.35513769706E+01  0.41259151889E+02  0.46183996119E+02  0.00000000000E+00 0. -1.
         -5    1    5    5    0  502  0.26717472467E+02  0.94387994487E+02  0.32065598928E+03  0.33535842064E+03  0.47000000000E+01 0.  1.
         11    1    6    6    0    0  0.17527668891E+02 -0.29556256475E+02  0.10402040176E+02  0.35902561377E+02  0.00000000000E+00 0. -1.
        -12    1    6    6    0    0 -0.16917108850E+02 -0.13520204603E+01  0.40333739659E+02  0.43758737253E+02  0.00000000000E+00 0.  1.
</event>
<event>
12    1  0.8135779E-002  0.2176968E+03  0.7818608E-02  0.1136482E+00
         21   -1    0    0  501  502  0.00000000000E+00  0.00000000000E+00  0.52254218816E+02  0.52254218816E+02  0.00000000000E+00 0. -1.
         21   -1    0    0  502  503 -0.00000000000E+00 -0.00000000000E+00 -0.98457789009E+03  0.98457789009E+03  0.00000000000E+00 0. -1.
         -6    2    1    2    0  503 -0.10132148106E+03 -0.75488652897E+02 -0.62400521718E+03  0.65940377270E+03  0.17165734807E+03 0.  0.
        -24    2    3    3    0    0 -0.89596590378E+02 -0.51597562303E+02 -0.22872123061E+03  0.26319703713E+03  0.79179679087E+02 0.  0.
          6    2    1    2  501    0  0.10132148106E+03  0.75488652897E+02 -0.30831845409E+03  0.37742833620E+03  0.17727746782E+03 0.  0.
         24    2    5    5    0    0  0.97539963835E+02  0.44482473339E+02 -0.31765777611E+03  0.34448905905E+03  0.79205518145E+02 0.  0.
          5    1    5    5  501    0  0.37815172208E+01  0.31006179558E+02  0.93393220205E+01  0.32939277149E+02  0.47000000000E+01 0. -1.
        -13    1    6    6    0    0  0.44812068397E+02  0.22070353459E+02 -0.25391620392E+03  0.25878303768E+03  0.00000000000E+00 0.  1.
         14    1    6    6    0    0  0.52727895438E+02  0.22412119880E+02 -0.63741572188E+02  0.85706021375E+02  0.00000000000E+00 0. -1.
         -5    1    3    3    0  503 -0.11724890678E+02 -0.23891090594E+02 -0.39528398657E+03  0.39620673557E+03  0.47000000000E+01 0.  1.
         13    1    4    4    0    0 -0.51434436120E+02 -0.48484747097E+02 -0.20795437355E+03  0.21963900701E+03  0.00000000000E+00 0. -1.
        -14    1    4    4    0    0 -0.38162154259E+02 -0.31128152065E+01 -0.20766857056E+02  0.43558030123E+02  0.00000000000E+00 0.  1.
</event>
<event>
12    1  0.8135779E-002  0.2264529E+03  0.7818608E-02  0.1129545E+00
         21   -1    0    0  501  502  0.00000000000E+00  0.00000000000E+00  0.17652874614E+03  0.17652874614E+03  0.00000000000E+00 0. -1.
         21   -1    0    0  502  503 -0.00000000000E+00 -0.00000000000E+00 -0.42353656299E+03  0.42353656299E+03  0.00000000000E+00 0. -1.
         -6    2    1    2    0  503 -0.12094543817E+03 -0.78651791519E+02 -0.29297567398E+03  0.36899396566E+03  0.17177863030E+03 0.  0.
        -24    2    3    3    0    0 -0.13277758897E+03 -0.86678480732E+02 -0.17510201052E+03  0.25016333800E+03  0.82328211665E+02 0.  0.
          6    2    1    2  501    0  0.12094543817E+03  0.78651791519E+02  0.45967857131E+02  0.23107134347E+03  0.17454804084E+03 0.  0.
         24    2    5    5    0    0  0.11581019208E+03 -0.44755996470E+01  0.14750108428E+02  0.14200298911E+03  0.80717108691E+02 0.  0.
          5    1    5    5  501    0  0.51352460885E+01  0.83127391166E+02  0.31217748703E+02  0.89068354360E+02  0.47000000000E+01 0. -1.
        -13    1    6    6    0    0  0.85914192705E+02 -0.22178896284E+01  0.47012252104E+02  0.97960805378E+02  0.00000000000E+00 0.  1.
         14    1    6    6    0    0  0.29895999372E+02 -0.22577100186E+01 -0.32262143675E+02  0.44042183728E+02  0.00000000000E+00 0. -1.
         -5    1    3    3    0  503  0.11832150803E+02  0.80266892129E+01 -0.11787366347E+03  0.11883062767E+03  0.47000000000E+01 0.  1.
         11    1    4    4    0    0 -0.77031694068E+02 -0.18642619453E+02 -0.12756856841E+03  0.15018378340E+03  0.00000000000E+00 0. -1.
        -12    1    4    4    0    0 -0.55745894900E+02 -0.68035861279E+02 -0.47533442108E+02  0.99979554594E+02  0.00000000000E+00 0.  1.
</event>
<event>
12    1  0.8135779E-002  0.2215559E+03  0.7818608E-02  0.1133029E+00
         21   -1    0    0  503  502  0.00000000000E+00  0.00000000000E+00  0.16132756212E+03  0.16132756212E+03  0.00000000000E+00 0. -1.
         21   -1    0    0  501  503 -0.00000000000E+00 -0.00000000000E+00 -0.31400859707E+03  0.31400859707E+03  0.00000000000E+00 0.  1.
          6    2    1    2  501    0  0.62255329788E+02 -0.12391479161E+03 -0.12245502756E+03  0.25172794175E+03  0.17070770696E+03 0.  0.
         24    2    3    3    0    0  0.95153366551E+02 -0.48702280158E+02 -0.96407444721E+02  0.16547384461E+03  0.81615700649E+02 0.  0.
         -6    2    1    2    0  502 -0.62255329788E+02  0.12391479161E+03 -0.30226007388E+02  0.22360821744E+03  0.17279010885E+03 0.  0.
        -24    2    5    5    0    0  0.76789610574E+01  0.12875626750E+03 -0.18742864432E+02  0.15241694342E+03  0.79009409626E+02 0.  0.
          5    1    3    3  501    0 -0.32898036763E+02 -0.75212511453E+02 -0.26047582842E+02  0.86254097142E+02  0.47000000000E+01 0. -1.
        -11    1    4    4    0    0 -0.42530712773E+01  0.13165883151E+02 -0.49971637488E-01  0.13835880586E+02  0.00000000000E+00 0.  1.
         12    1    4    4    0    0  0.99406437829E+02 -0.61868163309E+02 -0.96357473084E+02  0.15163796402E+03  0.00000000000E+00 0. -1.
         -5    1    5    5    0  502 -0.69934290846E+02 -0.48414758930E+01 -0.11483142957E+02  0.71191274024E+02  0.47000000000E+01 0.  1.
         11    1    6    6    0    0  0.36913100916E+02  0.28235289977E+02 -0.32014599379E+01  0.46583880957E+02  0.00000000000E+00 0. -1.
        -12    1    6    6    0    0 -0.29234139858E+02  0.10052097753E+03 -0.15541404494E+02  0.10583306246E+03  0.00000000000E+00 0.  1.
</event>
<event>
12    1  0.8135779E-002  0.1828373E+03  0.7818608E-02  0.1165703E+00
         21   -1    0    0  503  502  0.00000000000E+00  0.00000000000E+00  0.33090084804E+03  0.33090084804E+03  0.00000000000E+00 0. -1.
         21   -1    0    0  501  503 -0.00000000000E+00 -0.00000000000E+00 -0.16684402390E+03  0.16684402390E+03  0.00000000000E+00 0. -1.
          6    2    1    2  501    0 -0.57156354938E+02 -0.14361410702E+02 -0.75614792084E+02  0.19785621908E+03  0.17307913687E+03 0.  0.
         24    2    3    3    0    0 -0.56942401856E+01 -0.33656149575E+02  0.18608812528E+02  0.88673739401E+02  0.79696821643E+02 0.  0.
         -6    2    1    2    0  502  0.57156354938E+02  0.14361410702E+02  0.23967161623E+03  0.29988865286E+03  0.17034559420E+03 0.  0.
        -24    2    5    5    0    0  0.10302863826E+03  0.24665396582E+02  0.17933162518E+03  0.22325026156E+03  0.80358978385E+02 0.  0.
          5    1    3    3  501    0 -0.51462114753E+02  0.19294738873E+02 -0.94223604612E+02  0.10918247968E+03  0.47000000000E+01 0. -1.
        -11    1    4    4    0    0  0.26684371352E+02 -0.32428406054E+02 -0.12437394607E+02  0.43798926680E+02  0.00000000000E+00 0.  1.
         12    1    4    4    0    0 -0.32378611538E+02 -0.12277435209E+01  0.31046207135E+02  0.44874812721E+02  0.00000000000E+00 0. -1.
         -5    1    5    5    0  502 -0.45872283320E+02 -0.10303985880E+02  0.60339991043E+02  0.76638391300E+02  0.47000000000E+01 0.  1.
         13    1    6    6    0    0  0.75727251283E+02  0.43536322274E+02  0.79735449519E+02  0.11826990257E+03  0.00000000000E+00 0. -1.
        -14    1    6    6    0    0  0.27301386975E+02 -0.18870925692E+02  0.99596175663E+02  0.10498035899E+03  0.00000000000E+00 0.  1.
</event>
<event>
12    1  0.8135779E-002  0.1945308E+03  0.7818608E-02  0.1154680E+00
         21   -1    0    0  501  502  0.00000000000E+00  0.00000000000E+00  0.87932882904E+03  0.87932882904E+03  0.00000000000E+00 0.  1.
         21   -1    0    0  502  503 -0.00000000000E+00 -0.00000000000E+00 -0.56345224666E+02  0.56345224666E+02  0.00000000000E+00 0. -1.
         -6    2    1    2    0  503 -0.80178073607E+02  0.39765399455E+02  0.18114285839E+03  0.26500141088E+03  0.17147361937E+03 0.  0.
        -24    2    3    3    0    0  0.21180274257E+02  0.17879461928E+01  0.62502363044E+02  0.10433573696E+03  0.80793563188E+02 0.  0.
          6    2    1    2  501    0  0.80178073607E+02 -0.39765399455E+02  0.64184074598E+03  0.67067264283E+03  0.17272069984E+03 0.  0.
         24    2    5    5    0    0  0.10241624387E+03 -0.76374342848E+02  0.47931116149E+03  0.50252774464E+03  0.80453821196E+02 0.  0.
          5    1    5    5  501    0 -0.22238170264E+02  0.36608943393E+02  0.16252958449E+03  0.16814489819E+03  0.47000000000E+01 0. -1.
        -11    1    6    6    0    0  0.90068766273E+02 -0.34756739781E+02  0.40606572653E+03  0.41738446052E+03  0.00000000000E+00 0.  1.
         12    1    6    6    0    0  0.12347477598E+02 -0.41617603067E+02  0.73245434962E+02  0.85143284120E+02  0.00000000000E+00 0. -1.
         -5    1    3    3    0  503 -0.10135834786E+03  0.37977453262E+02  0.11864049535E+03  0.16066567391E+03  0.47000000000E+01 0.  1.
         13    1    4    4    0    0  0.11344538565E+02  0.26106776927E+02  0.71215808443E+02  0.76693896295E+02  0.00000000000E+00 0. -1.
        -14    1    4    4    0    0  0.98357356918E+01 -0.24318830734E+02 -0.87134453988E+01  0.27641840669E+02  0.00000000000E+00 0.  1.
</event>
<event>
12    1  0.8135779E-002  0.1768282E+03  0.7818608E-02  0.1171253E+00
         21   -1    0    0  501  502  0.00000000000E+00  0.00000000000E+00  0.13546512068E+03  0.13546512068E+03  0.00000000000E+00 0. -1.
         21   -1    0    0  502  503 -0.00000000000E+00 -0.00000000000E+00 -0.23920034709E+03  0.23920034709E+03  0.00000000000E+00 0. -1.
         -6    2    1    2    0  503  0.16022902871E+02  0.37407521589E+02 -0.90329438441E+02  0.19732982943E+03  0.17065637418E+03 0.  0.
        -24    2    3    3    0    0  0.29332588067E+02  0.21011896134E+02  0.13245589303E+02  0.91519430009E+02  0.83056967988E+02 0.  0.
          6    2    1    2  501    0 -0.16022902871E+02 -0.37407521589E+02 -0.13405787966E+02  0.17733563833E+03  0.17208183339E+03 0.  0.
         24    2    5    5    0    0 -0.74942569275E+02 -0.27991230725E+02 -0.38034410663E+02  0.11261429194E+03  0.69537505476E+02 0.  0.
          5    1    5    5  501    0  0.58919666404E+02 -0.94162908641E+01  0.24628622696E+02  0.64721346391E+02  0.47000000000E+01 0. -1.
        -13    1    6    6    0    0 -0.43722143886E+02 -0.48891771729E+02 -0.36388488557E+02  0.75007688328E+02  0.00000000000E+00 0.  1.
         14    1    6    6    0    0 -0.31220425389E+02  0.20900541004E+02 -0.16459221055E+01  0.37606603613E+02  0.00000000000E+00 0. -1.
         -5    1    3    3    0  503 -0.13309685196E+02  0.16395625456E+02 -0.10357502774E+03  0.10581039942E+03  0.47000000000E+01 0.  1.
         13    1    4    4    0    0  0.13202544834E+02  0.44151821074E+02 -0.17955761421E+02  0.49458061653E+02  0.00000000000E+00 0. -1.
        -14    1    4    4    0    0  0.16130043233E+02 -0.23139924941E+02  0.31201350724E+02  0.42061368356E+02  0.00000000000E+00 0.  1.
</event>
<event>
12    1  0.8135779E-002  0.2601960E+03  0.7818608E-02  0.1107110E+00
         21   -1    0    0  503  502  0.00000000000E+00  0.00000000000E+00  0.11672387628E+03  0.11672387628E+03  0.00000000000E+00 0. -1.
         21   -1    0    0  501  503 -0.00000000000E+00 -0.00000000000E+00 -0.74996040207E+03  0.74996040207E+03  0.00000000000E+00 0. -1.
          6    2    1    2  501    0 -0.98663448564E+02  0.16652882170E+03 -0.10930929083E+03  0.28170419198E+03  0.17303874185E+03 0.  0.
         24    2    3    3    0    0 -0.88888892478E+02  0.19494849725E+03 -0.97591297611E+02  0.24910631981E+03  0.81386395776E+02 0.  0.
         -6    2    1    2    0  502  0.98663448564E+02 -0.16652882170E+03 -0.52392723496E+03  0.58498008636E+03  0.17388395374E+03 0.  0.
        -24    2    5    5    0    0  0.57986570199E+02 -0.18775540481E+03 -0.45972598374E+03  0.50592904638E+03  0.77470545932E+02 0.  0.
          5    1    3    3  501    0 -0.97745560861E+01 -0.28419675547E+02 -0.11717993220E+02  0.32597872170E+02  0.47000000000E+01 0. -1.
        -11    1    4    4    0    0 -0.67160944936E+02  0.12005952482E+03 -0.10161114627E+03  0.17102545738E+03  0.00000000000E+00 0.  1.
         12    1    4    4    0    0 -0.21727947543E+02  0.74888972423E+02  0.40198486623E+01  0.78080862433E+02  0.00000000000E+00 0. -1.
         -5    1    5    5    0  502  0.40676878365E+02  0.21226583109E+02 -0.64201251220E+02  0.79051039982E+02  0.47000000000E+01 0.  1.
         13    1    6    6    0    0  0.71750660794E+01 -0.76138179340E+02 -0.26489365891E+03  0.27571208616E+03  0.00000000000E+00 0. -1.
        -14    1    6    6    0    0  0.50811504120E+02 -0.11161722547E+03 -0.19483232483E+03  0.23021696021E+03  0.00000000000E+00 0.  1.
</event>
<event>
12    1  0.8135779E-002  0.1768912E+03  0.7818608E-02  0.1171005E+00
         21   -1    0    0  503  502  0.00000000000E+00  0.00000000000E+00  0.17493244559E+03  0.17493244559E+03  0.00000000000E+00 0.  1.
         21   -1    0    0  501  503 -0.00000000000E+00 -0.00000000000E+00 -0.27256797117E+03  0.27256797117E+03  0.00000000000E+00 0.  1.
          6    2    1    2  501    0  0.10153184578E+02  0.35174079273E+02 -0.18051384478E+03  0.25273650649E+03  0.17306123352E+03 0.  0.
         24    2    3    3    0    0 -0.41475893036E+02  0.52641375564E+01 -0.17016350313E+03  0.19199619170E+03  0.78479035299E+02 0.  0.
         -6    2    1    2    0  502 -0.10153184578E+02 -0.35174079273E+02  0.82878319191E+02  0.19476391027E+03  0.17240609601E+03 0.  0.
        -24    2    5    5    0    0  0.21640571357E+02 -0.61671200547E+02  0.34147298219E+01  0.10504494690E+03  0.82165255333E+02 0.  0.
          5    1    3    3  501    0  0.51629077615E+02  0.29909941716E+02 -0.10350341647E+02  0.60740314792E+02  0.47000000000E+01 0. -1.
        -11    1    4    4    0    0  0.42466699503E+01  0.25039921886E+02 -0.11455827487E+03  0.11733980669E+03  0.00000000000E+00 0.  1.
         12    1    4    4    0    0 -0.45722562987E+02 -0.19775784330E+02 -0.55605228259E+02  0.74656385003E+02  0.00000000000E+00 0. -1.
         -5    1    5    5    0  502 -0.31793755936E+02  0.26497121274E+02  0.79463589369E+02  0.89718963368E+02  0.47000000000E+01 0.  1.
         11    1    6    6    0    0  0.21368356500E+02 -0.17158930298E+01 -0.29640849749E+02  0.36580471870E+02  0.00000000000E+00 0. -1.
        -12    1    6    6    0    0  0.27221485727E+00 -0.59955307518E+02  0.33055579571E+02  0.68464475031E+02  0.00000000000E+00 0.  1.
</event>
<event>
12    1  0.8135779E-002  0.2060185E+03  0.7818608E-02  0.1145235E+00
         21   -1    0    0  501  502  0.00000000000E+00  0.00000000000E+00  0.31787056420E+02  0.31787056420E+02  0.00000000000E+00 0.  1.
         21   -1    0    0  502  503 -0.00000000000E+00 -0.00000000000E+00 -0.18695545154E+04  0.18695545154E+04  0.00000000000E+00 0.  1.
         -6    2    1    2    0  503  0.11004885356E+03 -0.13075326407E+02 -0.14305305509E+04  0.14449584778E+04  0.17089655089E+03 0.  0.
        -24    2    3    3    0    0  0.13459898541E+03 -0.91975694181E+01 -0.13753877440E+04  0.13842908165E+04  0.79800602360E+02 0.  0.
          6    2    1    2  501    0 -0.11004885356E+03  0.13075326407E+02 -0.40723690801E+03  0.45638309397E+03  0.17367185981E+03 0.  0.
         24    2    5    5    0    0 -0.54004205811E+02  0.80872559434E+01 -0.87300370683E+02  0.13150256008E+03  0.81790651248E+02 0.  0.
          5    1    5    5  501    0 -0.56044647752E+02  0.49880704636E+01 -0.31993653733E+03  0.32488053390E+03  0.47000000000E+01 0. -1.
        -11    1    6    6    0    0 -0.22368479787E+01  0.37093706642E+02 -0.46333960141E+02  0.59395138048E+02  0.00000000000E+00 0.  1.
         12    1    6    6    0    0 -0.51767357832E+02 -0.29006450699E+02 -0.40966410541E+02  0.72107422030E+02  0.00000000000E+00 0. -1.
         -5    1    3    3    0  503 -0.24550131847E+02 -0.38777569889E+01 -0.55142806987E+02  0.60667661364E+02  0.47000000000E+01 0.  1.
         13    1    4    4    0    0  0.12940383192E+02  0.18997833231E+02 -0.44044910746E+03  0.44104850918E+03  0.00000000000E+00 0. -1.
        -14    1    4    4    0    0  0.12165860222E+03 -0.28195402649E+02 -0.93493863650E+03  0.94324230728E+03  0.00000000000E+00 0.  1.
</event>
<event>
12    1  0.8135779E-002  0.1918384E+03  0.7818608E-02  0.1157931E+00
         21   -1    0    0  503  502  0.00000000000E+00  0.00000000000E+00  0.57760659967E+02  0.57760659967E+02  0.00000000000E+00 0.  1.
         21   -1    0    0  501  503 -0.00000000000E+00 -0.00000000000E+00 -0.90081701310E+03  0.90081701310E+03  0.00000000000E+00 0.  1.
          6    2    1    2  501    0  0.56769147564E+02 -0.43973809202E+02 -0.69252124932E+03  0.71860118498E+03  0.17789196238E+03 0.  0.
         24    2    3    3    0    0 -0.21495250379E+01  0.10072566540E+02 -0.53897886259E+03  0.54542562309E+03  0.82974809132E+02 0.  0.
         -6    2    1    2    0  502 -0.56769147564E+02  0.43973809202E+02 -0.15053510381E+03  0.23997648809E+03  0.17254409681E+03 0.  0.
        -24    2    5    5    0    0 -0.31875557249E+02  0.70228619114E+02 -0.16674523635E+03  0.20005325827E+03  0.79178420096E+02 0.  0.
          5    1    3    3  501    0  0.58918672602E+02 -0.54046375741E+02 -0.15354238673E+03  0.17317556189E+03  0.47000000000E+01 0. -1.
        -11    1    4    4    0    0 -0.34777183635E+02 -0.19052593123E+02 -0.23655935422E+03  0.23985992136E+03  0.00000000000E+00 0.  1.
         12    1    4    4    0    0  0.32627658597E+02  0.29125159663E+02 -0.30241950837E+03  0.30556570173E+03  0.00000000000E+00 0. -1.
         -5    1    5    5    0  502 -0.24893590315E+02 -0.26254809912E+02  0.16210132533E+02  0.39923229817E+02  0.47000000000E+01 0.  1.
         13    1    6    6    0    0  0.16555130809E+02  0.16887563588E+02 -0.96769255750E+02  0.99617021730E+02  0.00000000000E+00 0. -1.
        -14    1    6    6    0    0 -0.48430688058E+02  0.53341055526E+02 -0.69975980597E+02  0.10043623654E+03  0.00000000000E+00 0.  1.
</event>
<event>
12    1  0.8135779E-002  0.1770534E+03  0.7818608E-02  0.1171295E+00
         21   -1    0    0  501  502  0.00000000000E+00  0.00000000000E+00  0.24914967074E+02  0.24914967074E+02  0.00000000000E+00 0.  1.
         21   -1    0    0  502  503 -0.00000000000E+00 -0.00000000000E+00 -0.12668714536E+04  0.12668714536E+04  0.00000000000E+00 0.  1.
         -6    2    1    2    0  503 -0.32370744347E+02 -0.11525725940E+02 -0.53266892976E+03  0.56132351657E+03  0.17368705788E+03 0.  0.
        -24    2    3    3    0    0 -0.13687937141E+02  0.42914620761E+02 -0.45690997058E+03  0.46606435149E+03  0.80126364104E+02 0.  0.
          6    2    1    2  501    0  0.32370744347E+02  0.11525725940E+02 -0.70928755674E+03  0.73046290408E+03  0.17119143858E+03 0.  0.
         24    2    5    5    0    0  0.78174998549E+02 -0.93543311574E+01 -0.59691294292E+03  0.60723891973E+03  0.78963347840E+02 0.  0.
          5    1    5    5  501    0 -0.45804254202E+02  0.20880057098E+02 -0.11237461382E+03  0.12322398434E+03  0.47000000000E+01 0. -1.
        -13    1    6    6    0    0  0.93842561592E+02 -0.10866281708E+02 -0.47401297514E+03  0.48333508361E+03  0.00000000000E+00 0.  1.
         14    1    6    6    0    0 -0.15667563042E+02  0.15119505510E+01 -0.12289996778E+03  0.12390383613E+03  0.00000000000E+00 0. -1.
         -5    1    3    3    0  503 -0.18682807206E+02 -0.54440346701E+02 -0.75758959189E+02  0.95259165078E+02  0.47000000000E+01 0.  1.
         11    1    4    4    0    0 -0.20695996344E+02  0.33975238311E+02 -0.83613811578E+02  0.92595413329E+02  0.00000000000E+00 0. -1.
        -12    1    4    4    0    0  0.70080592026E+01  0.89393824501E+01 -0.37329615900E+03  0.37346893817E+03  0.00000000000E+00 0.  1.
</event>
<event>
12    1  0.8135779E-002  0.3105020E+03  0.7818608E-02  0.1080174E+00
         21   -1    0    0  503  502  0.00000000000E+00  0.00000000000E+00  0.18228223505E+03  0.18228223505E+03  0.00000000000E+00 0.  1.
         21   -1    0    0  501  503 -0.00000000000E+00 -0.00000000000E+00 -0.53819694364E+03  0.53819694364E+03  0.00000000000E+00 0.  1.
          6    2    1    2  501    0  0.23483944052E+03 -0.10673493987E+03 -0.22783783507E+03  0.38512536853E+03  0.17282812325E+03 0.  0.
         24    2    3    3    0    0  0.10293715884E+03 -0.12166879518E+03 -0.13524742093E+03  0.22321086413E+03  0.78306261595E+02 0.  0.
         -6    2    1    2    0  502 -0.23483944052E+03  0.10673493987E+03 -0.12807687352E+03  0.33535381016E+03  0.17180390638E+03 0.  0.
        -24    2    5    5    0    0 -0.82267401582E+02  0.10258298669E+03 -0.56637237910E+02  0.16676799428E+03  0.85513698773E+02 0.  0.
          5    1    3    3  501    0  0.13190228168E+03  0.14933855307E+02 -0.92590414132E+02  0.16191450440E+03  0.47000000000E+01 0. -1.
        -11    1    4    4    0    0  0.31188777369E+02 -0.96155684002E+02 -0.83871582535E+02  0.13135104779E+03  0.00000000000E+00 0.  1.
         12    1    4    4    0    0  0.71748381469E+02 -0.25513111174E+02 -0.51375838399E+02  0.91859816331E+02  0.00000000000E+00 0. -1.
         -5    1    5    5    0  502 -0.15257203894E+03  0.41519531806E+01 -0.71439635608E+02  0.16858581588E+03  0.47000000000E+01 0.  1.
         13    1    6    6    0    0 -0.49749597523E+02  0.23655884514E+02 -0.59851910856E+02  0.81344173478E+02  0.00000000000E+00 0. -1.
        -14    1    6    6    0    0 -0.32517804059E+02  0.78927102175E+02  0.32146729452E+01  0.85423820804E+02  0.00000000000E+00 0.  1.
</event>
<event>
12    1  0.8135779E-002  0.1993551E+03  0.7818608E-02  0.1151581E+00
         21   -1    0    0  501  502  0.00000000000E+00  0.00000000000E+00  0.11105990627E+04  0.11105990627E+04  0.00000000000E+00 0.  1.
         21   -1    0    0  502  503 -0.00000000000E+00 -0.00000000000E+00 -0.22602158849E+03  0.22602158849E+03  0.00000000000E+00 0. -1.
         -6    2    1    2    0  503 -0.76515727549E+02 -0.55742222805E+02 -0.17151227288E+03  0.26298084786E+03  0.17544404985E+03 0.  0.
        -24    2    3    3    0    0 -0.80836907687E+02  0.27049220511E+02 -0.98704176956E+02  0.15254442037E+03  0.79126605283E+02 0.  0.
          6    2    1    2  501    0  0.76515727549E+02  0.55742222805E+02  0.10560897471E+04  0.10736398033E+04  0.16856755743E+03 0.  0.
         24    2    5    5    0    0  0.10017735684E+03  0.49993298531E+02  0.10224912424E+04  0.10318801056E+04  0.82178944823E+02 0.  0.
          5    1    5    5  501    0 -0.23661629294E+02  0.57489242745E+01  0.33598504695E+02  0.41759697663E+02  0.47000000000E+01 0. -1.
        -13    1    6    6    0    0  0.14207787038E+02  0.18303092929E+02  0.55562853061E+03  0.55611143528E+03  0.00000000000E+00 0.  1.
         14    1    6    6    0    0  0.85969569805E+02  0.31690205602E+02  0.46686271176E+03  0.47576867036E+03  0.00000000000E+00 0. -1.
         -5    1    3    3    0  503  0.43211801377E+01 -0.82791443316E+02 -0.72808095922E+02  0.11043642749E+03  0.47000000000E+01 0.  1.
         11    1    4    4    0    0 -0.54077743659E+02  0.37030546566E+02 -0.10454714880E+03  0.12339274719E+03  0.00000000000E+00 0. -1.
        -12    1    4    4    0    0 -0.26759164028E+02 -0.99813260549E+01  0.58429718406E+01  0.29151673180E+02  0.00000000000E+00 0.  1.
</event>
<event>
12    1  0.8135779E-002  0.1853982E+03  0.7818608E-02  0.1163119E+00
         21   -1    0    0  503  502  0.00000000000E+00  0.00000000000E+00  0.12142907535E+03  0.12142907535E+03  0.00000000000E+00 0.  1.
         21   -1    0    0  501  503 -0.00000000000E+00 -0.00000000000E+00 -0.31351970234E+03  0.31351970234E+03  0.00000000000E+00 0.  1.
          6    2    1    2  501    0  0.63263039223E+02 -0.21858932894E+02 -0.24708767789E+02  0.18517048352E+03  0.17087293432E+03 0.  0.
         24    2    3    3    0    0  0.74515742191E+02  0.41373219890E+02 -0.74355786767E+01  0.11849678907E+03  0.81986962567E+02 0.  0.
         -6    2    1    2    0  502 -0.63263039223E+02  0.21858932894E+02 -0.16738185920E+03  0.24977829417E+03  0.17289443128E+03 0.  0.
        -24    2    5    5    0    0 -0.39436200802E+02  0.14501263284E+02 -0.19297629368E+03  0.21373639344E+03  0.81718390757E+02 0.  0.
          5    1    3    3  501    0 -0.11252702967E+02 -0.63232152783E+02 -0.17273189113E+02  0.66673694452E+02  0.47000000000E+01 0. -1.
        -11    1    4    4    0    0  0.90016847763E+02  0.32717097072E+02  0.63949216208E+01  0.95991334736E+02  0.00000000000E+00 0.  1.
         12    1    4    4    0    0 -0.15501105572E+02  0.86561228178E+01 -0.13830500297E+02  0.22505454332E+02  0.00000000000E+00 0. -1.
         -5    1    5    5    0  502 -0.23826838422E+02  0.73576696096E+01  0.25594434482E+02  0.36041900723E+02  0.47000000000E+01 0.  1.
         11    1    6    6    0    0 -0.13665783211E+02 -0.28354337551E+01 -0.17922760056E+03  0.17977020364E+03  0.00000000000E+00 0. -1.
        -12    1    6    6    0    0 -0.25770417591E+02  0.17336697039E+02 -0.13748693125E+02  0.33966189803E+02  0.00000000000E+00 0.  1.
</event>
<event>
12    1  0.8135779E-002  0.1992533E+03  0.7818608E-02  0.1150613E+00
         21   -1    0    0  503  502  0.00000000000E+00  0.00000000000E+00  0.90334750524E+02  0.90334750524E+02  0.00000000000E+00 0. -1.
         21   -1    0    0  501  503 -0.00000000000E+00 -0.00000000000E+00 -0.70451450991E+03  0.70451450991E+03  0.00000000000E+00 0. -1.
          6    2    1    2  501    0  0.66499877274E+01 -0.98192210931E+02 -0.55144537317E+03  0.58595338245E+03  0.17194020529E+03 0.  0.
         24    2    3    3    0    0 -0.27588701346E+02 -0.46037566584E+02 -0.13467329612E+03  0.16451127616E+03  0.77759046516E+02 0.  0.
         -6    2    1    2    0  502 -0.66499877274E+01  0.98192210931E+02 -0.62734386218E+02  0.20889587798E+03  0.17325112409E+03 0.  0.
        -24    2    5    5    0    0  0.83411665209E+01  0.11377805247E+03 -0.96357211436E+02  0.16864370366E+03  0.78364317808E+02 0.  0.
          5    1    3    3  501    0  0.34238689073E+02 -0.52154644347E+02 -0.41677207704E+03  0.42144210630E+03  0.47000000000E+01 0. -1.
        -13    1    4    4    0    0  0.24479958843E+02 -0.60799791003E+01 -0.60042914020E+02  0.65125924599E+02  0.00000000000E+00 0.  1.
         14    1    4    4    0    0 -0.52068660189E+02 -0.39957587484E+02 -0.74630382104E+02  0.99385351558E+02  0.00000000000E+00 0. -1.
         -5    1    5    5    0  502 -0.14991154248E+02 -0.15585841535E+02  0.33622825218E+02  0.40252174323E+02  0.47000000000E+01 0.  1.
         13    1    6    6    0    0  0.28161994451E+02  0.93755651033E+02 -0.40221687879E+02  0.10583479677E+03  0.00000000000E+00 0. -1.
        -14    1    6    6    0    0 -0.19820827930E+02  0.20022401433E+02 -0.56135523557E+02  0.62808906884E+02  0.00000000000E+00 0.  1.
</event>
<event>
12    1  0.8135779E-002  0.1797559E+03  0.7818608E-02  0.1168229E+00
         21   -1    0    0  501  502  0.00000000000E+00  0.00000000000E+00  0.10968979594E+04  0.10968979594E+04  0.00000000000E+00 0. -1.
         21   -1    0    0  502  503 -0.00000000000E+00 -0.00000000000E+00 -0.11378686562E+03  0.11378686562E+03  0.00000000000E+00 0. -1.
         -6    2    1    2    0  503 -0.46659948219E+02  0.16896986453E+02 -0.30241944502E+02  0.18151206252E+03  0.17195753753E+03 0.  0.
        -24    2    3    3    0    0 -0.25214155543E+02  0.72462191599E+02 -0.45855767866E+02  0.11976017569E+03  0.79707122548E+02 0.  0.
          6    2    1    2  501    0  0.46659948219E+02 -0.16896986453E+02  0.10133530383E+04  0.10291727625E+04  0.17277018248E+03 0.  0.
         24    2    5    5    0    0 -0.32670936477E+01  0.36955763720E+02  0.76728841705E+03  0.77234068500E+03  0.80013851246E+02 0.  0.
          5    1    5    5  501    0  0.49927041867E+02 -0.53852750173E+02  0.24606462120E+03  0.25683207747E+03  0.47000000000E+01 0. -1.
        -11    1    6    6    0    0  0.11900095000E+02 -0.13951036989E+01  0.16347668348E+02  0.20268320991E+02  0.00000000000E+00 0.  1.
         12    1    6    6    0    0 -0.15167188648E+02  0.38350867419E+02  0.75094074870E+03  0.75207236401E+03  0.00000000000E+00 0. -1.
         -5    1    3    3    0  503 -0.21445792676E+02 -0.55565205146E+02  0.15613823364E+02  0.61751886825E+02  0.47000000000E+01 0.  1.
         13    1    4    4    0    0 -0.48810292230E+02  0.19721794637E+02 -0.18172444219E+02  0.55692293364E+02  0.00000000000E+00 0. -1.
        -14    1    4    4    0    0  0.23596136687E+02  0.52740396962E+02 -0.27683323647E+02  0.64067882331E+02  0.00000000000E+00 0.  1.
</event>
<event>
12    1  0.8135779E-002  0.2864296E+03  0.7818608E-02  0.1092290E+00
         21   -1    0    0  501  502  0.00000000000E+00  0.00000000000E+00  0.71337820643E+02  0.71337820643E+02  0.00000000000E+00 0. -1.
         21   -1    0    0  502  503 -0.00000000000E+00 -0.00000000000E+00 -0.19582463725E+04  0.19582463725E+04  0.00000000000E+00 0.  1.
         -6    2    1    2    0  503  0.21138045565E+03 -0.88024156653E+02 -0.15956907662E+04  0.16211117966E+04  0.17130232526E+03 0.  0.
        -24    2    3    3    0    0  0.12278943662E+03 -0.81906532580E+02 -0.62265625322E+03  0.64402221659E+03  0.72649018958E+02 0.  0.
          6    2    1    2  501    0 -0.21138045565E+03  0.88024156653E+02 -0.29121778568E+03  0.40847239653E+03  0.17208123329E+03 0.  0.
         24    2    5    5    0    0 -0.37476197199E+02  0.22812241035E+02 -0.14815860171E+03  0.17398720475E+03  0.79973198390E+02 0.  0.
          5    1    5    5  501    0 -0.17390425845E+03  0.65211915619E+02 -0.14305918397E+03  0.23448519178E+03  0.47000000000E+01 0. -1.
        -11    1    6    6    0    0 -0.16198254196E+02  0.45359625975E+02 -0.12861784644E+03  0.13734056040E+03  0.00000000000E+00 0.  1.
         12    1    6    6    0    0 -0.21277943003E+02 -0.22547384940E+02 -0.19540755265E+02  0.36646644354E+02  0.00000000000E+00 0. -1.
         -5    1    3    3    0  503  0.88591019032E+02 -0.61176240729E+01 -0.97303451299E+03  0.97708958005E+03  0.47000000000E+01 0.  1.
         13    1    4    4    0    0  0.10717090697E+03 -0.78481389745E+02 -0.60796765964E+03  0.62230989628E+03  0.00000000000E+00 0. -1.
        -14    1    4    4    0    0  0.15618529647E+02 -0.34251428351E+01 -0.14688593585E+02  0.21712320311E+02  0.00000000000E+00 0.  1.
</event>
<event>
12    1  0.8135779E-002  0.1882483E+03  0.7818608E-02  0.1160208E+00
         21   -1    0    0  503  502  0.00000000000E+00  0.00000000000E+00  0.87093028590E+02  0.87093028590E+02  0.00000000000E+00 0.  1.
         21   -1    0    0  501  503 -0.00000000000E+00 -0.00000000000E+00 -0.59001578480E+03  0.59001578480E+03  0.00000000000E+00 0.  1.
          6    2    1    2  501    0  0.55425277917E+02  0.50566466565E+02 -0.44052045586E+03  0.47878721241E+03  0.17190111623E+03 0.  0.
         24    2    3    3    0    0  0.21752512108E+02  0.12670650359E+02 -0.77131417391E+02  0.11184902780E+03  0.76988520622E+02 0.  0.
         -6    2    1    2    0  502 -0.55425277917E+02 -0.50566466565E+02 -0.62402300344E+02  0.19832160098E+03  0.17265132885E+03 0.  0.
        -24    2    5    5    0    0 -0.79822325675E+02 -0.80427969824E+02 -0.74632914279E+02  0.15759564815E+03  0.80162674709E+02 0.  0.
          5    1    3    3  501    0  0.33672765809E+02  0.37895816205E+02 -0.36338903847E+03  0.36693818461E+03  0.47000000000E+01 0. -1.
        -11    1    4    4    0    0  0.86417426741E+01  0.41332005009E+02 -0.66139830166E+02  0.78469685158E+02  0.00000000000E+00 0.  1.
         12    1    4    4    0    0  0.13110769434E+02 -0.28661354649E+02 -0.10991587225E+02  0.33379342642E+02  0.00000000000E+00 0. -1.
         -5    1    5    5    0  502  0.24397047758E+02  0.29861503260E+02  0.12230613934E+02  0.40725952824E+02  0.47000000000E+01 0.  1.
         11    1    6    6    0    0 -0.55588585951E+01  0.11910999364E+02 -0.26721106361E+02  0.29779025166E+02  0.00000000000E+00 0. -1.
        -12    1    6    6    0    0 -0.74263467080E+02 -0.92338969188E+02 -0.47911807918E+02  0.12781662299E+03  0.00000000000E+00 0.  1.
</event>
<event>
12    1  0.8135779E-002  0.2359175E+03  0.7818608E-02  0.1123508E+00
         21   -1    0    0  501  502  0.00000000000E+00  0.00000000000E+00  0.12057365082E+03  0.12057365082E+03  0.00000000000E+00 0. -1.
         21   -1    0    0  502  503 -0.00000000000E+00 -0.00000000000E+00 -0.54852533601E+03  0.54852533601E+03  0.00000000000E+00 0. -1.
         -6    2    1    2    0  503  0.10235854459E+03 -0.11446104856E+03 -0.74826758308E+02  0.24749976104E+03  0.17910467517E+03 0.  0.
        -24    2    3    3    0    0  0.34718987991E+02  0.11912225925E+01  0.10834447760E+02  0.88407053273E+02  0.80570432987E+02 0.  0.
          6    2    1    2  501    0 -0.10235854459E+03  0.11446104856E+03 -0.35312492689E+03  0.42159922579E+03  0.17166854665E+03 0.  0.
         24    2    5    5    0    0 -0.11460601346E+03  0.12420873463E+03 -0.22616702127E+03  0.29359368811E+03  0.80519464172E+02 0.  0.
          5    1    5    5  501    0  0.12247468868E+02 -0.97476860648E+01 -0.12695790562E+03  0.12800553768E+03  0.47000000000E+01 0. -1.
        -11    1    6    6    0    0  0.27723677518E+01  0.28145487846E+02 -0.11013012386E+02  0.30350303967E+02  0.00000000000E+00 0.  1.
         12    1    6    6    0    0 -0.11737838121E+03  0.96063246780E+02 -0.21515400888E+03  0.26324338415E+03  0.00000000000E+00 0. -1.
         -5    1    3    3    0  503  0.67639556598E+02 -0.11565227115E+03 -0.85661206068E+02  0.15909270777E+03  0.47000000000E+01 0.  1.
         11    1    4    4    0    0 -0.25814892937E+00  0.25787066244E+02 -0.22472806278E+02  0.34206234057E+02  0.00000000000E+00 0. -1.
        -12    1    4    4    0    0  0.34977136921E+02 -0.24595843651E+02  0.33307254038E+02  0.54200819216E+02  0.00000000000E+00 0.  1.
</event>
<event>
12    1  0.8135779E-002  0.1846206E+03  0.7818608E-02  0.1164725E+00
         21   -1    0    0  503  502  0.00000000000E+00  0.00000000000E+00  0.93414151389E+02  0.93414151389E+02  0.00000000000E+00 0.  1.
         21   -1    0    0  501  503 -0.00000000000E+00 -0.00000000000E+00 -0.35955100367E+03  0.35955100367E+03  0.00000000000E+00 0.  1.
          6    2    1    2  501    0  0.29819123392E+02  0.35563527552E+02 -0.15921610120E+03  0.23961850105E+03  0.17295466040E+03 0.  0.
         24    2    3    3    0    0  0.70461048032E+02 -0.16091373671E+02 -0.71114443022E+02  0.12960037967E+03  0.80717425675E+02 0.  0.
         -6    2    1    2    0  502 -0.29819123392E+02 -0.35563527552E+02 -0.10692075108E+03  0.21334665400E+03  0.17869192246E+03 0.  0.
        -24    2    5    5    0    0  0.14639868298E+01 -0.91154374387E+02 -0.74960657983E+02  0.14184481635E+03  0.78673937573E+02 0.  0.
          5    1    3    3  501    0 -0.40641924640E+02  0.51654901222E+02 -0.88101658178E+02  0.11001812138E+03  0.47000000000E+01 0. -1.
        -13    1    4    4    0    0  0.29818137771E+02  0.27681911150E+02 -0.58119339175E+01  0.41099733831E+02  0.00000000000E+00 0.  1.
         14    1    4    4    0    0  0.40642910261E+02 -0.43773284821E+02 -0.65302509104E+02  0.88500645838E+02  0.00000000000E+00 0. -1.
         -5    1    5    5    0  502 -0.31283110222E+02  0.55590846835E+02 -0.31960093095E+02  0.71501837652E+02  0.47000000000E+01 0.  1.
         11    1    6    6    0    0  0.23116265091E+02 -0.61864203829E+01  0.34975524464E+01  0.24184010875E+02  0.00000000000E+00 0. -1.
        -12    1    6    6    0    0 -0.21652278261E+02 -0.84967954004E+02 -0.78458210429E+02  0.11766080548E+03  0.00000000000E+00 0.  1.
</event>
<event>
12    1  0.8135779E-002  0.4103436E+03  0.7818608E-02  0.1040272E+00
         21   -1    0    0  501  502  0.00000000000E+00  0.00000000000E+00  0.54034985575E+03  0.54034985575E+03  0.00000000000E+00 0.  1.
         21   -1    0    0  502  503 -0.00000000000E+00 -0.00000000000E+00 -0.61236353301E+03  0.61236353301E+03  0.00000000000E+00 0. -1.
         -6    2    1    2    0  503 -0.10091277197E+03 -0.35883354031E+03 -0.44001989945E+03  0.60166384903E+03  0.17157207851E+03 0.  0.
        -24    2    3    3    0    0 -0.62766555222E+02 -0.30088085505E+03 -0.42506222772E+03  0.53053390088E+03  0.79494610897E+02 0.  0.
          6    2    1    2  501    0  0.10091277197E+03  0.35883354031E+03  0.36800622219E+03  0.55104953973E+03  0.17112018721E+03 0.  0.
         24    2    5    5    0    0  0.19825996416E+02  0.23876729623E+03  0.29816627999E+03  0.39014374225E+03  0.76851266827E+02 0.  0.
          5    1    5    5  501    0  0.81086775551E+02  0.12006624408E+03  0.69839942203E+02  0.16090579748E+03  0.47000000000E+01 0. -1.
        -11    1    6    6    0    0  0.29475906475E+02  0.23526885978E+03  0.26579607402E+03  0.35618509010E+03  0.00000000000E+00 0.  1.
         12    1    6    6    0    0 -0.96499100586E+01  0.34984364543E+01  0.32370205966E+02  0.33958652153E+02  0.00000000000E+00 0. -1.
         -5    1    3    3    0  503 -0.38146216746E+02 -0.57952685261E+02 -0.14957671736E+02  0.71129948156E+02  0.47000000000E+01 0.  1.
         13    1    4    4    0    0 -0.27739533526E+02 -0.53440861462E+02 -0.13399671273E+03  0.14690311915E+03  0.00000000000E+00 0. -1.
        -14    1    4    4    0    0 -0.35027021696E+02 -0.24743999358E+03 -0.29106551499E+03  0.38363078173E+03  0.00000000000E+00 0.  1.
</event>
<event>
12    1  0.8135779E-002  0.1843537E+03  0.7818608E-02  0.1164028E+00
         21   -1    0    0  503  502  0.00000000000E+00  0.00000000000E+00  0.60832211479E+03  0.60832211479E+03  0.00000000000E+00 0.  1.
         21   -1    0    0  501  503 -0.00000000000E+00 -0.00000000000E+00 -0.56131591774E+02  0.56131591774E+02  0.00000000000E+00 0.  1.
          6    2    1    2  501    0  0.93046491161E+01 -0.63257083520E+02  0.31311802226E+03  0.36255643274E+03  0.17121984684E+03 0.  0.
         24    2    3    3    0    0  0.11045467749E+02 -0.10457324694E+03  0.27844845182E+03  0.30838886935E+03  0.80700607722E+02 0.  0.
         -6    2    1    2    0  502 -0.93046491161E+01  0.63257083520E+02  0.23907250076E+03  0.30189727382E+03  0.17291115699E+03 0.  0.
        -24    2    5    5    0    0  0.32161075893E+02  0.75679962735E+01  0.20859427799E+03  0.22592561560E+03  0.80244635999E+02 0.  0.
          5    1    3    3  501    0 -0.17408186331E+01  0.41316163422E+02  0.34669570439E+02  0.54167563392E+02  0.47000000000E+01 0. -1.
        -11    1    4    4    0    0 -0.55535246650E+01 -0.92821385605E+02  0.13756204126E+03  0.16604206232E+03  0.00000000000E+00 0.  1.
         12    1    4    4    0    0  0.16598992414E+02 -0.11751861336E+02  0.14088641056E+03  0.14234680704E+03  0.00000000000E+00 0. -1.
         -5    1    5    5    0  502 -0.41465725009E+02  0.55689087246E+02  0.30478222772E+02  0.75971658216E+02  0.47000000000E+01 0.  1.
         13    1    6    6    0    0  0.54625070359E+02  0.94143802243E+01  0.18570650097E+03  0.19380256285E+03  0.00000000000E+00 0. -1.
        -14    1    6    6    0    0 -0.22463994466E+02 -0.18463839508E+01  0.22887777018E+02  0.32123052748E+02  0.00000000000E+00 0.  1.
</event>
<event>
12    1  0.8135779E-002  0.2333999E+03  0.7818608E-02  0.1124346E+00
         21   -1    0    0  501  502  0.00000000000E+00  0.00000000000E+00  0.26994353938E+03  0.26994353938E+03  0.00000000000E+00 0. -1.
         21   -1    0    0  502  503 -0.00000000000E+00 -0.00000000000E+00 -0.20144416177E+03  0.20144416177E+03  0.00000000000E+00 0. -1.
         -6    2    1    2    0  503 -0.15043506909E+03  0.46327969309E+02  0.31804775800E+02  0.23555694801E+03  0.17233264705E+03 0.  0.
        -24    2    3    3    0    0 -0.90839346957E+02 -0.30939210025E+02  0.53315488084E+02  0.13552361435E+03  0.79467522328E+02 0.  0.
          6    2    1    2  501    0  0.15043506909E+03 -0.46327969309E+02  0.36694601805E+02  0.23583075314E+03  0.17173427024E+03 0.  0.
         24    2    5    5    0    0  0.13611392162E+03 -0.48693752258E+02  0.83384539087E+02  0.18671118029E+03  0.83725756605E+02 0.  0.
          5    1    5    5  501    0  0.14321147474E+02  0.23657829493E+01 -0.46689937282E+02  0.49119572854E+02  0.47000000000E+01 0. -1.
        -11    1    6    6    0    0  0.33200415253E+02  0.21539434655E+02  0.35715601667E+02  0.53308714303E+02  0.00000000000E+00 0.  1.
         12    1    6    6    0    0  0.10291350637E+03 -0.70233186913E+02  0.47668937420E+02  0.13340246599E+03  0.00000000000E+00 0. -1.
         -5    1    3    3    0  503 -0.59595722136E+02  0.77267179334E+02 -0.21510712284E+02  0.10003333365E+03  0.47000000000E+01 0.  1.
         13    1    4    4    0    0 -0.62654020931E+02 -0.22908006524E+02 -0.83665141886E+01  0.67233188690E+02  0.00000000000E+00 0. -1.
        -14    1    4    4    0    0 -0.28185326026E+02 -0.80312035017E+01  0.61682002272E+02  0.68290425662E+02  0.00000000000E+00 0.  1.
</event>
<event>
12    1  0.8135779E-002  0.1794729E+03  0.7818608E-02  0.1169550E+00
         21   -1    0    0  503  502  0.00000000000E+00  0.00000000000E+00  0.46805628132E+03  0.46805628132E+03  0.00000000000E+00 0. -1.
         21   -1    0    0  501  503 -0.00000000000E+00 -0.00000000000E+00 -0.13123406385E+03  0.13123406385E+03  0.00000000000E+00 0. -1.
          6    2    1    2  501    0  0.23310876106E+02 -0.18254030130E+02 -0.40147121754E+02  0.18390846917E+03  0.17701391778E+03 0.  0.
         24    2    3    3    0    0  0.30236002233E+02 -0.10601011451E+02  0.45350810539E+02  0.97661657675E+02  0.80339940805E+02 0.  0.
         -6    2    1    2    0  502 -0.23310876106E+02  0.18254030130E+02  0.37696933923E+03  0.41538187600E+03  0.17192909476E+03 0.  0.
        -24    2    5    5    0    0  0.30831799165E+02 -0.30750899397E+02  0.27882668054E+03  0.29296053857E+03  0.78646943502E+02 0.  0.
          5    1    3    3  501    0 -0.69251261274E+01 -0.76530186784E+01 -0.85497932293E+02  0.86246811496E+02  0.47000000000E+01 0. -1.
        -13    1    4    4    0    0  0.42195069040E+02  0.22274764532E+02  0.40018686189E+02  0.62274266199E+02  0.00000000000E+00 0.  1.
         14    1    4    4    0    0 -0.11959066807E+02 -0.32875775984E+02  0.53321243493E+01  0.35387391477E+02  0.00000000000E+00 0. -1.
         -5    1    5    5    0  502 -0.54142675270E+02  0.49004929527E+02  0.98142658687E+02  0.12242133743E+03  0.47000000000E+01 0.  1.
         11    1    6    6    0    0 -0.25019316875E+02 -0.15617487892E+02  0.12945668667E+03  0.13277389001E+03  0.00000000000E+00 0. -1.
        -12    1    6    6    0    0  0.55851116039E+02 -0.15133411505E+02  0.14936999387E+03  0.16018664856E+03  0.00000000000E+00 0.  1.
</event>
<event>
12    1  0.8135779E-002  0.2097226E+03  0.7818608E-02  0.1142070E+00
         21   -1    0    0  501  502  0.00000000000E+00  0.00000000000E+00  0.21506622079E+03  0.21506622079E+03  0.00000000000E+00 0.  1.
         21   -1    0    0  502  503 -0.00000000000E+00 -0.00000000000E+00 -0.21553104345E+03  0.21553104345E+03  0.00000000000E+00 0. -1.
         -6    2    1    2    0  503  0.79194022719E+02 -0.87634515576E+02  0.51427760968E+02  0.21455000863E+03  0.17156745044E+03 0.  0.
        -24    2    3    3    0    0 -0.17270795189E+02 -0.16009090969E+02  0.46980192689E+00  0.83957259469E+02  0.80585540537E+02 0.  0.
          6    2    1    2  501    0 -0.79194022719E+02  0.87634515576E+02 -0.51892583626E+02  0.21604725560E+03  0.17329764818E+03 0.  0.
         24    2    5    5    0    0 -0.10909276185E+03  0.78286356237E+02 -0.78878135811E+02  0.17443436443E+03  0.78585004443E+02 0.  0.
          5    1    5    5  501    0  0.29898739136E+02  0.93481593389E+01  0.26985552185E+02  0.41612891172E+02  0.47000000000E+01 0. -1.
        -11    1    6    6    0    0 -0.60654322753E+02  0.26987291447E+02  0.28709210388E+01  0.66449250981E+02  0.00000000000E+00 0.  1.
         12    1    6    6    0    0 -0.48438439101E+02  0.51299064790E+02 -0.81749056850E+02  0.10798511345E+03  0.00000000000E+00 0. -1.
         -5    1    3    3    0  503  0.96464817908E+02 -0.71625424607E+02  0.50957959042E+02  0.13059274916E+03  0.47000000000E+01 0.  1.
         11    1    4    4    0    0 -0.17497281008E+02 -0.38159640927E+02 -0.26047960962E+02  0.49404547449E+02  0.00000000000E+00 0. -1.
        -12    1    4    4    0    0  0.22648581878E+00  0.22150549958E+02  0.26517762889E+02  0.34552712020E+02  0.00000000000E+00 0.  1.
</event>
<event>
12    1  0.8135779E-002  0.1725323E+03  0.7818608E-02  0.1178654E+00
         21   -1    0    0  501  502  0.00000000000E+00  0.00000000000E+00  0.85872850692E+02  0.85872850692E+02  0.00000000000E+00 0.  1.
         21   -1    0    0  502  503 -0.00000000000E+00 -0.00000000000E+00 -0.57587079015E+03  0.57587079015E+03  0.00000000000E+00 0.  1.
         -6    2    1    2    0  503  0.35373044748E+01 -0.14378088940E+01 -0.47016590063E+03  0.50082269973E+03  0.17249006533E+03 0.  0.
        -24    2    3    3    0    0  0.33509038972E+02 -0.22655213447E+02 -0.45029839573E+03  0.45880733498E+03  0.78098726258E+02 0.  0.
          6    2    1    2  501    0 -0.35373044748E+01  0.14378088940E+01 -0.19832038829E+02  0.16092094111E+03  0.15964855059E+03 0.  0.
         24    2    5    5    0    0  0.34460365625E+02  0.47217911330E+02 -0.14564410612E+02  0.10100868344E+03  0.81077642564E+02 0.  0.
          5    1    5    5  501    0 -0.37997670100E+02 -0.45780102436E+02 -0.52676282163E+01  0.59912257670E+02  0.47000000000E+01 0. -1.
        -13    1    6    6    0    0 -0.12188236779E+02 -0.63396932285E+01  0.18189943304E+02  0.22795149998E+02  0.00000000000E+00 0.  1.
         14    1    6    6    0    0  0.46648602405E+02  0.53557604559E+02 -0.32754353917E+02  0.78213533438E+02  0.00000000000E+00 0. -1.
         -5    1    3    3    0  503 -0.29971734497E+02  0.21217404553E+02 -0.19867504896E+02  0.42015364755E+02  0.47000000000E+01 0.  1.
         13    1    4    4    0    0 -0.21021408992E+02 -0.24166023012E+02 -0.12939430962E+03  0.13329960114E+03  0.00000000000E+00 0. -1.
        -14    1    4    4    0    0  0.54530447964E+02  0.15108095649E+01 -0.32090408611E+03  0.32550773383E+03  0.00000000000E+00 0.  1.
</event>
<event>
12    1  0.8135779E-002  0.1788573E+03  0.7818608E-02  0.1169021E+00
         21   -1    0    0  501  502  0.00000000000E+00  0.00000000000E+00  0.83332749700E+03  0.83332749700E+03  0.00000000000E+00 0. -1.
         21   -1    0    0  502  503 -0.00000000000E+00 -0.00000000000E+00 -0.40606289148E+02  0.40606289148E+02  0.00000000000E+00 0. -1.
         -6    2    1    2    0  503  0.19236515225E+01  0.46339925631E+02  0.29163605103E+03  0.34188467489E+03  0.17228597018E+03 0.  0.
        -24    2    3    3    0    0  0.66392770814E+02  0.12569365834E+02  0.14749963785E+03  0.18034794948E+03  0.78760718272E+02 0.  0.
          6    2    1    2  501    0 -0.19236515225E+01 -0.46339925631E+02  0.50108515682E+03  0.53204911125E+03  0.17273920592E+03 0.  0.
         24    2    5    5    0    0 -0.27430942936E+02 -0.48394909266E+02  0.14296687932E+03  0.17298695013E+03  0.79940180510E+02 0.  0.
          5    1    5    5  501    0  0.25507291413E+02  0.20549836347E+01  0.35811827749E+03  0.35906216112E+03  0.47000000000E+01 0. -1.
        -11    1    6    6    0    0  0.25193966417E+02 -0.76246422369E+01  0.66966400421E+02  0.71953942897E+02  0.00000000000E+00 0.  1.
         12    1    6    6    0    0 -0.52624909353E+02 -0.40770267029E+02  0.76000478903E+02  0.10103300724E+03  0.00000000000E+00 0. -1.
         -5    1    3    3    0  503 -0.64469119291E+02  0.33770559798E+02  0.14413641318E+03  0.16153672541E+03  0.47000000000E+01 0.  1.
         11    1    4    4    0    0  0.50280537929E+02  0.32267368186E+02  0.14235687749E+03  0.15438521986E+03  0.00000000000E+00 0. -1.
        -12    1    4    4    0    0  0.16112232884E+02 -0.19698002353E+02  0.51427603647E+01  0.25962729621E+02  0.00000000000E+00 0.  1.
</event>
<event>
12    1  0.8135779E-002  0.1740534E+03  0.7818608E-02  0.1174033E+00
         21   -1    0    0  501  502  0.00000000000E+00  0.00000000000E+00  0.54634606634E+03  0.54634606634E+03  0.00000000000E+00 0. -1.
         21   -1    0    0  502  503 -0.00000000000E+00 -0.00000000000E+00 -0.16966384342E+03  0.16966384342E+03  0.00000000000E+00 0. -1.
         -6    2    1    2    0  503  0.91323507590E+01  0.14445536830E+02 -0.10571021502E+03  0.20364000508E+03  0.17321238046E+03 0.  0.
        -24    2    3    3    0    0  0.43432451232E+02  0.35009784358E+02 -0.81354717614E+01  0.98082884566E+02  0.80262092691E+02 0.  0.
          6    2    1    2  501    0 -0.91323507590E+01 -0.14445536830E+02  0.48239243795E+03  0.51236990468E+03  0.17183824276E+03 0.  0.
         24    2    5    5    0    0  0.42768986641E+02  0.31315391118E+02  0.34625179342E+03  0.35958189323E+03  0.81234189581E+02 0.  0.
          5    1    5    5  501    0 -0.51901337400E+02 -0.45760927948E+02  0.13614064453E+03  0.15278801145E+03  0.47000000000E+01 0. -1.
        -13    1    6    6    0    0  0.58422869132E+02 -0.31893010664E+01  0.19019598367E+03  0.19899224980E+03  0.00000000000E+00 0.  1.
         14    1    6    6    0    0 -0.15653882491E+02  0.34504692184E+02  0.15605580975E+03  0.16058964343E+03  0.00000000000E+00 0. -1.
         -5    1    3    3    0  503 -0.34300100473E+02 -0.20564247528E+02 -0.97574743263E+02  0.10555712052E+03  0.47000000000E+01 0.  1.
         11    1    4    4    0    0 -0.12874709471E+02  0.58699026334E+00 -0.26595789762E+02  0.29553996931E+02  0.00000000000E+00 0. -1.
        -12    1    4    4    0    0  0.56307160704E+02  0.34422794095E+02  0.18460318000E+02  0.68528887635E+02  0.00000000000E+00 0.  1.
</event>
<event>
12    1  0.8135779E-002  0.2703542E+03  0.7818608E-02  0.1101087E+00
         21   -1    0    0  503  502  0.00000000000E+00  0.00000000000E+00  0.10910544058E+04  0.10910544058E+04  0.00000000000E+00 0. -1.
         21   -1    0    0  501  503 -0.00000000000E+00 -0.00000000000E+00 -0.89417518515E+02  0.89417518515E+02  0.00000000000E+00 0.  1.
          6    2    1    2  501    0 -0.24901232757E+02 -0.20741972490E+03  0.20507206596E+03  0.33927817471E+03  0.17149960329E+03 0.  0.
         24    2    3    3    0    0 -0.51024171793E+00 -0.12461781884E+03  0.20479243842E+03  0.25283024655E+03  0.80332618626E+02 0.  0.
         -6    2    1    2    0  502  0.24901232757E+02  0.20741972490E+03  0.79656482135E+03  0.84119374962E+03  0.17160534992E+03 0.  0.
        -24    2    5    5    0    0  0.68952687481E+02  0.19450974505E+03  0.70191187443E+03  0.73589195190E+03  0.79171783964E+02 0.  0.
          5    1    3    3  501    0 -0.24390991039E+02 -0.82801906068E+02  0.27962753132E+00  0.86447928165E+02  0.47000000000E+01 0. -1.
        -11    1    4    4    0    0  0.41268851973E+01  0.11418522381E+02  0.17610014538E+02  0.21389867854E+02  0.00000000000E+00 0.  1.
         12    1    4    4    0    0 -0.46371269152E+01 -0.13603634122E+03  0.18718242389E+03  0.23144037869E+03  0.00000000000E+00 0. -1.
         -5    1    5    5    0  502 -0.44051454724E+02  0.12909979858E+02  0.94652946925E+02  0.10530179773E+03  0.47000000000E+01 0.  1.
         13    1    6    6    0    0  0.85478290629E+02  0.14353335430E+03  0.51206909097E+03  0.53863077882E+03  0.00000000000E+00 0. -1.
        -14    1    6    6    0    0 -0.16525603148E+02  0.50976390743E+02  0.18984278346E+03  0.19726117308E+03  0.00000000000E+00 0.  1.
</event>
<event>
12    1  0.8135779E-002  0.2581830E+03  0.7818608E-02  0.1108631E+00
         21   -1    0    0  501  502  0.00000000000E+00  0.00000000000E+00  0.18410907136E+03  0.18410907136E+03  0.00000000000E+00 0.  1.
         21   -1    0    0  502  503 -0.00000000000E+00 -0.00000000000E+00 -0.47876962865E+03  0.47876962865E+03  0.00000000000E+00 0. -1.
         -6    2    1    2    0  503  0.18655057827E+03 -0.31154250689E+02  0.18255383294E+02  0.25882762616E+03  0.17574633839E+03 0.  0.
        -24    2    3    3    0    0  0.16717559218E+02 -0.28396710248E+02 -0.87101226206E+01  0.86780868277E+02  0.79807286157E+02 0.  0.
          6    2    1    2  501    0 -0.18655057827E+03  0.31154250689E+02 -0.31291594058E+03  0.40405107385E+03  0.17195690977E+03 0.  0.
         24    2    5    5    0    0 -0.16872807670E+03 -0.36658851816E+01 -0.15792041593E+03  0.24412676022E+03  0.78590169295E+02 0.  0.
          5    1    5    5  501    0 -0.17822501571E+02  0.34820135871E+02 -0.15499552465E+03  0.15992431362E+03  0.47000000000E+01 0. -1.
        -13    1    6    6    0    0 -0.56160866473E+02 -0.66750457751E+01 -0.87561476278E+01  0.57229968376E+02  0.00000000000E+00 0.  1.
         14    1    6    6    0    0 -0.11256721023E+03  0.30091605935E+01 -0.14916426830E+03  0.18689679185E+03  0.00000000000E+00 0. -1.
         -5    1    3    3    0  503  0.16983301905E+03 -0.27575404408E+01  0.26965505915E+02  0.17204675789E+03  0.47000000000E+01 0.  1.
         13    1    4    4    0    0  0.34768171959E+02  0.15966272811E+02 -0.67217857346E+01  0.38844948865E+02  0.00000000000E+00 0. -1.
        -14    1    4    4    0    0 -0.18050612741E+02 -0.44362983059E+02 -0.19883368860E+01  0.47935919412E+02  0.00000000000E+00 0.  1.
</event>
<event>
12    1  0.8135779E-002  0.1937871E+03  0.7818608E-02  0.1155321E+00
         21   -1    0    0  503  502  0.00000000000E+00  0.00000000000E+00  0.10073950778E+03  0.10073950778E+03  0.00000000000E+00 0.  1.
         21   -1    0    0  501  503 -0.00000000000E+00 -0.00000000000E+00 -0.37929840315E+03  0.37929840315E+03  0.00000000000E+00 0.  1.
          6    2    1    2  501    0  0.13042474231E+02 -0.84417466505E+02 -0.10289182797E+03  0.21848034333E+03  0.17277302270E+03 0.  0.
         24    2    3    3    0    0 -0.13995887734E+02 -0.45264122043E+02 -0.13296723309E+03  0.16199426192E+03  0.79480376204E+02 0.  0.
         -6    2    1    2    0  502 -0.13042474231E+02  0.84417466505E+02 -0.17566706739E+03  0.26155756760E+03  0.17394547369E+03 0.  0.
        -24    2    5    5    0    0 -0.38867261757E+01  0.84114622922E+02 -0.20283957883E+03  0.23249978354E+03  0.76301233130E+02 0.  0.
          5    1    3    3  501    0  0.27038361965E+02 -0.39153344461E+02  0.30075405115E+02  0.56486081411E+02  0.47000000000E+01 0. -1.
        -11    1    4    4    0    0 -0.23081449589E+02 -0.38678431402E+02 -0.21405366316E+02  0.49869470400E+02  0.00000000000E+00 0.  1.
         12    1    4    4    0    0  0.90855618550E+01 -0.65856906408E+01 -0.11156186677E+03  0.11212479152E+03  0.00000000000E+00 0. -1.
         -5    1    5    5    0  502 -0.91557480557E+01  0.30284358287E+00  0.27172511437E+02  0.29057784060E+02  0.47000000000E+01 0.  1.
         13    1    6    6    0    0 -0.26339799001E+02 -0.23794873746E+00 -0.47525928465E+02  0.54337422717E+02  0.00000000000E+00 0. -1.
        -14    1    6    6    0    0  0.22453072826E+02  0.84352571659E+02 -0.15531365036E+03  0.17816236082E+03  0.00000000000E+00 0.  1.
</event>
<event>
12    1  0.8135779E-002  0.2107225E+03  0.7818608E-02  0.1141142E+00
         21   -1    0    0  503  502  0.00000000000E+00  0.00000000000E+00  0.95132303833E+02  0.95132303833E+02  0.00000000000E+00 0. -1.
         21   -1    0    0  501  503 -0.00000000000E+00 -0.00000000000E+00 -0.46520922102E+03  0.46520922102E+03  0.00000000000E+00 0.  1.
          6    2    1    2  501    0  0.10797488879E+03 -0.54324061926E+02 -0.18874408258E+03  0.28233873932E+03  0.17170077081E+03 0.  0.
         24    2    3    3    0    0  0.21446784545E+02 -0.30099606285E+01 -0.15539704797E+03  0.17625214953E+03  0.80296657866E+02 0.  0.
         -6    2    1    2    0  502 -0.10797488879E+03  0.54324061926E+02 -0.18133283461E+03  0.27800278553E+03  0.17261017220E+03 0.  0.
        -24    2    5    5    0    0 -0.71242905579E+02  0.34926140700E+02 -0.22827290058E+02  0.11407714510E+03  0.78721807422E+02 0.  0.
          5    1    3    3  501    0  0.86528104243E+02 -0.51314101298E+02 -0.33347034607E+02  0.10608658979E+03  0.47000000000E+01 0. -1.
        -11    1    4    4    0    0  0.44458139820E+02  0.78429247964E+01 -0.13859590784E+03  0.14576303830E+03  0.00000000000E+00 0.  1.
         12    1    4    4    0    0 -0.23011355274E+02 -0.10852885425E+02 -0.16801140137E+02  0.30489111228E+02  0.00000000000E+00 0. -1.
         -5    1    5    5    0  502 -0.36731983210E+02  0.19397921226E+02 -0.15850554455E+03  0.16392564043E+03  0.47000000000E+01 0.  1.
         13    1    6    6    0    0  0.16815950873E+02  0.16625665369E-01 -0.86395692433E+00  0.16838138310E+02  0.00000000000E+00 0. -1.
        -14    1    6    6    0    0 -0.88058856452E+02  0.34909515035E+02 -0.21963333134E+02  0.97239006792E+02  0.00000000000E+00 0.  1.
</event>
<event>
12    1  0.8135779E-002  0.1831908E+03  0.7818608E-02  0.1164886E+00
         21   -1    0    0  503  502  0.00000000000E+00  0.00000000000E+00  0.14988560533E+03  0.14988560533E+03  0.00000000000E+00 0.  1.
         21   -1    0    0  501  503 -0.00000000000E+00 -0.00000000000E+00 -0.23561419963E+03  0.23561419963E+03  0.00000000000E+00 0.  1.
          6    2    1    2  501    0 -0.42607891839E+02 -0.45800006655E+02 -0.87053580519E+02  0.20230419766E+03  0.17156803156E+03 0.  0.
         24    2    3    3    0    0  0.12815538503E+01 -0.88232024061E+02 -0.39289930758E+02  0.12464973364E+03  0.78786578720E+02 0.  0.
         -6    2    1    2    0  502  0.42607891839E+02  0.45800006655E+02  0.13249862199E+01  0.18319560729E+03  0.17217956292E+03 0.  0.
        -24    2    5    5    0    0 -0.20678848711E+01  0.88817409692E+02 -0.39357383446E+01  0.12077616151E+03  0.81722596270E+02 0.  0.
          5    1    3    3  501    0 -0.43889445689E+02  0.42432017406E+02 -0.47763649762E+02  0.77654464022E+02  0.47000000000E+01 0. -1.
        -11    1    4    4    0    0 -0.38542043356E+02 -0.43624862574E+02 -0.23716904037E+02  0.62857849771E+02  0.00000000000E+00 0.  1.
         12    1    4    4    0    0  0.39823597206E+02 -0.44607161486E+02 -0.15573026721E+02  0.61791883865E+02  0.00000000000E+00 0. -1.
         -5    1    5    5    0  502  0.44675776710E+02 -0.43017403037E+02  0.52607245644E+01  0.62419445781E+02  0.47000000000E+01 0.  1.
         13    1    6    6    0    0  0.10864423426E+02  0.82141934096E+02 -0.32272592909E+02  0.88920488565E+02  0.00000000000E+00 0. -1.
        -14    1    6    6    0    0 -0.12932308297E+02  0.66754755952E+01  0.28336854564E+02  0.31855672947E+02  0.00000000000E+00 0.  1.
</event>
<event>
12    1  0.8135779E-002  0.1809126E+03  0.7818608E-02  0.1167270E+00
         21   -1    0    0  501  502  0.00000000000E+00  0.00000000000E+00  0.93459202632E+03  0.93459202632E+03  0.00000000000E+00 0. -1.
         21   -1    0    0  502  503 -0.00000000000E+00 -0.00000000000E+00 -0.57432675407E+02  0.57432675407E+02  0.00000000000E+00 0. -1.
         -6    2    1    2    0  503 -0.33802826642E+02  0.42183822643E+02  0.12574717464E+03  0.21914073559E+03  0.17113796797E+03 0.  0.
        -24    2    3    3    0    0  0.44552498878E+02  0.89761145700E+01  0.82504564605E+02  0.12356708736E+03  0.79977034880E+02 0.  0.
          6    2    1    2  501    0  0.33802826642E+02 -0.42183822643E+02  0.75141217628E+03  0.77288396615E+03  0.17264779317E+03 0.  0.
         24    2    5    5    0    0 -0.42489226737E+02  0.97264633863E+01  0.31599631618E+03  0.32777250097E+03  0.75373749252E+02 0.  0.
          5    1    5    5  501    0  0.76292053380E+02 -0.51910286029E+02  0.43541586010E+03  0.44511146517E+03  0.47000000000E+01 0. -1.
        -11    1    6    6    0    0 -0.29419757860E+01  0.33609131885E+01 -0.35622642151E+01  0.57132027203E+01  0.00000000000E+00 0.  1.
         12    1    6    6    0    0 -0.39547250951E+02  0.63655501979E+01  0.31955858039E+03  0.32205929825E+03  0.00000000000E+00 0. -1.
         -5    1    3    3    0  503 -0.78355325521E+02  0.33207708073E+02  0.43242610035E+02  0.95573648228E+02  0.47000000000E+01 0.  1.
         13    1    4    4    0    0 -0.22009226732E+01 -0.26240711009E+02  0.56008110813E+01  0.26921888114E+02  0.00000000000E+00 0. -1.
        -14    1    4    4    0    0  0.46753421552E+02  0.35216825579E+02  0.76903753524E+02  0.96645199243E+02  0.00000000000E+00 0.  1.
</event>
<event>
12    1  0.8135779E-002  0.2401087E+03  0.7818608E-02  0.1120184E+00
         21   -1    0    0  503  502  0.00000000000E+00  0.00000000000E+00  0.55422307402E+03  0.55422307402E+03  0.00000000000E+00 0. -1.
         21   -1    0    0  501  503 -0.00000000000E+00 -0.00000000000E+00 -0.47146311450E+03  0.47146311450E+03  0.00000000000E+00 0.  1.
          6    2    1    2  501    0 -0.99063127774E+02  0.11729952091E+03 -0.41215215435E+03  0.47560419751E+03  0.18098970543E+03 0.  0.
         24    2    3    3    0    0 -0.93849318050E+02  0.64894314064E+02 -0.13864967291E+03  0.19703789146E+03  0.81124795081E+02 0.  0.
         -6    2    1    2    0  502  0.99063127774E+02 -0.11729952091E+03  0.49491211387E+03  0.55008199101E+03  0.18460637986E+03 0.  0.
        -24    2    5    5    0    0  0.74454099375E+02 -0.87731978385E+02  0.49165741889E+03  0.51119077235E+03  0.79678574540E+02 0.  0.
          5    1    3    3  501    0 -0.52138097241E+01  0.52405206842E+02 -0.27350248144E+03  0.27856630605E+03  0.47000000000E+01 0. -1.
        -11    1    4    4    0    0  0.11752779087E+02  0.17445513335E+02 -0.80789728030E+01  0.22533165631E+02  0.00000000000E+00 0.  1.
         12    1    4    4    0    0 -0.10560209714E+03  0.47448800729E+02 -0.13057070011E+03  0.17450472583E+03  0.00000000000E+00 0. -1.
         -5    1    5    5    0  502  0.24609028399E+02 -0.29567542522E+02  0.32546949827E+01  0.38891218661E+02  0.47000000000E+01 0.  1.
         13    1    6    6    0    0  0.47149994439E+02 -0.85941874225E+02  0.25900005589E+03  0.27692987681E+03  0.00000000000E+00 0. -1.
        -14    1    6    6    0    0  0.27304104936E+02 -0.17901041598E+01  0.23265736300E+03  0.23426089553E+03  0.00000000000E+00 0.  1.
</event>
<event>
12    1  0.8135779E-002  0.1760886E+03  0.7818608E-02  0.1172215E+00
         21   -1    0    0  503  502  0.00000000000E+00  0.00000000000E+00  0.59306306530E+03  0.59306306530E+03  0.00000000000E+00 0.  1.
         21   -1    0    0  501  503 -0.00000000000E+00 -0.00000000000E+00 -0.81980234523E+02  0.81980234523E+02  0.00000000000E+00 0. -1.
          6    2    1    2  501    0 -0.29848395285E+02  0.16021372303E+02  0.51152556264E+02  0.18336783752E+03  0.17279921514E+03 0.  0.
         24    2    3    3    0    0  0.29425686794E+02 -0.22698579505E+02  0.55384625392E+02  0.11228582937E+03  0.90330250701E+02 0.  0.
         -6    2    1    2    0  502  0.29848395285E+02 -0.16021372303E+02  0.45993027451E+03  0.49167546230E+03  0.17047372743E+03 0.  0.
        -24    2    5    5    0    0  0.76060253029E+02  0.16607376982E+02  0.23894107957E+03  0.26351217568E+03  0.79277109994E+02 0.  0.
          5    1    3    3  501    0 -0.59274082079E+02  0.38719951808E+02 -0.42320691283E+01  0.71082008155E+02  0.47000000000E+01 0. -1.
        -13    1    4    4    0    0 -0.12253510876E+02 -0.39462658554E+02  0.53127174882E+02  0.67304878425E+02  0.00000000000E+00 0.  1.
         14    1    4    4    0    0  0.41679197670E+02  0.16764079049E+02  0.22574505102E+01  0.44980950941E+02  0.00000000000E+00 0. -1.
         -5    1    5    5    0  502 -0.46211857744E+02 -0.32628749285E+02  0.22098919495E+03  0.22816328662E+03  0.47000000000E+01 0.  1.
         11    1    6    6    0    0 -0.53796084852E+01  0.37395524618E+01 -0.35047108238E+01  0.74301707939E+01  0.00000000000E+00 0. -1.
        -12    1    6    6    0    0  0.81439861514E+02  0.12867824520E+02  0.24244579039E+03  0.25608200489E+03  0.00000000000E+00 0.  1.
</event>
<event>
12    1  0.8135779E-002  0.2097203E+03  0.7818608E-02  0.1143142E+00
         21   -1    0    0  503  502  0.00000000000E+00  0.00000000000E+00  0.11094988786E+03  0.11094988786E+03  0.00000000000E+00 0.  1.
         21   -1    0    0  501  503 -0.00000000000E+00 -0.00000000000E+00 -0.49421661975E+03  0.49421661975E+03  0.00000000000E+00 0.  1.
          6    2    1    2  501    0  0.23752352586E+02 -0.11456846208E+03 -0.33703903258E+03  0.39696087148E+03  0.17404745689E+03 0.  0.
         24    2    3    3    0    0  0.67377024690E+02 -0.93006897357E+02 -0.15841970169E+03  0.21177186410E+03  0.80997371116E+02 0.  0.
         -6    2    1    2    0  502 -0.23752352586E+02  0.11456846208E+03 -0.46227699310E+02  0.20820563612E+03  0.16589900534E+03 0.  0.
        -24    2    5    5    0    0  0.11314707126E+02  0.70364837313E+02 -0.88001276515E+02  0.13784385053E+03  0.78596879916E+02 0.  0.
          5    1    3    3  501    0 -0.43624672104E+02 -0.21561564722E+02 -0.17861933089E+03  0.18518900738E+03  0.47000000000E+01 0. -1.
        -13    1    4    4    0    0  0.56753140710E+02 -0.78322020919E+02 -0.64821477967E+02  0.11643488286E+03  0.00000000000E+00 0.  1.
         14    1    4    4    0    0  0.10623883980E+02 -0.14684876438E+02 -0.93598223726E+02  0.95336981238E+02  0.00000000000E+00 0. -1.
         -5    1    5    5    0  502 -0.35067059712E+02  0.44203624766E+02  0.41773577205E+02  0.70361785593E+02  0.47000000000E+01 0.  1.
         11    1    6    6    0    0  0.11125935990E+02 -0.15044321555E+02 -0.65566157614E+01  0.19826933019E+02  0.00000000000E+00 0. -1.
        -12    1    6    6    0    0  0.18877113653E+00  0.85409158868E+02 -0.81444660753E+02  0.11801691751E+03  0.00000000000E+00 0.  1.
</event>
<event>
12    1  0.8135779E-002  0.1734977E+03  0.7818608E-02  0.1174476E+00
         21   -1    0    0  501  502  0.00000000000E+00  0.00000000000E+00  0.21600664656E+03  0.21600664656E+03  0.00000000000E+00 0. -1.
         21   -1    0    0  502  503 -0.00000000000E+00 -0.00000000000E+00 -0.14312059346E+03  0.14312059346E+03  0.00000000000E+00 0. -1.
         -6    2    1    2    0  503  0.14954105689E+02 -0.92137095878E+01  0.45679575638E+01  0.17266329891E+03  0.17170681650E+03 0.  0.
        -24    2    3    3    0    0  0.19751735756E+02  0.57378536174E+01 -0.65478427711E+02  0.10072476551E+03  0.73722451552E+02 0.  0.
          6    2    1    2  501    0 -0.14954105689E+02  0.92137095878E+01  0.68318095537E+02  0.18646394112E+03  0.17260626129E+03 0.  0.
         24    2    5    5    0    0 -0.21418593449E+02 -0.28363179285E+02 -0.11712598428E+02  0.97689991359E+02  0.90238148060E+02 0.  0.
          5    1    5    5  501    0  0.64644877590E+01  0.37576888873E+02  0.80030693965E+02  0.88773949760E+02  0.47000000000E+01 0. -1.
        -11    1    6    6    0    0 -0.48553754556E+02  0.10410060487E+02 -0.56229491233E+01  0.49974533492E+02  0.00000000000E+00 0.  1.
         12    1    6    6    0    0  0.27135161108E+02 -0.38773239773E+02 -0.60896493047E+01  0.47715457867E+02  0.00000000000E+00 0. -1.
         -5    1    3    3    0  503 -0.47976300666E+01 -0.14951563205E+02  0.70046385275E+02  0.71938533392E+02  0.47000000000E+01 0.  1.
         13    1    4    4    0    0 -0.25376305276E+02 -0.11763023209E+02 -0.27204602536E+02  0.39018149413E+02  0.00000000000E+00 0. -1.
        -14    1    4    4    0    0  0.45128041032E+02  0.17500876827E+02 -0.38273825174E+02  0.61706616100E+02  0.00000000000E+00 0.  1.
</event>
<event>
12    1  0.8135779E-002  0.2369937E+03  0.7818608E-02  0.1122164E+00
         21   -1    0    0  503  502  0.00000000000E+00  0.00000000000E+00  0.19975856514E+04  0.19975856514E+04  0.00000000000E+00 0. -1.
         21   -1    0    0  501  503 -0.00000000000E+00 -0.00000000000E+00 -0.28014917566E+02  0.28014917566E+02  0.00000000000E+00 0. -1.
          6    2    1    2  501    0 -0.15196419115E+03 -0.47369972621E+02  0.10614977201E+04  0.10876320319E+04  0.17558188234E+03 0.  0.
         24    2    3    3    0    0 -0.37767184010E+02  0.35248874975E+02  0.40131507058E+03  0.41255422075E+03  0.80488233990E+02 0.  0.
         -6    2    1    2    0  502  0.15196419115E+03  0.47369972621E+02  0.90807301379E+03  0.93796853709E+03  0.17277542795E+03 0.  0.
        -24    2    5    5    0    0  0.73646762251E+02  0.94032441065E+02  0.59571916845E+03  0.61254877689E+03  0.77902059338E+02 0.  0.
          5    1    3    3  501    0 -0.11419700714E+03 -0.82618847595E+02  0.66018264951E+03  0.67507781117E+03  0.47000000000E+01 0. -1.
        -11    1    4    4    0    0 -0.22782366733E+01  0.13777208437E+02  0.62185276348E+01  0.15286331169E+02  0.00000000000E+00 0.  1.
         12    1    4    4    0    0 -0.35488947337E+02  0.21471666538E+02  0.39509654294E+03  0.39726788958E+03  0.00000000000E+00 0. -1.
         -5    1    5    5    0  502  0.78317428896E+02 -0.46662468445E+02  0.31235384534E+03  0.32541976020E+03  0.47000000000E+01 0.  1.
         11    1    6    6    0    0  0.85139763016E+02  0.60834918589E+02  0.49316904601E+03  0.50414816722E+03  0.00000000000E+00 0. -1.
        -12    1    6    6    0    0 -0.11493000766E+02  0.33197522476E+02  0.10255012244E+03  0.10840060968E+03  0.00000000000E+00 0.  1.
</event>
<event>
12    1  0.8135779E-002  0.2297220E+03  0.7818608E-02  0.1129538E+00
         21   -1    0    0  501  502  0.00000000000E+00  0.00000000000E+00  0.38163853266E+03  0.38163853266E+03  0.00000000000E+00 0. -1.
         21   -1    0    0  502  503 -0.00000000000E+00 -0.00000000000E+00 -0.27860855842E+03  0.27860855842E+03  0.00000000000E+00 0.  1.
         -6    2    1    2    0  503  0.10570038299E+03 -0.10718185322E+03 -0.18912154750E+03  0.29755529377E+03  0.17352715205E+03 0.  0.
        -24    2    3    3    0    0  0.68263500690E+02 -0.14126613071E+03 -0.16120832810E+03  0.23955101853E+03  0.82344035727E+02 0.  0.
          6    2    1    2  501    0 -0.10570038299E+03  0.10718185322E+03  0.29215152174E+03  0.36269179732E+03  0.15340243662E+03 0.  0.
         24    2    5    5    0    0 -0.10910867507E+00  0.44415491476E+02  0.13669506190E+03  0.16450518252E+03  0.80022917599E+02 0.  0.
          5    1    5    5  501    0 -0.10559127431E+03  0.62766361745E+02  0.15545645984E+03  0.19818661479E+03  0.47000000000E+01 0. -1.
        -13    1    6    6    0    0 -0.77233861588E+01 -0.17892149757E+02  0.71067781299E+02  0.73691310583E+02  0.00000000000E+00 0.  1.
         14    1    6    6    0    0  0.76142774838E+01  0.62307641232E+02  0.65627280603E+02  0.90813871941E+02  0.00000000000E+00 0. -1.
         -5    1    3    3    0  503  0.37436882297E+02  0.34084277491E+02 -0.27913219399E+02  0.58004275234E+02  0.47000000000E+01 0.  1.
         11    1    4    4    0    0  0.85506776557E+01 -0.80913698218E+02 -0.37693645797E+02  0.89671353180E+02  0.00000000000E+00 0. -1.
        -12    1    4    4    0    0  0.59712823034E+02 -0.60352432493E+02 -0.12351468230E+03  0.14987966535E+03  0.00000000000E+00 0.  1.
</event>
<event>
12    1  0.8135779E-002  0.1811404E+03  0.7818608E-02  0.1166949E+00
         21   -1    0    0  501  502  0.00000000000E+00  0.00000000000E+00  0.61735222367E+02  0.61735222367E+02  0.00000000000E+00 0. -1.
         21   -1    0    0  502  503 -0.00000000000E+00 -0.00000000000E+00 -0.56977612225E+03  0.56977612225E+03  0.00000000000E+00 0. -1.
         -6    2    1    2    0  503  0.51827702915E+02 -0.22664821546E+02 -0.33832762313E+03  0.38328880369E+03  0.17101146611E+03 0.  0.
        -24    2    3    3    0    0  0.78970788039E+02 -0.61359077191E+02 -0.20613002908E+03  0.24281714690E+03  0.80431686687E+02 0.  0.
          6    2    1    2  501    0 -0.51827702915E+02  0.22664821546E+02 -0.16971327675E+03  0.24822254092E+03  0.17208145917E+03 0.  0.
         24    2    5    5    0    0  0.12707753174E+02  0.63879381315E+02 -0.11329593103E+03  0.15299401616E+03  0.79555883790E+02 0.  0.
          5    1    5    5  501    0 -0.64535456090E+02 -0.41214559768E+02 -0.56417345726E+02  0.95228524762E+02  0.47000000000E+01 0. -1.
        -13    1    6    6    0    0  0.12625309826E+02 -0.91561378726E+01 -0.61524426211E+02  0.63470373636E+02  0.00000000000E+00 0.  1.
         14    1    6    6    0    0  0.82443348278E-01  0.73035519187E+02 -0.51771504817E+02  0.89523642525E+02  0.00000000000E+00 0. -1.
         -5    1    3    3    0  503 -0.27143085124E+02  0.38694255645E+02 -0.13219759405E+03  0.14047165679E+03  0.47000000000E+01 0.  1.
         11    1    4    4    0    0  0.26727119321E+02 -0.70300672904E+02 -0.11561425402E+03  0.13792454187E+03  0.00000000000E+00 0. -1.
        -12    1    4    4    0    0  0.52243668718E+02  0.89415957131E+01 -0.90515775068E+02  0.10489260504E+03  0.00000000000E+00 0.  1.
</event>
<event>
12    1  0.8135779E-002  0.2167457E+03  0.7818608E-02  0.1136666E+00
         21   -1    0    0  503  502  0.00000000000E+00  0.00000000000E+00  0.24318595577E+03  0.24318595577E+03  0.00000000000E+00 0. -1.
         21   -1    0    0  501  503 -0.00000000000E+00 -0.00000000000E+00 -0.36961498564E+03  0.36961498564E+03  0.00000000000E+00 0. -1.
          6    2    1    2  501    0 -0.83770960286E+02  0.10125017461E+03 -0.27570433301E+03  0.34962453533E+03  0.17016246595E+03 0.  0.
         24    2    3    3    0    0 -0.70025163482E+02  0.21611846058E+01 -0.18961431518E+03  0.21755956632E+03  0.80438685573E+02 0.  0.
         -6    2    1    2    0  502  0.83770960286E+02 -0.10125017461E+03  0.14927530314E+03  0.26317640608E+03  0.17236453505E+03 0.  0.
        -24    2    5    5    0    0  0.92670057334E+02 -0.10943095572E+03  0.17162330858E+03  0.23733762796E+03  0.79446308923E+02 0.  0.
          5    1    3    3  501    0 -0.13745796804E+02  0.99088990002E+02 -0.86090017834E+02  0.13206496901E+03  0.47000000000E+01 0. -1.
        -13    1    4    4    0    0 -0.57027111572E+02 -0.11529854413E+02 -0.50115895319E+02  0.76789530280E+02  0.00000000000E+00 0.  1.
         14    1    4    4    0    0 -0.12998051910E+02  0.13691039019E+02 -0.13949841986E+03  0.14077003604E+03  0.00000000000E+00 0. -1.
         -5    1    5    5    0  502 -0.88990970478E+01  0.81807811143E+01 -0.22348005435E+02  0.25838778121E+02  0.47000000000E+01 0.  1.
         13    1    6    6    0    0 -0.13266176080E+02 -0.37595524935E+01  0.20200639377E+02  0.24457953593E+02  0.00000000000E+00 0. -1.
        -14    1    6    6    0    0  0.10593623341E+03 -0.10567140323E+03  0.15142266920E+03  0.21287967437E+03  0.00000000000E+00 0.  1.
</event>
<event>
12    1  0.8135779E-002  0.2294380E+03  0.7818608E-02  0.1127287E+00
         21   -1    0    0  501  502  0.00000000000E+00  0.00000000000E+00  0.35630505005E+03  0.35630505005E+03  0.00000000000E+00 0. -1.
         21   -1    0    0  502  503 -0.00000000000E+00 -0.00000000000E+00 -0.17124403608E+03  0.17124403608E+03  0.00000000000E+00 0. -1.
         -6    2    1    2    0  503  0.37526431095E+02 -0.14635937712E+03  0.19187671164E+03  0.29800983605E+03  0.17077438218E+03 0.  0.
        -24    2    3    3    0    0  0.89696209254E+02 -0.10963695785E+03  0.15767241946E+03  0.22546850001E+03  0.76875094516E+02 0.  0.
          6    2    1    2  501    0 -0.37526431095E+02  0.14635937712E+03 -0.68156976768E+01  0.22953925009E+03  0.17266300499E+03 0.  0.
         24    2    5    5    0    0 -0.83912123429E+02  0.86747162301E+02  0.42416547257E+02  0.13925551650E+03  0.55014732286E+02 0.  0.
          5    1    5    5  501    0  0.46385692334E+02  0.59612214822E+02 -0.49232244934E+02  0.90283733587E+02  0.47000000000E+01 0. -1.
        -11    1    6    6    0    0 -0.12927499091E+02  0.50475923272E+02  0.92659953494E+01  0.52922563550E+02  0.00000000000E+00 0.  1.
         12    1    6    6    0    0 -0.70984624338E+02  0.36271239029E+02  0.33150551907E+02  0.86332952949E+02  0.00000000000E+00 0. -1.
         -5    1    3    3    0  503 -0.52169778159E+02 -0.36722419272E+02  0.34204292179E+02  0.72541336036E+02  0.47000000000E+01 0.  1.
         11    1    4    4    0    0 -0.58045194736E+01 -0.45486342259E+02  0.39185253061E+02  0.60317359325E+02  0.00000000000E+00 0. -1.
        -12    1    4    4    0    0  0.95500728728E+02 -0.64150615592E+02  0.11848716640E+03  0.16515114069E+03  0.00000000000E+00 0.  1.
</event>
<event>
12    1  0.8135779E-002  0.2275737E+03  0.7818608E-02  0.1128548E+00
         21   -1    0    0  503  502  0.00000000000E+00  0.00000000000E+00  0.23444394059E+03  0.23444394059E+03  0.00000000000E+00 0.  1.
         21   -1    0    0  501  503 -0.00000000000E+00 -0.00000000000E+00 -0.34549057862E+03  0.34549057862E+03  0.00000000000E+00 0. -1.
          6    2    1    2  501    0 -0.13478031937E+03  0.61588367069E+02 -0.23044721756E+03  0.32387604894E+03  0.17271628051E+03 0.  0.
         24    2    3    3    0    0 -0.17317920937E+02  0.76383344166E+02 -0.99621752732E+02  0.14737194520E+03  0.75230784669E+02 0.  0.
         -6    2    1    2    0  502  0.13478031937E+03 -0.61588367069E+02  0.11940057953E+03  0.25605847027E+03  0.17132011077E+03 0.  0.
        -24    2    5    5    0    0  0.64317442486E+02 -0.52576060736E+02 -0.25008990485E+01  0.11489084237E+03  0.79326386496E+02 0.  0.
          5    1    3    3  501    0 -0.11746239844E+03 -0.14794977097E+02 -0.13082546482E+03  0.17650410375E+03  0.47000000000E+01 0. -1.
        -13    1    4    4    0    0  0.65810372027E+01  0.71304772893E+02 -0.37962399414E+02  0.81048284728E+02  0.00000000000E+00 0.  1.
         14    1    4    4    0    0 -0.23898958140E+02  0.50785712728E+01 -0.61659353318E+02  0.66323660468E+02  0.00000000000E+00 0. -1.
         -5    1    5    5    0  502  0.70462876886E+02 -0.90123063336E+01  0.12190147858E+03  0.14116762789E+03  0.47000000000E+01 0.  1.
         13    1    6    6    0    0 -0.76640610382E+01 -0.39535473487E+02  0.77879805715E+01  0.41017607644E+02  0.00000000000E+00 0. -1.
        -14    1    6    6    0    0  0.71981503525E+02 -0.13040587249E+02 -0.10288879620E+02  0.73873234729E+02  0.00000000000E+00 0.  1.
</event>
<event>
12    1  0.8135779E-002  0.1893069E+03  0.7818608E-02  0.1159293E+00
         21   -1    0    0  503  502  0.00000000000E+00  0.00000000000E+00  0.51093573975E+03  0.51093573975E+03  0.00000000000E+00 0.  1.
         21   -1    0    0  501  503 -0.00000000000E+00 -0.00000000000E+00 -0.72978191278E+02  0.72978191278E+02  0.00000000000E+00 0.  1.
          6    2    1    2  501    0  0.34812195410E+02  0.70178387833E+02  0.15760270198E+03  0.24563009656E+03  0.17134362432E+03 0.  0.
         24    2    3    3    0    0  0.24561082050E+02 -0.25664034540E+02  0.10178454375E+03  0.13414641148E+03  0.79832806195E+02 0.  0.
         -6    2    1    2    0  502 -0.34812195410E+02 -0.70178387833E+02  0.28035484649E+03  0.33828383447E+03  0.17233751085E+03 0.  0.
        -24    2    5    5    0    0  0.25376861464E+02 -0.93213421357E+02  0.18846739426E+03  0.22595071730E+03  0.78746688361E+02 0.  0.
          5    1    3    3  501    0  0.10251113360E+02  0.95842422373E+02  0.55818158232E+02  0.11148368508E+03  0.47000000000E+01 0. -1.
        -13    1    4    4    0    0  0.30312040797E+02  0.14624876970E+02  0.82520988910E+02  0.89120258384E+02  0.00000000000E+00 0.  1.
         14    1    4    4    0    0 -0.57509587474E+01 -0.40288911510E+02  0.19263554842E+02  0.45026153093E+02  0.00000000000E+00 0. -1.
         -5    1    5    5    0  502 -0.60189056874E+02  0.23035033525E+02  0.91887452230E+02  0.11233311717E+03  0.47000000000E+01 0.  1.
         11    1    6    6    0    0  0.49464886843E+02 -0.41986576647E+02  0.12549589243E+03  0.14127585309E+03  0.00000000000E+00 0. -1.
        -12    1    6    6    0    0 -0.24088025379E+02 -0.51226844710E+02  0.62971501828E+02  0.84674864204E+02  0.00000000000E+00 0.  1.
</event>
<event>
12    1  0.8135779E-002  0.2589572E+03  0.7818608E-02  0.1108514E+00
         21   -1    0    0  501  502  0.00000000000E+00  0.00000000000E+00  0.19090626522E+03  0.19090626522E+03  0.00000000000E+00 0.  1.
         21   -1    0    0  502  503 -0.00000000000E+00 -0.00000000000E+00 -0.58715663517E+03  0.58715663517E+03  0.00000000000E+00 0. -1.
         -6    2    1    2    0  503  0.13022734320E+03  0.13431780266E+03 -0.44701139641E+03  0.51417747245E+03  0.17192687872E+03 0.  0.
        -24    2    3    3    0    0  0.14637959769E+03  0.15156575262E+03 -0.42602388838E+03  0.48222512361E+03  0.81520257521E+02 0.  0.
          6    2    1    2  501    0 -0.13022734320E+03 -0.13431780266E+03  0.50761026468E+02  0.26388542794E+03  0.17904860860E+03 0.  0.
         24    2    5    5    0    0 -0.13228982705E+03 -0.58025211130E+02  0.77625939129E+02  0.18283836202E+03  0.80848974841E+02 0.  0.
          5    1    5    5  501    0  0.20624838478E+01 -0.76292591530E+02 -0.26864912661E+02  0.81047065920E+02  0.47000000000E+01 0. -1.
        -11    1    6    6    0    0 -0.72972446785E+02  0.39469331422E+01  0.10327082943E+02  0.73805182156E+02  0.00000000000E+00 0.  1.
         12    1    6    6    0    0 -0.59317380266E+02 -0.61972144272E+02  0.67298856186E+02  0.10903317986E+03  0.00000000000E+00 0. -1.
         -5    1    3    3    0  503 -0.16152254486E+02 -0.17247949961E+02 -0.20987508031E+02  0.31952348837E+02  0.47000000000E+01 0.  1.
         13    1    4    4    0    0  0.10764513307E+03  0.14618507080E+03 -0.30392901929E+03  0.35402033609E+03  0.00000000000E+00 0. -1.
        -14    1    4    4    0    0  0.38734464621E+02  0.53806818232E+01 -0.12209486909E+03  0.12820478752E+03  0.00000000000E+00 0.  1.
</event>
<event>
12    1  0.8135779E-002  0.2104793E+03  0.7818608E-02  0.1141461E+00
         21   -1    0    0  501  502  0.00000000000E+00  0.00000000000E+00  0.29246989176E+03  0.29246989176E+03  0.00000000000E+00 0.  1.
         21   -1    0    0  502  503 -0.00000000000E+00 -0.00000000000E+00 -0.19665989027E+03  0.19665989027E+03  0.00000000000E+00 0.  1.
         -6    2    1    2    0  503  0.10556888985E+03  0.59352537718E+02 -0.70487468458E+02  0.22196848686E+03  0.17214532149E+03 0.  0.
        -24    2    3    3    0    0  0.12491062745E+03  0.75190034625E+02 -0.22276950678E+02  0.16745910100E+03  0.79310036056E+02 0.  0.
          6    2    1    2  501    0 -0.10556888985E+03 -0.59352537718E+02  0.16629746994E+03  0.26716129517E+03  0.17044880431E+03 0.  0.
         24    2    5    5    0    0 -0.80368684196E+02 -0.87327299961E+01  0.17605885307E+03  0.20958708306E+03  0.79966490913E+02 0.  0.
          5    1    5    5  501    0 -0.25200205654E+02 -0.50619807722E+02 -0.97613831320E+01  0.57574212105E+02  0.47000000000E+01 0. -1.
        -11    1    6    6    0    0 -0.77128710015E+02 -0.11149798354E+02  0.74060511731E+02  0.10750867551E+03  0.00000000000E+00 0.  1.
         12    1    6    6    0    0 -0.32399741810E+01  0.24170683578E+01  0.10199834134E+03  0.10207840755E+03  0.00000000000E+00 0. -1.
         -5    1    3    3    0  503 -0.19341737605E+02 -0.15837496907E+02 -0.48210517780E+02  0.54509385857E+02  0.47000000000E+01 0.  1.
         13    1    4    4    0    0  0.21789687852E+02 -0.24782463648E+01  0.21918518905E+02  0.31005703874E+02  0.00000000000E+00 0. -1.
        -14    1    4    4    0    0  0.10312093960E+03  0.77668280990E+02 -0.44195469583E+02  0.13645339713E+03  0.00000000000E+00 0.  1.
</event>
<event>
12    1  0.8135779E-002  0.1901737E+03  0.7818608E-02  0.1158739E+00
         21   -1    0    0  501  502  0.00000000000E+00  0.00000000000E+00  0.15478427187E+04  0.15478427187E+04  0.00000000000E+00 0. -1.
         21   -1    0    0  502  503 -0.00000000000E+00 -0.00000000000E+00 -0.16538365479E+03  0.16538365479E+03  0.00000000000E+00 0. -1.
         -6    2    1    2    0  503  0.73588556401E+02 -0.20753442199E+02 -0.10273475032E+03  0.21614913353E+03  0.17412650001E+03 0.  0.
        -24    2    3    3    0    0  0.84664284518E+01  0.49040224411E+02 -0.43909715741E+02  0.10392381491E+03  0.79971695911E+02 0.  0.
          6    2    1    2  501    0 -0.73588556401E+02  0.20753442199E+02  0.14851938143E+04  0.14970772400E+04  0.17202794999E+03 0.  0.
         24    2    5    5    0    0  0.12176628753E+02  0.51561178308E+02  0.88918866505E+03  0.89412698377E+03  0.77458089676E+02 0.  0.
          5    1    5    5  501    0 -0.85765185154E+02 -0.30807736109E+02  0.59600514921E+03  0.60295025622E+03  0.47000000000E+01 0. -1.
        -11    1    6    6    0    0  0.27442179281E+02  0.55233905581E+02  0.40366147697E+03  0.40834598752E+03  0.00000000000E+00 0.  1.
         12    1    6    6    0    0 -0.15265550528E+02 -0.36727272726E+01  0.48552718808E+03  0.48578099625E+03  0.00000000000E+00 0. -1.
         -5    1    3    3    0  503  0.65122127950E+02 -0.69793666611E+02 -0.58825034579E+02  0.11222531863E+03  0.47000000000E+01 0.  1.
         11    1    4    4    0    0  0.34917936124E+02  0.53703500204E+02 -0.42802796461E+02  0.77041596441E+02  0.00000000000E+00 0. -1.
        -12    1    4    4    0    0 -0.26451507672E+02 -0.46632757930E+01 -0.11069192806E+01  0.26882218464E+02  0.00000000000E+00 0.  1.
</event>
<event>
12    1  0.8135779E-002  0.1774034E+03  0.7818608E-02  0.1170769E+00
         21   -1    0    0  503  502  0.00000000000E+00  0.00000000000E+00  0.44493259055E+03  0.44493259055E+03  0.00000000000E+00 0.  1.
         21   -1    0    0  501  503 -0.00000000000E+00 -0.00000000000E+00 -0.71441387272E+02  0.71441387272E+02  0.00000000000E+00 0.  1.
          6    2    1    2  501    0 -0.53579143651E+01  0.33371398182E+02  0.22192403182E+03  0.28304038266E+03  0.17239264734E+03 0.  0.
         24    2    3    3    0    0 -0.22085875446E+02  0.54979980583E+02  0.53958862496E+02  0.11280189224E+03  0.79385917467E+02 0.  0.
         -6    2    1    2    0  502  0.53579143651E+01 -0.33371398182E+02  0.15156717146E+03  0.23333359516E+03  0.17415395977E+03 0.  0.
        -24    2    5    5    0    0  0.26723141365E+02  0.40503673385E+02  0.51630028173E+02  0.10714515777E+03  0.80372577298E+02 0.  0.
          5    1    3    3  501    0  0.16727961081E+02 -0.21608582401E+02  0.16796516932E+03  0.17023849042E+03  0.47000000000E+01 0. -1.
        -11    1    4    4    0    0  0.11376490596E+00  0.34529330646E+02  0.70413715374E+02  0.78424351639E+02  0.00000000000E+00 0.  1.
         12    1    4    4    0    0 -0.22199640352E+02  0.20450649938E+02 -0.16454852877E+02  0.34377540602E+02  0.00000000000E+00 0. -1.
         -5    1    5    5    0  502 -0.21365227000E+02 -0.73875071568E+02  0.99937143290E+02  0.12618843740E+03  0.47000000000E+01 0.  1.
         11    1    6    6    0    0  0.53810229364E+02  0.30424983669E+02  0.47482962102E+02  0.77947752408E+02  0.00000000000E+00 0. -1.
        -12    1    6    6    0    0 -0.27087087999E+02  0.10078689716E+02  0.41470660712E+01  0.29197405358E+02  0.00000000000E+00 0.  1.
</event>
<event>
12    1  0.8135779E-002  0.2248599E+03  0.7818608E-02  0.1132213E+00
         21   -1    0    0  503  502  0.00000000000E+00  0.00000000000E+00  0.39440067778E+03  0.39440067778E+03  0.00000000000E+00 0. -1.
         21   -1    0    0  501  503 -0.00000000000E+00 -0.00000000000E+00 -0.12481332282E+03  0.12481332282E+03  0.00000000000E+00 0.  1.
          6    2    1    2  501    0  0.11284669057E+03 -0.63457851844E+02  0.17376252744E+03  0.28417489509E+03  0.18384961388E+03 0.  0.
         24    2    3    3    0    0  0.32278227363E+01 -0.53069365645E+02  0.13752701561E+03  0.16816058930E+03  0.80854977342E+02 0.  0.
         -6    2    1    2    0  502 -0.11284669057E+03  0.63457851844E+02  0.95824827520E+02  0.23503910550E+03  0.17117157770E+03 0.  0.
        -24    2    5    5    0    0 -0.94668833183E+01  0.25775326771E+02  0.10046016029E+03  0.12480783247E+03  0.68780534246E+02 0.  0.
          5    1    3    3  501    0  0.10961886784E+03 -0.10388486199E+02  0.36235511830E+02  0.11601430580E+03  0.47000000000E+01 0. -1.
        -11    1    4    4    0    0 -0.42902253956E+01 -0.23228951886E+02 -0.34425332184E+01  0.23871348404E+02  0.00000000000E+00 0.  1.
         12    1    4    4    0    0  0.75180481319E+01 -0.29840413760E+02  0.14096954883E+03  0.14428924089E+03  0.00000000000E+00 0. -1.
         -5    1    5    5    0  502 -0.10337980726E+03  0.37682525073E+02 -0.46353327668E+01  0.11023127303E+03  0.47000000000E+01 0.  1.
         11    1    6    6    0    0  0.21904140942E+02 -0.63822789986E+01  0.60586510114E+02  0.64739864716E+02  0.00000000000E+00 0. -1.
        -12    1    6    6    0    0 -0.31371024261E+02  0.32157605770E+02  0.39873650172E+02  0.60067967754E+02  0.00000000000E+00 0.  1.
</event>
<event>
12    1  0.8135779E-002  0.2273051E+03  0.7818608E-02  0.1128865E+00
         21   -1    0    0  503  502  0.00000000000E+00  0.00000000000E+00  0.73497518828E+03  0.73497518828E+03  0.00000000000E+00 0.  1.
         21   -1    0    0  501  503 -0.00000000000E+00 -0.00000000000E+00 -0.76205436046E+02  0.76205436046E+02  0.00000000000E+00 0. -1.
          6    2    1    2  501    0  0.14568955242E+03 -0.83852300679E+00  0.44852261770E+03  0.50283211646E+03  0.17447478312E+03 0.  0.
         24    2    3    3    0    0  0.16905682663E+03  0.16011938050E+02  0.42588995171E+03  0.46589575075E+03  0.82704333670E+02 0.  0.
         -6    2    1    2    0  502 -0.14568955242E+03  0.83852300679E+00  0.21024713453E+03  0.30834850786E+03  0.17218825721E+03 0.  0.
        -24    2    5    5    0    0 -0.16506636764E+03 -0.26955958332E+02  0.20084737471E+03  0.27287401498E+03  0.78403001899E+02 0.  0.
          5    1    3    3  501    0 -0.23367274207E+02 -0.16850461057E+02  0.22632665989E+02  0.36936365705E+02  0.47000000000E+01 0. -1.
        -13    1    4    4    0    0  0.83884636473E+02  0.12286210288E+02  0.31390382187E+03  0.32515103042E+03  0.00000000000E+00 0.  1.
         14    1    4    4    0    0  0.85172190157E+02  0.37257277623E+01  0.11198612984E+03  0.14074472033E+03  0.00000000000E+00 0. -1.
         -5    1    5    5    0  502  0.19376815217E+02  0.27794481339E+02  0.93997598125E+01  0.35474492884E+02  0.47000000000E+01 0.  1.
         11    1    6    6    0    0 -0.83073890510E+02  0.22920454461E+02  0.11781620269E+03  0.14597012069E+03  0.00000000000E+00 0. -1.
        -12    1    6    6    0    0 -0.81992477130E+02 -0.49876412794E+02  0.83031172022E+02  0.12690389429E+03  0.00000000000E+00 0.  1.
</event>
<event>
12    1  0.8135779E-002  0.1927437E+03  0.7818608E-02  0.1156266E+00
         21   -1    0    0  501  502  0.00000000000E+00  0.00000000000E+00  0.73747123788E+02  0.73747123788E+02  0.00000000000E+00 0.  1.
         21   -1    0    0  502  503 -0.00000000000E+00 -0.00000000000E+00 -0.87560634482E+03  0.87560634482E+03  0.00000000000E+00 0.  1.
         -6    2    1    2    0  503  0.15075961974E+02 -0.91235830302E+02 -0.71082642543E+03  0.73619363799E+03  0.16779631753E+03 0.  0.
        -24    2    3    3    0    0 -0.38214188289E+01 -0.38134811530E+02 -0.16361137079E+03  0.18606343957E+03  0.79887770032E+02 0.  0.
          6    2    1    2  501    0 -0.15075961974E+02  0.91235830302E+02 -0.91032795604E+02  0.21315983061E+03  0.16911204023E+03 0.  0.
         24    2    5    5    0    0  0.38813043842E+01 -0.12620094056E+02 -0.64558402959E+02  0.10421757785E+03  0.80741469159E+02 0.  0.
          5    1    5    5  501    0 -0.18957266359E+02  0.10385592436E+03 -0.26474392645E+02  0.10894225277E+03  0.47000000000E+01 0. -1.
        -13    1    6    6    0    0 -0.31011543784E+02 -0.84079274015E+01 -0.16699859175E+01  0.32174492133E+02  0.00000000000E+00 0.  1.
         14    1    6    6    0    0  0.34892848168E+02 -0.42121666547E+01 -0.62888417041E+02  0.72043085714E+02  0.00000000000E+00 0. -1.
         -5    1    3    3    0  503  0.18897380803E+02 -0.53101018773E+02 -0.54721505463E+03  0.55013019842E+03  0.47000000000E+01 0.  1.
         11    1    4    4    0    0 -0.38042868532E+02 -0.36276059736E+02 -0.80269521920E+02  0.95950031295E+02  0.00000000000E+00 0. -1.
        -12    1    4    4    0    0  0.34221449703E+02 -0.18587517936E+01 -0.83341848874E+02  0.90113408280E+02  0.00000000000E+00 0.  1.
</event>
<event>
12    1  0.8135779E-002  0.2124215E+03  0.7818608E-02  0.1140728E+00
         21   -1    0    0  503  502  0.00000000000E+00  0.00000000000E+00  0.10745183933E+03  0.10745183933E+03  0.00000000000E+00 0.  1.
         21   -1    0    0  501  503 -0.00000000000E+00 -0.00000000000E+00 -0.41542813345E+03  0.41542813345E+03  0.00000000000E+00 0. -1.
          6    2    1    2  501    0  0.56693565279E+02 -0.99595297738E+02 -0.18755072910E+03  0.28336932131E+03  0.17885612262E+03 0.  0.
         24    2    3    3    0    0  0.62280327926E+02  0.55830716063E+01 -0.61676424154E+02  0.11917391352E+03  0.80550794106E+02 0.  0.
         -6    2    1    2    0  502 -0.56693565279E+02  0.99595297738E+02 -0.12042556502E+03  0.23951065147E+03  0.17242288647E+03 0.  0.
        -24    2    5    5    0    0 -0.21675486051E+02  0.11659495175E+03 -0.41613490038E+02  0.15148402326E+03  0.84566644017E+02 0.  0.
          5    1    3    3  501    0 -0.55867626472E+01 -0.10517836934E+03 -0.12587430495E+03  0.16419540779E+03  0.47000000000E+01 0. -1.
        -11    1    4    4    0    0 -0.14008236697E+00  0.29655862021E+02 -0.23370351639E+01  0.29748134541E+02  0.00000000000E+00 0.  1.
         12    1    4    4    0    0  0.62420410293E+02 -0.24072790415E+02 -0.59339388990E+02  0.89425778975E+02  0.00000000000E+00 0. -1.
         -5    1    5    5    0  502 -0.35018079228E+02 -0.16999654015E+02 -0.78812074985E+02  0.88026628204E+02  0.47000000000E+01 0.  1.
         11    1    6    6    0    0 -0.35212653902E+02  0.11737642562E+03 -0.53251635825E+02  0.13361471851E+03  0.00000000000E+00 0. -1.
        -12    1    6    6    0    0  0.13537167851E+02 -0.78147386223E+00  0.11638145787E+02  0.17869304748E+02  0.00000000000E+00 0.  1.
</event>
<event>
12    1  0.8135779E-002  0.1791910E+03  0.7818608E-02  0.1168682E+00
         21   -1    0    0  501  502  0.00000000000E+00  0.00000000000E+00  0.59897923464E+03  0.59897923464E+03  0.00000000000E+00 0. -1.
         21   -1    0    0  502  503 -0.00000000000E+00 -0.00000000000E+00 -0.11138865852E+03  0.11138865852E+03  0.00000000000E+00 0. -1.
         -6    2    1    2    0  503 -0.16667470119E+02 -0.47329142268E+02 -0.12148926697E+02  0.17960233116E+03  0.17202194240E+03 0.  0.
        -24    2    3    3    0    0  0.90003760804E+01  0.30691959443E+02 -0.35936498654E+02  0.93963150752E+02  0.80713311291E+02 0.  0.
          6    2    1    2  501    0  0.16667470119E+02  0.47329142268E+02  0.49973950281E+03  0.53076556201E+03  0.17162359648E+03 0.  0.
         24    2    5    5    0    0 -0.32783612024E+02 -0.27964490467E+02  0.25547896992E+03  0.27038154064E+03  0.77329784043E+02 0.  0.
          5    1    5    5  501    0  0.49451082143E+02  0.75293632735E+02  0.24426053289E+03  0.26038402137E+03  0.47000000000E+01 0. -1.
        -11    1    6    6    0    0 -0.24351470643E+01 -0.43494952720E+02  0.20426344398E+03  0.20885711719E+03  0.00000000000E+00 0.  1.
         12    1    6    6    0    0 -0.30348464959E+02  0.15530462253E+02  0.51215525942E+02  0.61524423449E+02  0.00000000000E+00 0. -1.
         -5    1    3    3    0  503 -0.25667846200E+02 -0.78021101711E+02  0.23787571957E+02  0.85639180404E+02  0.47000000000E+01 0.  1.
         11    1    4    4    0    0  0.34874878357E+02 -0.55776138846E+01  0.21022239614E+01  0.35380591610E+02  0.00000000000E+00 0. -1.
        -12    1    4    4    0    0 -0.25874502277E+02  0.36269573328E+02 -0.38038722615E+02  0.58582559142E+02  0.00000000000E+00 0.  1.
</event>
<event>
12    1  0.8135779E-002  0.2088124E+03  0.7818608E-02  0.1142871E+00
         21   -1    0    0  501  502  0.00000000000E+00  0.00000000000E+00  0.86267255182E+02  0.86267255182E+02  0.00000000000E+00 0. -1.
         21   -1    0    0  502  503 -0.00000000000E+00 -0.00000000000E+00 -0.50219275223E+03  0.50219275223E+03  0.00000000000E+00 0.  1.
         -6    2    1    2    0  503  0.42016446227E+02 -0.11032397971E+03 -0.19502899602E+03  0.28572524720E+03  0.17223775820E+03 0.  0.
        -24    2    3    3    0    0 -0.12218695573E+02 -0.10266736208E+03 -0.66437111969E+02  0.14587519521E+03  0.78586251806E+02 0.  0.
          6    2    1    2  501    0 -0.42016446227E+02  0.11032397971E+03 -0.22089650103E+03  0.30273476021E+03  0.17004795976E+03 0.  0.
         24    2    5    5    0    0  0.33973831247E+02  0.34540378299E+02 -0.71413296392E+02  0.11865598636E+03  0.81437861304E+02 0.  0.
          5    1    5    5  501    0 -0.75990277474E+02  0.75783601415E+02 -0.14948320464E+03  0.18407877385E+03  0.47000000000E+01 0. -1.
        -11    1    6    6    0    0  0.61085857169E+01  0.63542727076E+01 -0.77983607777E+02  0.78480154708E+02  0.00000000000E+00 0.  1.
         12    1    6    6    0    0  0.27865245530E+02  0.28186105592E+02  0.65703113851E+01  0.40175831647E+02  0.00000000000E+00 0. -1.
         -5    1    3    3    0  503  0.54235141800E+02 -0.76566176358E+01 -0.12859188405E+03  0.13985005200E+03  0.47000000000E+01 0.  1.
         13    1    4    4    0    0  0.28621472610E+02 -0.51438452779E+02 -0.10639622067E+02  0.59818932424E+02  0.00000000000E+00 0. -1.
        -14    1    4    4    0    0 -0.40840168183E+02 -0.51228909299E+02 -0.55797489901E+02  0.86056262785E+02  0.00000000000E+00 0.  1.
</event>
<event>
12    1  0.8135779E-002  0.2267530E+03  0.7818608E-02  0.1128982E+00
         21   -1    0    0  501  502  0.00000000000E+00  0.00000000000E+00  0.49009942252E+03  0.49009942252E+03  0.00000000000E+00 0.  1.
         21   -1    0    0  502  503 -0.00000000000E+00 -0.00000000000E+00 -0.12742821375E+03  0.12742821375E+03  0.00000000000E+00 0.  1.
         -6    2    1    2    0  503 -0.13968886730E+03 -0.48355633482E+02  0.51345212528E+02  0.23249354616E+03  0.17194671041E+03 0.  0.
        -24    2    3    3    0    0 -0.10110064702E+03 -0.85346561913E+02  0.78065446395E+02  0.17254823418E+03  0.78570368076E+02 0.  0.
          6    2    1    2  501    0  0.13968886730E+03  0.48355633482E+02  0.31132599624E+03  0.38503409011E+03  0.17168613127E+03 0.  0.
         24    2    5    5    0    0  0.56345685428E+02  0.34181603317E+02  0.27404672067E+03  0.29252018044E+03  0.78251086763E+02 0.  0.
          5    1    5    5  501    0  0.83343181870E+02  0.14174030165E+02  0.37279275567E+02  0.92513909669E+02  0.47000000000E+01 0. -1.
        -11    1    6    6    0    0  0.61100695822E+02 -0.45181475608E+01  0.19467836688E+03  0.20409158537E+03  0.00000000000E+00 0.  1.
         12    1    6    6    0    0 -0.47550103940E+01  0.38699750878E+02  0.79368353789E+02  0.88428595064E+02  0.00000000000E+00 0. -1.
         -5    1    3    3    0  503 -0.38588220276E+02  0.36990928431E+02 -0.26720233868E+02  0.59945311978E+02  0.47000000000E+01 0.  1.
         11    1    4    4    0    0 -0.12574121218E+02 -0.11648215428E+01  0.43926913616E+02  0.45706006974E+02  0.00000000000E+00 0. -1.
        -12    1    4    4    0    0 -0.88526525804E+02 -0.84181740370E+02  0.34138532779E+02  0.12684222721E+03  0.00000000000E+00 0.  1.
</event>
<event>
12    1  0.8135779E-002  0.1734687E+03  0.7818608E-02  0.1175440E+00
         21   -1    0    0  501  502  0.00000000000E+00  0.00000000000E+00  0.13852373230E+04  0.13852373230E+04  0.00000000000E+00 0.  1.
         21   -1    0    0  502  503 -0.00000000000E+00 -0.00000000000E+00 -0.22188992295E+02  0.22188992295E+02  0.00000000000E+00 0.  1.
         -6    2    1    2    0  503 -0.16031377613E+02 -0.50900460286E+01  0.53867316784E+03  0.56591534506E+03  0.17265133183E+03 0.  0.
        -24    2    3    3    0    0  0.45687840503E+02 -0.32517237429E+02  0.39222842520E+03  0.40457822794E+03  0.81826985075E+02 0.  0.
          6    2    1    2  501    0  0.16031377613E+02  0.50900460286E+01  0.82437516291E+03  0.84151097028E+03  0.16811719201E+03 0.  0.
         24    2    5    5    0    0  0.43780784023E+02 -0.44124363402E+02  0.65700971132E+03  0.66480394712E+03  0.80242201085E+02 0.  0.
          5    1    5    5  501    0 -0.27749406409E+02  0.49214409430E+02  0.16736545158E+03  0.17670702316E+03  0.47000000000E+01 0. -1.
        -11    1    6    6    0    0 -0.97867179363E+01  0.34479851991E+01  0.32440655810E+03  0.32457246246E+03  0.00000000000E+00 0.  1.
         12    1    6    6    0    0  0.53567501959E+02 -0.47572348601E+02  0.33260315322E+03  0.34023148466E+03  0.00000000000E+00 0. -1.
         -5    1    3    3    0  503 -0.61719218116E+02  0.27427191400E+02  0.14644474264E+03  0.16133711712E+03  0.47000000000E+01 0.  1.
         13    1    4    4    0    0  0.21971826488E+02 -0.34432583786E+02  0.36924464475E+03  0.37149693358E+03  0.00000000000E+00 0. -1.
        -14    1    4    4    0    0  0.23716014015E+02  0.19153463572E+01  0.22983780454E+02  0.33081294358E+02  0.00000000000E+00 0.  1.
</event>
<event>
12    1  0.8135779E-002  0.1850236E+03  0.7818608E-02  0.1165083E+00
         21   -1    0    0  501  502  0.00000000000E+00  0.00000000000E+00  0.13244031374E+03  0.13244031374E+03  0.00000000000E+00 0.  1.
         21   -1    0    0  502  503 -0.00000000000E+00 -0.00000000000E+00 -0.28607671790E+03  0.28607671790E+03  0.00000000000E+00 0.  1.
         -6    2    1    2    0  503 -0.20866060733E+02 -0.40774083285E+02 -0.15607208190E+03  0.24205832773E+03  0.17926466722E+03 0.  0.
        -24    2    3    3    0    0 -0.55864265847E+02  0.87084408482E+01 -0.15223518668E+03  0.18114686476E+03  0.80261954929E+02 0.  0.
          6    2    1    2  501    0  0.20866060733E+02  0.40774083285E+02  0.24356777487E+01  0.17645870391E+03  0.17039314335E+03 0.  0.
         24    2    5    5    0    0  0.75429741395E+01  0.48039986508E+02  0.63344000086E+02  0.11351260224E+03  0.80671629197E+02 0.  0.
          5    1    5    5  501    0  0.13323086593E+02 -0.72659032231E+01 -0.60908322338E+02  0.62946101674E+02  0.47000000000E+01 0. -1.
        -13    1    6    6    0    0  0.22221988750E+02  0.64772470565E+02  0.33366310921E+02  0.76174801815E+02  0.00000000000E+00 0.  1.
         14    1    6    6    0    0 -0.14679014611E+02 -0.16732484057E+02  0.29977689166E+02  0.37337800422E+02  0.00000000000E+00 0. -1.
         -5    1    3    3    0  503  0.34998205114E+02 -0.49482524133E+02 -0.38368952255E+01  0.60911462967E+02  0.47000000000E+01 0.  1.
         11    1    4    4    0    0 -0.34078715456E+02  0.44214864650E+02 -0.76374430576E+02  0.94601092747E+02  0.00000000000E+00 0. -1.
        -12    1    4    4    0    0 -0.21785550391E+02 -0.35506423802E+02 -0.75860756101E+02  0.86545772012E+02  0.00000000000E+00 0.  1.
</event>
<event>
12    1  0.8135779E-002  0.2892289E+03  0.7818608E-02  0.1091096E+00
         21   -1    0    0  501  502  0.00000000000E+00  0.00000000000E+00  0.22852036439E+03  0.22852036439E+03  0.00000000000E+00 0.  1.
         21   -1    0    0  502  503 -0.00000000000E+00 -0.00000000000E+00 -0.45623439076E+03  0.45623439076E+03  0.00000000000E+00 0.  1.
         -6    2    1    2    0  503 -0.12884936351E+01 -0.23064535908E+03 -0.26923067317E+03  0.39514365681E+03  0.17451192584E+03 0.  0.
        -24    2    3    3    0    0  0.47147071420E+02 -0.11104235599E+03 -0.19821033782E+03  0.24777724157E+03  0.86907837682E+02 0.  0.
          6    2    1    2  501    0  0.12884936351E+01  0.23064535908E+03  0.41516646810E+02  0.28961109834E+03  0.17015291488E+03 0.  0.
         24    2    5    5    0    0  0.15431000156E+02  0.21004518006E+03  0.83930735559E+02  0.24015988207E+03  0.79216836292E+02 0.  0.
          5    1    5    5  501    0 -0.14142506521E+02  0.20600179013E+02 -0.42414088749E+02  0.49451216269E+02  0.47000000000E+01 0. -1.
        -13    1    6    6    0    0  0.31634457119E+02  0.11653246916E+03  0.12537943583E+02  0.12139915681E+03  0.00000000000E+00 0.  1.
         14    1    6    6    0    0 -0.16203456964E+02  0.93512710906E+02  0.71392791976E+02  0.11876072526E+03  0.00000000000E+00 0. -1.
         -5    1    3    3    0  503 -0.48435565055E+02 -0.11960300308E+03 -0.71020335348E+02  0.14736641524E+03  0.47000000000E+01 0.  1.
         13    1    4    4    0    0 -0.24146093704E+02 -0.17159677515E+02 -0.53247886759E+02  0.60932961670E+02  0.00000000000E+00 0. -1.
        -14    1    4    4    0    0  0.71293165124E+02 -0.93882678480E+02 -0.14496245107E+03  0.18684427990E+03  0.00000000000E+00 0.  1.
</event>
<event>
12    1  0.8135779E-002  0.2297236E+03  0.7818608E-02  0.1127084E+00
         21   -1    0    0  503  502  0.00000000000E+00  0.00000000000E+00  0.48517412358E+03  0.48517412358E+03  0.00000000000E+00 0.  1.
         21   -1    0    0  501  503 -0.00000000000E+00 -0.00000000000E+00 -0.20960950941E+03  0.20960950941E+03  0.00000000000E+00 0.  1.
          6    2    1    2  501    0 -0.77354161298E+02  0.13140306077E+03 -0.10418041984E+03  0.25096024337E+03  0.16993249608E+03 0.  0.
         24    2    3    3    0    0 -0.11682734438E+03  0.10463302425E+03 -0.99298624133E+02  0.20278671363E+03  0.81642735819E+02 0.  0.
         -6    2    1    2    0  502  0.77354161298E+02 -0.13140306077E+03  0.37974503401E+03  0.44382338962E+03  0.17182106876E+03 0.  0.
        -24    2    5    5    0    0  0.11198821591E+03 -0.79705536431E+02  0.32088890606E+03  0.35804293987E+03  0.79565845172E+02 0.  0.
          5    1    3    3  501    0  0.39473183084E+02  0.26770036522E+02 -0.48817957079E+01  0.48173529739E+02  0.47000000000E+01 0. -1.
        -13    1    4    4    0    0 -0.86654879915E+02  0.35419777786E+02 -0.83940934520E+02  0.12573666673E+03  0.00000000000E+00 0.  1.
         14    1    4    4    0    0 -0.30172464467E+02  0.69213246460E+02 -0.15357689613E+02  0.77050046903E+02  0.00000000000E+00 0. -1.
         -5    1    5    5    0  502 -0.34634054617E+02 -0.51697524337E+02  0.58856127947E+02  0.85780449747E+02  0.47000000000E+01 0.  1.
         13    1    6    6    0    0  0.50023929126E+02 -0.57786334411E+02  0.90471838456E+02  0.11843482378E+03  0.00000000000E+00 0. -1.
        -14    1    6    6    0    0  0.61964286788E+02 -0.21919202020E+02  0.23041706760E+03  0.23960811609E+03  0.00000000000E+00 0.  1.
</event>
<event>
12    1  0.8135779E-002  0.2003125E+03  0.7818608E-02  0.1149713E+00
         21   -1    0    0  501  502  0.00000000000E+00  0.00000000000E+00  0.49054710365E+03  0.49054710365E+03  0.00000000000E+00 0. -1.
         21   -1    0    0  502  503 -0.00000000000E+00 -0.00000000000E+00 -0.81679650324E+02  0.81679650324E+02  0.00000000000E+00 0. -1.
         -6    2    1    2    0  503  0.21337251990E+02 -0.97921727619E+02  0.18648637711E+03  0.27368279603E+03  0.17343921394E+03 0.  0.
        -24    2    3    3    0    0  0.45115520702E+02 -0.38208911556E+01  0.42046503371E+02  0.99598504345E+02  0.78114942263E+02 0.  0.
          6    2    1    2  501    0 -0.21337251990E+02  0.97921727619E+02  0.22238107621E+03  0.29854395794E+03  0.17213717989E+03 0.  0.
         24    2    5    5    0    0 -0.37606144212E+02  0.16701489024E+02  0.41494983045E+02  0.99538247687E+02  0.80578330316E+02 0.  0.
          5    1    5    5  501    0  0.16268892222E+02  0.81220238594E+02  0.18088609317E+03  0.19900571025E+03  0.47000000000E+01 0. -1.
        -13    1    6    6    0    0 -0.17388291521E+02 -0.31603900466E+02  0.27430723984E+02  0.45316705804E+02  0.00000000000E+00 0.  1.
         14    1    6    6    0    0 -0.20217852691E+02  0.48305389490E+02  0.14064259060E+02  0.54221541883E+02  0.00000000000E+00 0. -1.
         -5    1    3    3    0  503 -0.23778268711E+02 -0.94100836463E+02  0.14443987374E+03  0.17408429169E+03  0.47000000000E+01 0.  1.
         11    1    4    4    0    0  0.40843338101E+02 -0.79967784158E+00  0.64607225822E+02  0.76438938901E+02  0.00000000000E+00 0. -1.
        -12    1    4    4    0    0  0.42721826012E+01 -0.30212133140E+01 -0.22560722451E+02  0.23159565445E+02  0.00000000000E+00 0.  1.
</event>
<event>
12    1  0.8135779E-002  0.1812776E+03  0.7818608E-02  0.1166845E+00
         21   -1    0    0  501  502  0.00000000000E+00  0.00000000000E+00  0.71763978565E+03  0.71763978565E+03  0.00000000000E+00 0. -1.
         21   -1    0    0  502  503 -0.00000000000E+00 -0.00000000000E+00 -0.58216271522E+02  0.58216271522E+02  0.00000000000E+00 0. -1.
         -6    2    1    2    0  503 -0.19654855740E+02 -0.54759177295E+02  0.14925372052E+03  0.23481535720E+03  0.17168779234E+03 0.  0.
        -24    2    3    3    0    0  0.21200055055E+02 -0.79959316218E+02  0.14781073342E+03  0.18656245108E+03  0.78195912001E+02 0.  0.
          6    2    1    2  501    0  0.19654855740E+02  0.54759177295E+02  0.51016979361E+03  0.54104069997E+03  0.17049029257E+03 0.  0.
         24    2    5    5    0    0  0.24524820560E+02  0.49219563312E+02  0.14330944633E+03  0.17407611273E+03  0.82102761100E+02 0.  0.
          5    1    5    5  501    0 -0.48699648192E+01  0.55396139822E+01  0.36686034728E+03  0.36696458724E+03  0.47000000000E+01 0. -1.
        -13    1    6    6    0    0  0.41872930284E+02 -0.41860417972E+01  0.70858007686E+02  0.82411907451E+02  0.00000000000E+00 0.  1.
         14    1    6    6    0    0 -0.17348109725E+02  0.53405605110E+02  0.72451438647E+02  0.91664205283E+02  0.00000000000E+00 0. -1.
         -5    1    3    3    0  503 -0.40854910796E+02  0.25200138923E+02  0.14429871012E+01  0.48252906126E+02  0.47000000000E+01 0.  1.
         11    1    4    4    0    0  0.26681111472E+02 -0.20576374738E+02  0.80961426311E+01  0.34652798332E+02  0.00000000000E+00 0. -1.
        -12    1    4    4    0    0 -0.54810564163E+01 -0.59382941480E+02  0.13971459079E+03  0.15190965274E+03  0.00000000000E+00 0.  1.
</event>
<event>
12    1  0.8135779E-002  0.1817935E+03  0.7818608E-02  0.1166249E+00
         21   -1    0    0  501  502  0.00000000000E+00  0.00000000000E+00  0.49980016659E+02  0.49980016659E+02  0.00000000000E+00 0.  1.
         21   -1    0    0  502  503 -0.00000000000E+00 -0.00000000000E+00 -0.66268111764E+03  0.66268111764E+03  0.00000000000E+00 0.  1.
         -6    2    1    2    0  503 -0.26041269879E+02 -0.50978172556E+02 -0.27917889544E+03  0.33315120709E+03  0.17254549926E+03 0.  0.
        -24    2    3    3    0    0 -0.75087651847E+02 -0.49924585239E+02 -0.13786744548E+03  0.18349268404E+03  0.80817775917E+02 0.  0.
          6    2    1    2  501    0  0.26041269879E+02  0.50978172556E+02 -0.33352220554E+03  0.37950992721E+03  0.17179581324E+03 0.  0.
         24    2    5    5    0    0  0.12220091716E+02  0.16582205062E+01 -0.31476563459E+03  0.32476157938E+03  0.78997458108E+02 0.  0.
          5    1    5    5  501    0  0.13821178164E+02  0.49319952050E+02 -0.18756570957E+02  0.54748347830E+02  0.47000000000E+01 0. -1.
        -13    1    6    6    0    0  0.94800335411E+01  0.19693612268E+02 -0.20611604886E+02  0.30042430928E+02  0.00000000000E+00 0.  1.
         14    1    6    6    0    0  0.27400581744E+01 -0.18035391762E+02 -0.29415402970E+03  0.29471914845E+03  0.00000000000E+00 0. -1.
         -5    1    3    3    0  503  0.49046381967E+02 -0.10535873171E+01 -0.14131144996E+03  0.14965852305E+03  0.47000000000E+01 0.  1.
         11    1    4    4    0    0 -0.19771797395E+02 -0.48895407632E+02 -0.26243510483E+02  0.58910157886E+02  0.00000000000E+00 0. -1.
        -12    1    4    4    0    0 -0.55315854452E+02 -0.10291776069E+01 -0.11162393499E+03  0.12458252616E+03  0.00000000000E+00 0.  1.
</event>
<event>
12    1  0.8135779E-002  0.1750831E+03  0.7818608E-02  0.1173067E+00
         21   -1    0    0  501  502  0.00000000000E+00  0.00000000000E+00  0.11814527162E+04  0.11814527162E+04  0.00000000000E+00 0. -1.
         21   -1    0    0  502  503 -0.00000000000E+00 -0.00000000000E+00 -0.25726947810E+02  0.25726947810E+02  0.00000000000E+00 0. -1.
         -6    2    1    2    0  503  0.19839255286E+02  0.12220500147E+02  0.59996475801E+03  0.62498943594E+03  0.17352563934E+03 0.  0.
        -24    2    3    3    0    0  0.76152012955E+02 -0.15873583778E+02  0.35468127458E+03  0.37171787916E+03  0.79525313037E+02 0.  0.
          6    2    1    2  501    0 -0.19839255286E+02 -0.12220500147E+02  0.55576101037E+03  0.58219022807E+03  0.17184942342E+03 0.  0.
         24    2    5    5    0    0  0.56823916997E+02 -0.22422969711E+02  0.30579168125E+03  0.32048793944E+03  0.73974454309E+02 0.  0.
          5    1    5    5  501    0 -0.76663172283E+02  0.10202469565E+02  0.24996932912E+03  0.26170228862E+03  0.47000000000E+01 0. -1.
        -11    1    6    6    0    0  0.57218357096E+02  0.39627823305E+01  0.12197847850E+03  0.13479018232E+03  0.00000000000E+00 0.  1.
         12    1    6    6    0    0 -0.39444009879E+00 -0.26385752042E+02  0.18381320276E+03  0.18569775712E+03  0.00000000000E+00 0. -1.
         -5    1    3    3    0  503 -0.56312757669E+02  0.28094083925E+02  0.24528348343E+03  0.25327155678E+03  0.47000000000E+01 0.  1.
         13    1    4    4    0    0  0.37435703770E+02  0.32258354923E+02  0.16356339325E+03  0.17086549385E+03  0.00000000000E+00 0. -1.
        -14    1    4    4    0    0  0.38716309186E+02 -0.48131938701E+02  0.19111788133E+03  0.20085238531E+03  0.00000000000E+00 0.  1.
</event>
<event>
12    1  0.8135779E-002  0.1842120E+03  0.7818608E-02  0.1164279E+00
         21   -1    0    0  501  502  0.00000000000E+00  0.00000000000E+00  0.11431376319E+03  0.11431376319E+03  0.00000000000E+00 0.  1.
         21   -1    0    0  502  503 -0.00000000000E+00 -0.00000000000E+00 -0.34101981010E+03  0.34101981010E+03  0.00000000000E+00 0.  1.
         -6    2    1    2    0  503  0.61376242740E+02  0.27013401223E+02 -0.19777545638E+03  0.26886362317E+03  0.16933915584E+03 0.  0.
        -24    2    3    3    0    0  0.10682756873E+03  0.78566974637E+01 -0.14947167336E+03  0.19966717971E+03  0.77790387463E+02 0.  0.
          6    2    1    2  501    0 -0.61376242740E+02 -0.27013401223E+02 -0.28930590536E+02  0.18646995012E+03  0.17157300549E+03 0.  0.
         24    2    5    5    0    0 -0.95474089653E+02 -0.43531596731E+02 -0.52136241841E+02  0.14179214580E+03  0.79853135113E+02 0.  0.
          5    1    5    5  501    0  0.34097846914E+02  0.16518195508E+02  0.23205651305E+02  0.44677804327E+02  0.47000000000E+01 0. -1.
        -11    1    6    6    0    0  0.11980458811E+02 -0.11312188524E+02  0.30735636247E+01  0.16761378102E+02  0.00000000000E+00 0.  1.
         12    1    6    6    0    0 -0.10745454846E+03 -0.32219408207E+02 -0.55209805466E+02  0.12503076770E+03  0.00000000000E+00 0. -1.
         -5    1    3    3    0  503 -0.45451325990E+02  0.19156703760E+02 -0.48303783019E+02  0.69196443457E+02  0.47000000000E+01 0.  1.
         13    1    4    4    0    0  0.41637642559E+02 -0.31079593724E+02 -0.36300550586E+02  0.63382682152E+02  0.00000000000E+00 0. -1.
        -14    1    4    4    0    0  0.65189926170E+02  0.38936291187E+02 -0.11317112277E+03  0.13628449756E+03  0.00000000000E+00 0.  1.
</event>
<event>
12    1  0.8135779E-002  0.1806345E+03  0.7818608E-02  0.1168050E+00
         21   -1    0    0  503  502  0.00000000000E+00  0.00000000000E+00  0.14715297353E+03  0.14715297353E+03  0.00000000000E+00 0. -1.
         21   -1    0    0  501  503 -0.00000000000E+00 -0.00000000000E+00 -0.22323771346E+03  0.22323771346E+03  0.00000000000E+00 0. -1.
          6    2    1    2  501    0 -0.69827647000E+01 -0.41785982766E+02 -0.77779834560E+01  0.17727253025E+03  0.17195995346E+03 0.  0.
         24    2    3    3    0    0  0.30347805477E+02 -0.73340267234E+02  0.27880831819E+02  0.11658574878E+03  0.80716243350E+02 0.  0.
         -6    2    1    2    0  502  0.69827647000E+01  0.41785982766E+02 -0.68306756482E+02  0.19311815674E+03  0.17559607662E+03 0.  0.
        -24    2    5    5    0    0  0.41091477965E+02 -0.23209975395E+02 -0.14269899830E+01  0.93705521405E+02  0.80941188045E+02 0.  0.
          5    1    3    3  501    0 -0.37330570177E+02  0.31554284468E+02 -0.35658815275E+02  0.60686781467E+02  0.47000000000E+01 0. -1.
        -11    1    4    4    0    0  0.57046498426E+02 -0.36574665037E+02  0.16401945057E+02  0.69721108044E+02  0.00000000000E+00 0.  1.
         12    1    4    4    0    0 -0.26698692949E+02 -0.36765602197E+02  0.11478886761E+02  0.46864640736E+02  0.00000000000E+00 0. -1.
         -5    1    5    5    0  502 -0.34108713265E+02  0.64995958162E+02 -0.66879766499E+02  0.99412635338E+02  0.47000000000E+01 0.  1.
         11    1    6    6    0    0  0.43445613333E+02 -0.22700675362E+02 -0.34882534023E+02  0.60163387202E+02  0.00000000000E+00 0. -1.
        -12    1    6    6    0    0 -0.23541353678E+01 -0.50930003313E+00  0.33455544040E+02  0.33542134203E+02  0.00000000000E+00 0.  1.
</event>
<event>
12    1  0.8135779E-002  0.2419465E+03  0.7818608E-02  0.1118585E+00
         21   -1    0    0  501  502  0.00000000000E+00  0.00000000000E+00  0.53851214297E+03  0.53851214297E+03  0.00000000000E+00 0. -1.
         21   -1    0    0  502  503 -0.00000000000E+00 -0.00000000000E+00 -0.21538991318E+03  0.21538991318E+03  0.00000000000E+00 0. -1.
         -6    2    1    2    0  503  0.79745354972E+02 -0.14962720511E+03 -0.10392555582E+03  0.26332227505E+03  0.17259918086E+03 0.  0.
        -24    2    3    3    0    0  0.36374470391E+02 -0.41110189965E+02  0.13521405066E+02  0.97572901511E+02  0.79526680423E+02 0.  0.
          6    2    1    2  501    0 -0.79745354972E+02  0.14962720511E+03  0.42704778561E+03  0.49057978111E+03  0.17190429978E+03 0.  0.
         24    2    5    5    0    0 -0.74142600806E+02  0.15898564681E+03  0.26001843566E+03  0.32312869860E+03  0.77646685900E+02 0.  0.
          5    1    5    5  501    0 -0.56027541652E+01 -0.93584417032E+01  0.16702934996E+03  0.16745108250E+03  0.47000000000E+01 0. -1.
        -11    1    6    6    0    0 -0.32887229835E+02  0.22975832226E+02  0.10706027264E+03  0.11433005174E+03  0.00000000000E+00 0.  1.
         12    1    6    6    0    0 -0.41255370971E+02  0.13600981459E+03  0.15295816302E+03  0.20879864686E+03  0.00000000000E+00 0. -1.
         -5    1    3    3    0  503  0.43370884580E+02 -0.10851701515E+03 -0.11744696089E+03  0.16574937353E+03  0.47000000000E+01 0.  1.
         13    1    4    4    0    0 -0.21638104814E+02 -0.29782307750E+02  0.10957501173E+02  0.38409116975E+02  0.00000000000E+00 0. -1.
        -14    1    4    4    0    0  0.58012575205E+02 -0.11327882215E+02  0.25639038933E+01  0.59163784536E+02  0.00000000000E+00 0.  1.
</event>
<event>
12    1  0.8135779E-002  0.2134368E+03  0.7818608E-02  0.1142220E+00
         21   -1    0    0  501  502  0.00000000000E+00  0.00000000000E+00  0.40812872667E+03  0.40812872667E+03  0.00000000000E+00 0.  1.
         21   -1    0    0  502  503 -0.00000000000E+00 -0.00000000000E+00 -0.26938963496E+03  0.26938963496E+03  0.00000000000E+00 0. -1.
         -6    2    1    2    0  503  0.93335725935E+02 -0.82674998602E+02 -0.19774267780E+03  0.27905221489E+03  0.15238523184E+03 0.  0.
        -24    2    3    3    0    0  0.55461153028E+02  0.85347919914E+01 -0.10211342559E+03  0.14149948664E+03  0.80288049315E+02 0.  0.
          6    2    1    2  501    0 -0.93335725935E+02  0.82674998602E+02  0.33648176951E+03  0.39846614675E+03  0.17322983508E+03 0.  0.
         24    2    5    5    0    0  0.16236686444E+02  0.60110027652E+02  0.15486116336E+03  0.18510395223E+03  0.80029043512E+02 0.  0.
          5    1    5    5  501    0 -0.10957241238E+03  0.22564970950E+02  0.18162060615E+03  0.21336219451E+03  0.47000000000E+01 0. -1.
        -11    1    6    6    0    0 -0.30966873148E+02  0.37706296913E+02  0.82530121052E+02  0.95874568788E+02  0.00000000000E+00 0.  1.
         12    1    6    6    0    0  0.47203559592E+02  0.22403730739E+02  0.72331042304E+02  0.89229383445E+02  0.00000000000E+00 0. -1.
         -5    1    3    3    0  503  0.37874572907E+02 -0.91209790593E+02 -0.95629252206E+02  0.13755272825E+03  0.47000000000E+01 0.  1.
         13    1    4    4    0    0  0.39655716725E+02  0.43381557292E+02 -0.52215104687E+02  0.78619034207E+02  0.00000000000E+00 0. -1.
        -14    1    4    4    0    0  0.15805436303E+02 -0.34846765301E+02 -0.49898320906E+02  0.62880452431E+02  0.00000000000E+00 0.  1.
</event>
<event>
12    1  0.8135779E-002  0.2152595E+03  0.7818608E-02  0.1137534E+00
         21   -1    0    0  501  502  0.00000000000E+00  0.00000000000E+00  0.65932760800E+03  0.65932760800E+03  0.00000000000E+00 0. -1.
         21   -1    0    0  502  503 -0.00000000000E+00 -0.00000000000E+00 -0.92626773803E+02  0.92626773803E+02  0.00000000000E+00 0. -1.
         -6    2    1    2    0  503 -0.12481069114E+03 -0.37943127380E+02  0.98377125231E+02  0.23667424706E+03  0.17122865098E+03 0.  0.
        -24    2    3    3    0    0 -0.11497544965E+03 -0.86250834228E+02  0.86040738107E+02  0.18563854423E+03  0.80000625394E+02 0.  0.
          6    2    1    2  501    0  0.12481069114E+03  0.37943127380E+02  0.46832370897E+03  0.51528013474E+03  0.17078972845E+03 0.  0.
         24    2    5    5    0    0  0.96762035881E+02  0.33300300343E+02  0.16574540536E+03  0.21133276641E+03  0.81964609247E+02 0.  0.
          5    1    5    5  501    0  0.28048655258E+02  0.46428270376E+01  0.30257830361E+03  0.30394736834E+03  0.47000000000E+01 0. -1.
        -11    1    6    6    0    0  0.21445745102E+02 -0.26023893558E+02  0.29940880267E+02  0.45095668640E+02  0.00000000000E+00 0.  1.
         12    1    6    6    0    0  0.75316290779E+02  0.59324193901E+02  0.13580452509E+03  0.16623709777E+03  0.00000000000E+00 0. -1.
         -5    1    3    3    0  503 -0.98352414916E+01  0.48307706848E+02  0.12336387124E+02  0.51035702830E+02  0.47000000000E+01 0.  1.
         11    1    4    4    0    0 -0.27406015367E+02 -0.40758144931E+02  0.70227355783E+02  0.85698293780E+02  0.00000000000E+00 0. -1.
        -12    1    4    4    0    0 -0.87569434280E+02 -0.45492689296E+02  0.15813382324E+02  0.99940250450E+02  0.00000000000E+00 0.  1.
</event>
<event>
12    1  0.8135779E-002  0.2857623E+03  0.7818608E-02  0.1092622E+00
         21   -1    0    0  501  502  0.00000000000E+00  0.00000000000E+00  0.33042234075E+03  0.33042234075E+03  0.00000000000E+00 0.  1.
         21   -1    0    0  502  503 -0.00000000000E+00 -0.00000000000E+00 -0.25822588214E+03  0.25822588214E+03  0.00000000000E+00 0. -1.
         -6    2    1    2    0  503 -0.17560278640E+03  0.14578226039E+03  0.97773257262E+02  0.30174357940E+03  0.17146653270E+03 0.  0.
        -24    2    3    3    0    0  0.37992288832E+01  0.45790155584E+02  0.41420763932E+02  0.88714948419E+02  0.63588441557E+02 0.  0.
          6    2    1    2  501    0  0.17560278640E+03 -0.14578226039E+03 -0.25576798647E+02  0.28690464349E+03  0.17196306519E+03 0.  0.
         24    2    5    5    0    0  0.15948284558E+03 -0.17554932338E+03 -0.21301975666E+02  0.25246201522E+03  0.83850772130E+02 0.  0.
          5    1    5    5  501    0  0.16119940816E+02  0.29767062985E+02 -0.42748229812E+01  0.34442628271E+02  0.47000000000E+01 0. -1.
        -13    1    6    6    0    0  0.94724263720E+02 -0.43332294010E+02 -0.42281034221E+01  0.10425090263E+03  0.00000000000E+00 0.  1.
         14    1    6    6    0    0  0.64758581863E+02 -0.13221702937E+03 -0.17073872244E+02  0.14821111258E+03  0.00000000000E+00 0. -1.
         -5    1    3    3    0  503 -0.17940201528E+03  0.99992104810E+02  0.56352493330E+02  0.21302863098E+03  0.47000000000E+01 0.  1.
         11    1    4    4    0    0 -0.61828521927E+01  0.51557767164E+02  0.69779090783E+01  0.52393914067E+02  0.00000000000E+00 0. -1.
        -12    1    4    4    0    0  0.99820810759E+01 -0.57676115795E+01  0.34442854853E+02  0.36321034352E+02  0.00000000000E+00 0.  1.
</event>
<event>
12    1  0.8135779E-002  0.1863938E+03  0.7818608E-02  0.1162446E+00
         21   -1    0    0  501  502  0.00000000000E+00  0.00000000000E+00  0.46182084418E+02  0.46182084418E+02  0.00000000000E+00 0. -1.
         21   -1    0    0  502  503 -0.00000000000E+00 -0.00000000000E+00 -0.91327902052E+03  0.91327902052E+03  0.00000000000E+00 0. -1.
         -6    2    1    2    0  503  0.23967078522E+02 -0.55576587565E+02 -0.63946064087E+03  0.66524869640E+03  0.17315524510E+03 0.  0.
        -24    2    3    3    0    0  0.58384800160E+02 -0.87291152394E+02 -0.52871771957E+03  0.54493046087E+03  0.79863946901E+02 0.  0.
          6    2    1    2  501    0 -0.23967078522E+02  0.55576587565E+02 -0.22763629523E+03  0.29421240853E+03  0.17629373356E+03 0.  0.
         24    2    5    5    0    0 -0.56796270467E+02 -0.19344096894E+02 -0.10618698758E+03  0.14771022721E+03  0.83322412758E+02 0.  0.
          5    1    5    5  501    0  0.32829191945E+02  0.74920684459E+02 -0.12144930765E+03  0.14650218132E+03  0.47000000000E+01 0. -1.
        -11    1    6    6    0    0  0.18680181638E+02 -0.12550115767E+02 -0.44988615255E+02  0.50303380546E+02  0.00000000000E+00 0.  1.
         12    1    6    6    0    0 -0.75476452105E+02 -0.67939811273E+01 -0.61198372324E+02  0.97406846664E+02  0.00000000000E+00 0. -1.
         -5    1    3    3    0  503 -0.34417721638E+02  0.31714564829E+02 -0.11074292130E+03  0.12031823554E+03  0.47000000000E+01 0.  1.
         13    1    4    4    0    0  0.51246983446E+02 -0.74623920507E+01 -0.20726909184E+03  0.21364085995E+03  0.00000000000E+00 0. -1.
        -14    1    4    4    0    0  0.71378167137E+01 -0.79828760343E+02 -0.32144862773E+03  0.33128960092E+03  0.00000000000E+00 0.  1.
</event>
<event>
12    1  0.8135779E-002  0.2220216E+03  0.7818608E-02  0.1133521E+00
         21   -1    0    0  501  502  0.00000000000E+00  0.00000000000E+00  0.53945348208E+02  0.53945348208E+02  0.00000000000E+00 0. -1.
         21   -1    0    0  502  503 -0.00000000000E+00 -0.00000000000E+00 -0.18386416158E+04  0.18386416158E+04  0.00000000000E+00 0.  1.
         -6    2    1    2    0  503 -0.11975302051E+03 -0.69308150119E+02 -0.15784109277E+04  0.15939493857E+04  0.17363519750E+03 0.  0.
        -24    2    3    3    0    0 -0.37171595821E+02 -0.94630516318E+02 -0.11358803108E+04  0.11430432415E+04  0.77376413627E+02 0.  0.
          6    2    1    2  501    0  0.11975302051E+03  0.69308150119E+02 -0.20628533992E+03  0.29863757837E+03  0.16579009666E+03 0.  0.
         24    2    5    5    0    0 -0.82614177048E+00  0.40182426439E+02 -0.64040074041E+02  0.10984285434E+03  0.79680685618E+02 0.  0.
          5    1    5    5  501    0  0.12057916228E+03  0.29125723680E+02 -0.14224526588E+03  0.18879472403E+03  0.47000000000E+01 0. -1.
        -13    1    6    6    0    0 -0.27167443404E+02  0.19880962736E+02 -0.68463987875E+02  0.76293120896E+02  0.00000000000E+00 0.  1.
         14    1    6    6    0    0  0.26341301633E+02  0.20301463703E+02  0.44239138335E+01  0.33549733439E+02  0.00000000000E+00 0. -1.
         -5    1    3    3    0  503 -0.82581424687E+02  0.25322366200E+02 -0.44253061688E+03  0.45090614412E+03  0.47000000000E+01 0.  1.
         11    1    4    4    0    0  0.21287796525E+02 -0.29536970127E+02 -0.47560822522E+03  0.47699977650E+03  0.00000000000E+00 0. -1.
        -12    1    4    4    0    0 -0.58459392346E+02 -0.65093546192E+02 -0.66027208559E+03  0.66604346504E+03  0.00000000000E+00 0.  1.
</event>
<event>
12    1  0.8135779E-002  0.2196032E+03  0.7818608E-02  0.1134201E+00
         21   -1    0    0  501  502  0.00000000000E+00  0.00000000000E+00  0.34280528486E+02  0.34280528486E+02  0.00000000000E+00 0. -1.
         21   -1    0    0  502  503 -0.00000000000E+00 -0.00000000000E+00 -0.14064198395E+04  0.14064198395E+04  0.00000000000E+00 0. -1.
         -6    2    1    2    0  503  0.74781286610E+02 -0.11403375122E+03 -0.67469010890E+03  0.70952964435E+03  0.17213261143E+03 0.  0.
        -24    2    3    3    0    0  0.10936589531E+02 -0.55796685865E+02 -0.56376622768E+03  0.56883885378E+03  0.50123876056E+02 0.  0.
          6    2    1    2  501    0 -0.74781286610E+02  0.11403375122E+03 -0.69744920214E+03  0.73117072366E+03  0.17198633762E+03 0.  0.
         24    2    5    5    0    0 -0.33498443908E+02  0.30992885567E+02 -0.15009285225E+03  0.17599406508E+03  0.79770558143E+02 0.  0.
          5    1    5    5  501    0 -0.41282842702E+02  0.83040865656E+02 -0.54735634989E+03  0.55517665858E+03  0.47000000000E+01 0. -1.
        -13    1    6    6    0    0 -0.57568935259E+02  0.76868356355E+01 -0.87998442888E+02  0.10543716470E+03  0.00000000000E+00 0.  1.
         14    1    6    6    0    0  0.24070491351E+02  0.23306049932E+02 -0.62094409362E+02  0.70556900381E+02  0.00000000000E+00 0. -1.
         -5    1    3    3    0  503  0.63844697079E+02 -0.58237065359E+02 -0.11092388122E+03  0.14069079057E+03  0.47000000000E+01 0.  1.
         13    1    4    4    0    0 -0.85883995405E+01 -0.25053321796E+02 -0.93906355033E+02  0.97569631829E+02  0.00000000000E+00 0. -1.
        -14    1    4    4    0    0  0.19524989072E+02 -0.30743364069E+02 -0.46985987265E+03  0.47126922195E+03  0.00000000000E+00 0.  1.
</event>
<event>
12    1  0.8135779E-002  0.2002906E+03  0.7818608E-02  0.1149571E+00
         21   -1    0    0  501  502  0.00000000000E+00  0.00000000000E+00  0.53835298163E+03  0.53835298163E+03  0.00000000000E+00 0.  1.
         21   -1    0    0  502  503 -0.00000000000E+00 -0.00000000000E+00 -0.83904581791E+02  0.83904581791E+02  0.00000000000E+00 0.  1.
         -6    2    1    2    0  503 -0.10127516164E+02 -0.10198804943E+03  0.33186118380E+03  0.38743006410E+03  0.17165686833E+03 0.  0.
        -24    2    3    3    0    0  0.43078774361E+02 -0.10286970627E+03  0.18730184081E+03  0.23331588462E+03  0.83164687091E+02 0.  0.
          6    2    1    2  501    0  0.10127516164E+02  0.10198804943E+03  0.12258721604E+03  0.23482749932E+03  0.17208195748E+03 0.  0.
         24    2    5    5    0    0  0.50129038659E+01  0.36571632455E+02 -0.83769927569E+01  0.88269726227E+02  0.79741814971E+02 0.  0.
          5    1    5    5  501    0  0.51146122983E+01  0.65416416973E+02  0.13096420880E+03  0.14655777310E+03  0.47000000000E+01 0. -1.
        -13    1    6    6    0    0  0.35352154676E+02  0.35905925086E+02  0.11896802074E+02  0.51773972188E+02  0.00000000000E+00 0.  1.
         14    1    6    6    0    0 -0.30339250810E+02  0.66570736838E+00 -0.20273794831E+02  0.36495754039E+02  0.00000000000E+00 0. -1.
         -5    1    3    3    0  503 -0.53206290525E+02  0.88165683991E+00  0.14455934298E+03  0.15411417947E+03  0.47000000000E+01 0.  1.
         13    1    4    4    0    0  0.57307964768E+01 -0.18539204164E+02 -0.50014493524E+01  0.20038927490E+02  0.00000000000E+00 0. -1.
        -14    1    4    4    0    0  0.37347977884E+02 -0.84330502103E+02  0.19230329016E+03  0.21327695714E+03  0.00000000000E+00 0.  1.
</event>
<event>
12    1  0.8135779E-002  0.1825103E+03  0.7818608E-02  0.1165498E+00
         21   -1    0    0  503  502  0.00000000000E+00  0.00000000000E+00  0.24597605687E+03  0.24597605687E+03  0.00000000000E+00 0. -1.
         21   -1    0    0  501  503 -0.00000000000E+00 -0.00000000000E+00 -0.84072905965E+03  0.84072905965E+03  0.00000000000E+00 0. -1.
          6    2    1    2  501    0  0.20018457968E+02  0.55386743773E+02 -0.79521740964E+03  0.81589260354E+03  0.17274716169E+03 0.  0.
         24    2    3    3    0    0  0.40340169051E+02  0.50803139880E+02 -0.25622100343E+03  0.27647328865E+03  0.81117128151E+02 0.  0.
         -6    2    1    2    0  502 -0.20018457968E+02 -0.55386743773E+02  0.20046440686E+03  0.27081251298E+03  0.17229337981E+03 0.  0.
        -24    2    5    5    0    0 -0.42299342291E+02  0.86500915188E+01  0.17643850387E+03  0.19872584227E+03  0.80606180249E+02 0.  0.
          5    1    3    3  501    0 -0.20321711083E+02  0.45836038932E+01 -0.53899640621E+03  0.53941931488E+03  0.47000000000E+01 0. -1.
        -13    1    4    4    0    0  0.47770802041E+02 -0.41566643043E+01 -0.10599199850E+03  0.11633413571E+03  0.00000000000E+00 0.  1.
         14    1    4    4    0    0 -0.74306329901E+01  0.54959804184E+02 -0.15022900493E+03  0.16013915294E+03  0.00000000000E+00 0. -1.
         -5    1    5    5    0  502  0.22280884323E+02 -0.64036835292E+02  0.24025902986E+02  0.72086670714E+02  0.47000000000E+01 0.  1.
         11    1    6    6    0    0 -0.46857416651E+02  0.14302451713E+02  0.43283721271E+02  0.65373221943E+02  0.00000000000E+00 0. -1.
        -12    1    6    6    0    0  0.45580743594E+01 -0.56523601938E+01  0.13315478260E+03  0.13335262032E+03  0.00000000000E+00 0.  1.
</event>
<event>
12    1  0.8135779E-002  0.1938357E+03  0.7818608E-02  0.1156143E+00
         21   -1    0    0  503  502  0.00000000000E+00  0.00000000000E+00  0.20983830107E+02  0.20983830107E+02  0.00000000000E+00 0.  1.
         21   -1    0    0  501  503 -0.00000000000E+00 -0.00000000000E+00 -0.17651734191E+04  0.17651734191E+04  0.00000000000E+00 0.  1.
          6    2    1    2  501    0 -0.16393910932E+02  0.79320513572E+02 -0.78853229371E+03  0.81200704921E+03  0.17610157735E+03 0.  0.
         24    2    3    3    0    0  0.15797933423E+02  0.40668048123E+02 -0.18367366286E+03  0.20504215628E+03  0.80017539237E+02 0.  0.
         -6    2    1    2    0  502  0.16393910932E+02 -0.79320513572E+02 -0.95565729525E+03  0.97415019997E+03  0.17066704998E+03 0.  0.
        -24    2    5    5    0    0  0.61666631460E+02 -0.90320604884E+02 -0.58551575965E+03  0.60105843162E+03  0.80510547897E+02 0.  0.
          5    1    3    3  501    0 -0.32191844355E+02  0.38652465448E+02 -0.60485863085E+03  0.60696489293E+03  0.47000000000E+01 0. -1.
        -11    1    4    4    0    0 -0.23801717854E+02 -0.67911869933E+01 -0.27061094192E+02  0.36673489232E+02  0.00000000000E+00 0.  1.
         12    1    4    4    0    0  0.39599651277E+02  0.47459235117E+02 -0.15661256867E+03  0.16836866705E+03  0.00000000000E+00 0. -1.
         -5    1    5    5    0  502 -0.45272720527E+02  0.11000091312E+02 -0.37014153560E+03  0.37309176835E+03  0.47000000000E+01 0.  1.
         13    1    6    6    0    0  0.24185805803E+02 -0.54542618199E+02 -0.13530828238E+03  0.14787894266E+03  0.00000000000E+00 0. -1.
        -14    1    6    6    0    0  0.37480825657E+02 -0.35777986685E+02 -0.45020747727E+03  0.45317948896E+03  0.00000000000E+00 0.  1.
</event>
<event>
12    1  0.8135779E-002  0.1948688E+03  0.7818608E-02  0.1154788E+00
         21   -1    0    0  503  502  0.00000000000E+00  0.00000000000E+00  0.12550504751E+03  0.12550504751E+03  0.00000000000E+00 0.  1.
         21   -1    0    0  501  503 -0.00000000000E+00 -0.00000000000E+00 -0.34631992517E+03  0.34631992517E+03  0.00000000000E+00 0.  1.
          6    2    1    2  501    0 -0.17569658300E+02 -0.90670221561E+02 -0.19778336170E+03  0.27559984081E+03  0.16824753227E+03 0.  0.
         24    2    3    3    0    0 -0.46944980685E+02 -0.11692765799E+03 -0.13503652119E+03  0.20135956517E+03  0.80217853461E+02 0.  0.
         -6    2    1    2    0  502  0.17569658300E+02  0.90670221561E+02 -0.23031515947E+02  0.19622513187E+03  0.17159274367E+03 0.  0.
        -24    2    5    5    0    0  0.69418397352E+02  0.80492884363E+02 -0.42852742279E+02  0.13959615566E+03  0.79703894695E+02 0.  0.
          5    1    3    3  501    0  0.29375322385E+02  0.26257436429E+02 -0.62746840510E+02  0.74240275640E+02  0.47000000000E+01 0. -1.
        -13    1    4    4    0    0 -0.37972307640E+01 -0.12119982120E+02 -0.69050296645E+02  0.70208663247E+02  0.00000000000E+00 0.  1.
         14    1    4    4    0    0 -0.43147749921E+02 -0.10480767587E+03 -0.65986224549E+02  0.13115090192E+03  0.00000000000E+00 0. -1.
         -5    1    5    5    0  502 -0.51848739051E+02  0.10177337198E+02  0.19821226332E+02  0.56628976213E+02  0.47000000000E+01 0.  1.
         13    1    6    6    0    0  0.75094015814E+02  0.51555778386E+02 -0.56409478201E+02  0.10714074261E+03  0.00000000000E+00 0. -1.
        -14    1    6    6    0    0 -0.56756184624E+01  0.28937105977E+02  0.13556735922E+02  0.32455413048E+02  0.00000000000E+00 0.  1.
</event>
<event>
12    1  0.8135779E-002  0.2213139E+03  0.7818608E-02  0.1132951E+00
         21   -1    0    0  503  502  0.00000000000E+00  0.00000000000E+00  0.52137641245E+02  0.52137641245E+02  0.00000000000E+00 0. -1.
         21   -1    0    0  501  503 -0.00000000000E+00 -0.00000000000E+00 -0.95361792325E+03  0.95361792325E+03  0.00000000000E+00 0.  1.
          6    2    1    2  501    0  0.13336256861E+03  0.39538469155E+02 -0.51442101954E+03  0.56000789126E+03  0.17213653790E+03 0.  0.
         24    2    3    3    0    0  0.39953953421E+02 -0.20945573855E+02 -0.34710386134E+03  0.35900886072E+03  0.79820022914E+02 0.  0.
         -6    2    1    2    0  502 -0.13336256861E+03 -0.39538469155E+02 -0.38705926247E+03  0.44574767324E+03  0.17183495070E+03 0.  0.
        -24    2    5    5    0    0 -0.35546160902E+02 -0.51689087230E+02 -0.29092254963E+03  0.30797959024E+03  0.79247755980E+02 0.  0.
          5    1    3    3  501    0  0.93408615192E+02  0.60484043010E+02 -0.16731715820E+03  0.20099903054E+03  0.47000000000E+01 0. -1.
        -11    1    4    4    0    0  0.30925796952E+02 -0.50828826769E+02 -0.25129937401E+03  0.25824668425E+03  0.00000000000E+00 0.  1.
         12    1    4    4    0    0  0.90281564696E+01  0.29883252914E+02 -0.95804487333E+02  0.10076217647E+03  0.00000000000E+00 0. -1.
         -5    1    5    5    0  502 -0.97816407712E+02  0.12150618075E+02 -0.96136712838E+02  0.13776808300E+03  0.47000000000E+01 0.  1.
         11    1    6    6    0    0  0.18152530451E+02  0.19161195301E+01 -0.22148248170E+02  0.28700710319E+02  0.00000000000E+00 0. -1.
        -12    1    6    6    0    0 -0.53698691353E+02 -0.53605206760E+02 -0.26877430146E+03  0.27927887992E+03  0.00000000000E+00 0.  1.
</event>
<event>
12    1  0.8135779E-002  0.2257691E+03  0.7818608E-02  0.1130148E+00
         21   -1    0    0  503  502  0.00000000000E+00  0.00000000000E+00  0.99236443332E+02  0.99236443332E+02  0.00000000000E+00 0.  1.
         21   -1    0    0  501  503 -0.00000000000E+00 -0.00000000000E+00 -0.50759895586E+03  0.50759895586E+03  0.00000000000E+00 0.  1.
          6    2    1    2  501    0 -0.14167326256E+03  0.10782295649E+02 -0.20799506980E+03  0.30497649221E+03  0.17193353517E+03 0.  0.
         24    2    3    3    0    0 -0.90236454858E+02  0.17450432523E+02 -0.39760545398E+02  0.12886529314E+03  0.81106272420E+02 0.  0.
         -6    2    1    2    0  502  0.14167326256E+03 -0.10782295649E+02 -0.20036744273E+03  0.30185890698E+03  0.17545402929E+03 0.  0.
        -24    2    5    5    0    0  0.36942383736E+02 -0.50661453591E+02 -0.14446859877E+03  0.17653662256E+03  0.79766411969E+02 0.  0.
          5    1    3    3  501    0 -0.51436807702E+02 -0.66681368741E+01 -0.16823452440E+03  0.17611119906E+03  0.47000000000E+01 0. -1.
        -13    1    4    4    0    0 -0.27921612583E+02  0.36834317958E+02  0.93919527973E+01  0.47165582855E+02  0.00000000000E+00 0.  1.
         14    1    4    4    0    0 -0.62314842275E+02 -0.19383885435E+02 -0.49152498196E+02  0.81699710288E+02  0.00000000000E+00 0. -1.
         -5    1    5    5    0  502  0.10473087882E+03  0.39879157942E+02 -0.55898843964E+02  0.12532228443E+03  0.47000000000E+01 0.  1.
         13    1    6    6    0    0 -0.13082209396E+01  0.16051462758E+02 -0.43164729202E+01  0.16673117200E+02  0.00000000000E+00 0. -1.
        -14    1    6    6    0    0  0.38250604676E+02 -0.66712916349E+02 -0.14015212585E+03  0.15986350536E+03  0.00000000000E+00 0.  1.
</event>
<event>
12    1  0.8135779E-002  0.1982962E+03  0.7818608E-02  0.1153120E+00
         21   -1    0    0  503  502  0.00000000000E+00  0.00000000000E+00  0.10035031016E+03  0.10035031016E+03  0.00000000000E+00 0.  1.
         21   -1    0    0  501  503 -0.00000000000E+00 -0.00000000000E+00 -0.37455860483E+03  0.37455860483E+03  0.00000000000E+00 0.  1.
          6    2    1    2  501    0  0.60047772245E+02  0.52875701212E+02 -0.13851347394E+03  0.24188297697E+03  0.18143819156E+03 0.  0.
         24    2    3    3    0    0  0.37677719907E+02  0.98264288246E+02 -0.13893695218E+03  0.19106159949E+03  0.78266066716E+02 0.  0.
         -6    2    1    2    0  502 -0.60047772245E+02 -0.52875701212E+02 -0.13569482073E+03  0.23302593802E+03  0.17171612822E+03 0.  0.
        -24    2    5    5    0    0  0.34466660745E+02  0.21773963958E+02 -0.67562395379E+02  0.94571368083E+02  0.52124947793E+02 0.  0.
          5    1    3    3  501    0  0.22370052338E+02 -0.45388587034E+02  0.42347824150E+00  0.50821377474E+02  0.47000000000E+01 0. -1.
        -11    1    4    4    0    0  0.59658339191E+02  0.56775522421E+02 -0.10333096324E+03  0.13213578374E+03  0.00000000000E+00 0.  1.
         12    1    4    4    0    0 -0.21980619284E+02  0.41488765825E+02 -0.35605988935E+02  0.58925815750E+02  0.00000000000E+00 0. -1.
         -5    1    5    5    0  502 -0.94514432991E+02 -0.74649665170E+02 -0.68132425348E+02  0.13845456994E+03  0.47000000000E+01 0.  1.
         13    1    6    6    0    0  0.44528399189E+02  0.27209528886E+01 -0.46541135546E+02  0.64469056274E+02  0.00000000000E+00 0. -1.
        -14    1    6    6    0    0 -0.10061738443E+02  0.19053011069E+02 -0.21021259832E+02  0.30102311809E+02  0.00000000000E+00 0.  1.
</event>
<event>
12    1  0.8135779E-002  0.1875009E+03  0.7818608E-02  0.1160888E+00
         21   -1    0    0  503  502  0.00000000000E+00  0.00000000000E+00  0.13432188538E+03  0.13432188538E+03  0.00000000000E+00 0.  1.
         21   -1    0    0  501  503 -0.00000000000E+00 -0.00000000000E+00 -0.47914023465E+03  0.47914023465E+03  0.00000000000E+00 0.  1.
          6    2    1    2  501    0 -0.47178221569E+02 -0.59112426209E+02 -0.37963270897E+03  0.42341181993E+03  0.17157072015E+03 0.  0.
         24    2    3    3    0    0 -0.92930212152E+02 -0.12588991934E+02 -0.27731900769E+03  0.30197106051E+03  0.74068767436E+02 0.  0.
         -6    2    1    2    0  502  0.47178221569E+02  0.59112426209E+02  0.34814359708E+02  0.19005030010E+03  0.17084207153E+03 0.  0.
        -24    2    5    5    0    0  0.90987295645E+02  0.12097071875E+02  0.13819612857E+02  0.12228196007E+03  0.79604453037E+02 0.  0.
          5    1    3    3  501    0  0.45751990583E+02 -0.46523434275E+02 -0.10231370128E+03  0.12144075942E+03  0.47000000000E+01 0. -1.
        -11    1    4    4    0    0 -0.60629889144E+02 -0.22043037036E+02 -0.84893357564E+02  0.10662439260E+03  0.00000000000E+00 0.  1.
         12    1    4    4    0    0 -0.32300323008E+02  0.94540451024E+01 -0.19242565013E+03  0.19534666791E+03  0.00000000000E+00 0. -1.
         -5    1    5    5    0  502 -0.43809074076E+02  0.47015354335E+02  0.20994746851E+02  0.67768340026E+02  0.47000000000E+01 0.  1.
         13    1    6    6    0    0  0.42520568363E+02  0.29634837559E+02 -0.25205185506E+02  0.57632661811E+02  0.00000000000E+00 0. -1.
        -14    1    6    6    0    0  0.48466727282E+02 -0.17537765684E+02  0.39024798363E+02  0.64649298263E+02  0.00000000000E+00 0.  1.
</event>
<event>
12    1  0.8135779E-002  0.1824829E+03  0.7818608E-02  0.1166836E+00
         21   -1    0    0  503  502  0.00000000000E+00  0.00000000000E+00  0.38271171037E+03  0.38271171037E+03  0.00000000000E+00 0. -1.
         21   -1    0    0  501  503 -0.00000000000E+00 -0.00000000000E+00 -0.21428710571E+03  0.21428710571E+03  0.00000000000E+00 0. -1.
          6    2    1    2  501    0  0.12799412637E+02 -0.58174820454E+02 -0.14777211950E+03  0.23481184875E+03  0.17248730479E+03 0.  0.
         24    2    3    3    0    0  0.60800324290E+01 -0.99854385394E+02 -0.94333394776E+02  0.16654675149E+03  0.93974283640E+02 0.  0.
         -6    2    1    2    0  502 -0.12799412637E+02  0.58174820454E+02  0.31619672416E+03  0.36218696732E+03  0.16628558636E+03 0.  0.
        -24    2    5    5    0    0  0.21406703365E+02  0.31900563310E+02  0.30690537914E+03  0.31781564717E+03  0.73075173264E+02 0.  0.
          5    1    3    3  501    0  0.67193802080E+01  0.41679564940E+02 -0.53438724725E+02  0.68265097262E+02  0.47000000000E+01 0. -1.
        -13    1    4    4    0    0  0.17536802024E+02 -0.25712024912E+01  0.12434789980E+02  0.21651201106E+02  0.00000000000E+00 0.  1.
         14    1    4    4    0    0 -0.11456769595E+02 -0.97283182903E+02 -0.10676818476E+03  0.14489555039E+03  0.00000000000E+00 0. -1.
         -5    1    5    5    0  502 -0.34206116002E+02  0.26274257144E+02  0.92913450161E+01  0.44371320158E+02  0.47000000000E+01 0.  1.
         11    1    6    6    0    0 -0.73580309247E+01  0.45985176470E+02  0.13132004066E+03  0.13933316243E+03  0.00000000000E+00 0. -1.
        -12    1    6    6    0    0  0.28764734290E+02 -0.14084613160E+02  0.17558533849E+03  0.17848248474E+03  0.00000000000E+00 0.  1.
</event>
<event>
12    1  0.8135779E-002  0.1734451E+03  0.7818608E-02  0.1175017E+00
         21   -1    0    0  503  502  0.00000000000E+00  0.00000000000E+00  0.12205475919E+03  0.12205475919E+03  0.00000000000E+00 0. -1.
         21   -1    0    0  501  503 -0.00000000000E+00 -0.00000000000E+00 -0.24509975364E+03  0.24509975364E+03  0.00000000000E+00 0. -1.
          6    2    1    2  501    0 -0.16271110819E+02 -0.60325428604E+01 -0.80829305554E+02  0.19135455365E+03  0.17257476045E+03 0.  0.
         24    2    3    3    0    0 -0.41042618707E+02  0.45902418917E+01  0.15547919121E+02  0.91169072692E+02  0.79777786103E+02 0.  0.
         -6    2    1    2    0  502  0.16271110819E+02  0.60325428604E+01 -0.42215688899E+02  0.17579995917E+03  0.16977137755E+03 0.  0.
        -24    2    5    5    0    0  0.45393353609E+02 -0.50395082638E+02 -0.39862046908E+01  0.10153176001E+03  0.75449238274E+02 0.  0.
          5    1    3    3  501    0  0.24771507887E+02 -0.10622784752E+02 -0.96377224675E+02  0.10018548096E+03  0.47000000000E+01 0. -1.
        -11    1    4    4    0    0 -0.56357076624E+02  0.68779460698E+01 -0.13404387303E+02  0.58336127972E+02  0.00000000000E+00 0.  1.
         12    1    4    4    0    0  0.15314457918E+02 -0.22877041781E+01  0.28952306424E+02  0.32832944720E+02  0.00000000000E+00 0. -1.
         -5    1    5    5    0  502 -0.29122242790E+02  0.56427625499E+02 -0.38229484208E+02  0.74268199166E+02  0.47000000000E+01 0.  1.
         11    1    6    6    0    0  0.11460283391E+01 -0.56070976986E+02  0.39492825348E+01  0.56221567691E+02  0.00000000000E+00 0. -1.
        -12    1    6    6    0    0  0.44247325270E+02  0.56758943471E+01 -0.79354872256E+01  0.45310192316E+02  0.00000000000E+00 0.  1.
</event>
<event>
12    1  0.8135779E-002  0.2913884E+03  0.7818608E-02  0.1089900E+00
         21   -1    0    0  503  502  0.00000000000E+00  0.00000000000E+00  0.30788620093E+03  0.30788620093E+03  0.00000000000E+00 0. -1.
         21   -1    0    0  501  503 -0.00000000000E+00 -0.00000000000E+00 -0.27672901051E+03  0.27672901051E+03  0.00000000000E+00 0.  1.
          6    2    1    2  501    0 -0.11490316605E+03  0.20461749473E+03  0.45630236041E+02  0.29286758112E+03  0.16916927887E+03 0.  0.
         24    2    3    3    0    0 -0.53396051360E+02  0.11063249551E+03  0.89153510689E+02  0.17231605408E+03  0.81570746371E+02 0.  0.
         -6    2    1    2    0  502  0.11490316605E+03 -0.20461749473E+03 -0.14473045626E+02  0.29174763032E+03  0.17273145061E+03 0.  0.
        -24    2    5    5    0    0 -0.26809508981E+01 -0.12628334590E+03 -0.17839166577E+02  0.15034153356E+03  0.79559222591E+02 0.  0.
          5    1    3    3  501    0 -0.61507114686E+02  0.93984999218E+02 -0.43523274648E+02  0.12055152704E+03  0.47000000000E+01 0. -1.
        -13    1    4    4    0    0 -0.11881758857E+02  0.22865356678E+02 -0.15090241162E+02  0.29861615962E+02  0.00000000000E+00 0.  1.
         14    1    4    4    0    0 -0.41514292503E+02  0.87767138829E+02  0.10424375185E+03  0.14245443812E+03  0.00000000000E+00 0. -1.
         -5    1    5    5    0  502  0.11758411694E+03 -0.78334148826E+02  0.33661209519E+01  0.14140609676E+03  0.47000000000E+01 0.  1.
         13    1    6    6    0    0  0.39935380617E+01 -0.74108272160E+02  0.29221926852E+02  0.79761553130E+02  0.00000000000E+00 0. -1.
        -14    1    6    6    0    0 -0.66744889598E+01 -0.52175073739E+02 -0.47061093429E+02  0.70579980429E+02  0.00000000000E+00 0.  1.
</event>
<event>
12    1  0.8135779E-002  0.2145216E+03  0.7818608E-02  0.1138104E+00
         21   -1    0    0  503  502  0.00000000000E+00  0.00000000000E+00  0.26262977453E+03  0.26262977453E+03  0.00000000000E+00 0.  1.
         21   -1    0    0  501  503 -0.00000000000E+00 -0.00000000000E+00 -0.21109357364E+03  0.21109357364E+03  0.00000000000E+00 0. -1.
          6    2    1    2  501    0 -0.13066257452E+02  0.12811697845E+03 -0.72249198532E+02  0.22636134054E+03  0.17156579657E+03 0.  0.
         24    2    3    3    0    0 -0.35446642597E+02  0.26658288643E+02  0.24102245475E+02  0.84585326564E+02  0.67872162248E+02 0.  0.
         -6    2    1    2    0  502  0.13066257452E+02 -0.12811697845E+03  0.12378539943E+03  0.24736200763E+03  0.17111531334E+03 0.  0.
        -24    2    5    5    0    0  0.68215572500E+01 -0.27661844644E+02 -0.37363808730E+01  0.84837779781E+02  0.79823411627E+02 0.  0.
          5    1    3    3  501    0  0.22380385145E+02  0.10145868980E+03 -0.96351444008E+02  0.14177601397E+03  0.47000000000E+01 0. -1.
        -13    1    4    4    0    0  0.16205794449E+02  0.15413492961E+01  0.21663395556E+02  0.27098085512E+02  0.00000000000E+00 0.  1.
         14    1    4    4    0    0 -0.51652437046E+02  0.25116939347E+02  0.24388499192E+01  0.57487241053E+02  0.00000000000E+00 0. -1.
         -5    1    5    5    0  502  0.62447002022E+01 -0.10045513380E+03  0.12752178030E+03  0.16252422785E+03  0.47000000000E+01 0.  1.
         13    1    6    6    0    0  0.28433175959E+02  0.83232726367E+00  0.25839713940E+02  0.38429533959E+02  0.00000000000E+00 0. -1.
        -14    1    6    6    0    0 -0.21611618709E+02 -0.28494171908E+02 -0.29576094813E+02  0.46408245822E+02  0.00000000000E+00 0.  1.
</event>
<event>
12    1  0.8135779E-002  0.2004485E+03  0.7818608E-02  0.1150108E+00
         21   -1    0    0  503  502  0.00000000000E+00  0.00000000000E+00  0.23108495503E+02  0.23108495503E+02  0.00000000000E+00 0.  1.
         21   -1    0    0  501  503 -0.00000000000E+00 -0.00000000000E+00 -0.17752296341E+04  0.17752296341E+04  0.00000000000E+00 0.  1.
          6    2    1    2  501    0 -0.56335057365E+02  0.85865565683E+02 -0.70902684206E+03  0.73681658154E+03  0.17214260952E+03 0.  0.
         24    2    3    3    0    0 -0.79358613066E+02  0.10579552695E+03 -0.43984437436E+03  0.46587640661E+03  0.78020956097E+02 0.  0.
         -6    2    1    2    0  502  0.56335057365E+02 -0.85865565683E+02 -0.10430942965E+04  0.10615215480E+04  0.16803497099E+03 0.  0.
        -24    2    5    5    0    0  0.75117791077E+02 -0.13568967931E+02 -0.40467014055E+03  0.41872524901E+03  0.75803113894E+02 0.  0.
          5    1    3    3  501    0  0.23023555701E+02 -0.19929961268E+02 -0.26918246770E+03  0.27094017493E+03  0.47000000000E+01 0. -1.
        -11    1    4    4    0    0 -0.60537736033E+02  0.30303060524E+02 -0.13194334570E+03  0.14829746942E+03  0.00000000000E+00 0.  1.
         12    1    4    4    0    0 -0.18820877033E+02  0.75492466427E+02 -0.30790102865E+03  0.31757893719E+03  0.00000000000E+00 0. -1.
         -5    1    5    5    0  502 -0.18782733712E+02 -0.72296597753E+02 -0.63842415596E+03  0.64279629903E+03  0.47000000000E+01 0.  1.
         11    1    6    6    0    0  0.29336882964E+02 -0.33758224980E+02 -0.94545454545E+02  0.10459021671E+03  0.00000000000E+00 0. -1.
        -12    1    6    6    0    0  0.45780908113E+02  0.20189257049E+02 -0.31012468601E+03  0.31413503230E+03  0.00000000000E+00 0.  1.
</event>
<event>
12    1  0.8135779E-002  0.1959473E+03  0.7818608E-02  0.1153314E+00
         21   -1    0    0  501  502  0.00000000000E+00  0.00000000000E+00  0.55536620455E+03  0.55536620455E+03  0.00000000000E+00 0.  1.
         21   -1    0    0  502  503 -0.00000000000E+00 -0.00000000000E+00 -0.12950468620E+03  0.12950468620E+03  0.00000000000E+00 0.  1.
         -6    2    1    2    0  503  0.41736095197E+02 -0.84000522897E+02 -0.21363887328E+02  0.19660260664E+03  0.17145897400E+03 0.  0.
        -24    2    3    3    0    0  0.16455531833E+02 -0.74703718376E+02  0.52352772607E+02  0.11797835205E+03  0.72983893325E+02 0.  0.
          6    2    1    2  501    0 -0.41736095197E+02  0.84000522897E+02  0.44722540567E+03  0.48826828411E+03  0.17203884533E+03 0.  0.
         24    2    5    5    0    0 -0.78029984661E+02  0.55201884044E+02  0.41008565018E+03  0.42870269463E+03  0.80497412331E+02 0.  0.
          5    1    5    5  501    0  0.36293889464E+02  0.28798638854E+02  0.37139755492E+02  0.59565589482E+02  0.47000000000E+01 0. -1.
        -13    1    6    6    0    0 -0.28246095050E+02  0.24798359798E+02  0.31439204251E+03  0.31663094752E+03  0.00000000000E+00 0.  1.
         14    1    6    6    0    0 -0.49783889611E+02  0.30403524246E+02  0.95693607667E+02  0.11207174711E+03  0.00000000000E+00 0. -1.
         -5    1    3    3    0  503  0.25280563365E+02 -0.92968045219E+01 -0.73716659935E+02  0.78624254593E+02  0.47000000000E+01 0.  1.
         11    1    4    4    0    0  0.39738234617E+02 -0.60334140487E+02  0.18736101180E+02  0.74634960215E+02  0.00000000000E+00 0. -1.
        -12    1    4    4    0    0 -0.23282702785E+02 -0.14369577888E+02  0.33616671426E+02  0.43343391831E+02  0.00000000000E+00 0.  1.
</event>
<event>
12    1  0.8135779E-002  0.1824981E+03  0.7818608E-02  0.1165460E+00
         21   -1    0    0  501  502  0.00000000000E+00  0.00000000000E+00  0.27322557470E+02  0.27322557470E+02  0.00000000000E+00 0. -1.
         21   -1    0    0  502  503 -0.00000000000E+00 -0.00000000000E+00 -0.15733910556E+04  0.15733910556E+04  0.00000000000E+00 0. -1.
         -6    2    1    2    0  503  0.62771394021E+02 -0.33508583948E+01 -0.11533227206E+04  0.11676376272E+04  0.17109311594E+03 0.  0.
        -24    2    3    3    0    0  0.31084847653E+02 -0.58377775135E+02 -0.91634412215E+03  0.92225436588E+03  0.80575013535E+02 0.  0.
          6    2    1    2  501    0 -0.62771394021E+02  0.33508583948E+01 -0.39274577752E+03  0.43307598591E+03  0.17133034656E+03 0.  0.
         24    2    5    5    0    0 -0.58371948947E+02  0.52341549524E+02 -0.35527272617E+03  0.37106177374E+03  0.72946608800E+02 0.  0.
          5    1    5    5  501    0 -0.43994450742E+01 -0.48990691129E+02 -0.37473051344E+02  0.62014212172E+02  0.47000000000E+01 0. -1.
        -13    1    6    6    0    0 -0.25777078663E+02  0.64675077899E+02 -0.19535482076E+03  0.20739052408E+03  0.00000000000E+00 0.  1.
         14    1    6    6    0    0 -0.32594870284E+02 -0.12333528375E+02 -0.15991790542E+03  0.16367124965E+03  0.00000000000E+00 0. -1.
         -5    1    3    3    0  503  0.31686546369E+02  0.55026916741E+02 -0.23697859846E+03  0.24538326127E+03  0.47000000000E+01 0.  1.
         11    1    4    4    0    0  0.50296743771E+02 -0.11389284202E+02 -0.54947741737E+03  0.55189211847E+03  0.00000000000E+00 0. -1.
        -12    1    4    4    0    0 -0.19211896118E+02 -0.46988490933E+02 -0.36686670478E+03  0.37036224742E+03  0.00000000000E+00 0.  1.
</event>
<event>
12    1  0.8135779E-002  0.1888343E+03  0.7818608E-02  0.1161364E+00
         21   -1    0    0  503  502  0.00000000000E+00  0.00000000000E+00  0.19566076929E+03  0.19566076929E+03  0.00000000000E+00 0. -1.
         21   -1    0    0  501  503 -0.00000000000E+00 -0.00000000000E+00 -0.36391130399E+03  0.36391130399E+03  0.00000000000E+00 0. -1.
          6    2    1    2  501    0 -0.10674744941E+01 -0.63186544998E+02 -0.28673400553E+03  0.34332899765E+03  0.17794586742E+03 0.  0.
         24    2    3    3    0    0 -0.22671917222E+02  0.14105380467E+02 -0.62585920826E+02  0.10520036107E+03  0.80231794783E+02 0.  0.
         -6    2    1    2    0  502  0.10674744941E+01  0.63186544998E+02  0.11848347083E+03  0.21624307563E+03  0.16949647763E+03 0.  0.
        -24    2    5    5    0    0 -0.54462807072E+02  0.67514181012E+02  0.48759751839E+02  0.12687961781E+03  0.78718244542E+02 0.  0.
          5    1    3    3  501    0  0.21604442728E+02 -0.77291925465E+02 -0.22414808470E+03  0.23812863659E+03  0.47000000000E+01 0. -1.
        -11    1    4    4    0    0  0.29194479191E+02  0.14567747542E+02 -0.26149253952E+02  0.41812921040E+02  0.00000000000E+00 0.  1.
         12    1    4    4    0    0 -0.51866396413E+02 -0.46236707529E+00 -0.36436666874E+02  0.63387440026E+02  0.00000000000E+00 0. -1.
         -5    1    5    5    0  502  0.55530281566E+02 -0.43276360143E+01  0.69723718988E+02  0.89363457822E+02  0.47000000000E+01 0.  1.
         11    1    6    6    0    0  0.16396603676E+02  0.12022331640E+02  0.27847232027E+02  0.34479753505E+02  0.00000000000E+00 0. -1.
        -12    1    6    6    0    0 -0.70859410748E+02  0.55491849373E+02  0.20912519812E+02  0.92399864303E+02  0.00000000000E+00 0.  1.
</event>
<event>
12    1  0.8135779E-002  0.2276631E+03  0.7818608E-02  0.1128476E+00
         21   -1    0    0  503  502  0.00000000000E+00  0.00000000000E+00  0.16335908026E+04  0.16335908026E+04  0.00000000000E+00 0.  1.
         21   -1    0    0  501  503 -0.00000000000E+00 -0.00000000000E+00 -0.86957180066E+03  0.86957180066E+03  0.00000000000E+00 0. -1.
          6    2    1    2  501    0  0.14751058722E+03 -0.13164344624E+02 -0.84666050863E+03  0.87647303389E+03  0.17157589855E+03 0.  0.
         24    2    3    3    0    0  0.68886641061E+01 -0.20829964017E+02 -0.38464912388E+03  0.39345140227E+03  0.79797972106E+02 0.  0.
         -6    2    1    2    0  502 -0.14751058722E+03  0.13164344624E+02  0.16106795106E+04  0.16266895694E+04  0.17290979159E+03 0.  0.
        -24    2    5    5    0    0 -0.13188942852E+02 -0.28495311924E+02  0.52481307398E+03  0.53174398203E+03  0.79605080176E+02 0.  0.
          5    1    3    3  501    0  0.14062192311E+03  0.76656193926E+01 -0.46201138475E+03  0.48302163162E+03  0.47000000000E+01 0. -1.
        -11    1    4    4    0    0  0.32034754277E+01 -0.51136748575E+02 -0.21046627002E+03  0.21661320395E+03  0.00000000000E+00 0.  1.
         12    1    4    4    0    0  0.36851886784E+01  0.30306784559E+02 -0.17418285386E+03  0.17683819831E+03  0.00000000000E+00 0. -1.
         -5    1    5    5    0  502 -0.13432164436E+03  0.41659656548E+02  0.10858664366E+04  0.10949455874E+04  0.47000000000E+01 0.  1.
         13    1    6    6    0    0 -0.24951801463E+02 -0.47934441933E+02  0.45791667902E+03  0.46109433747E+03  0.00000000000E+00 0. -1.
        -14    1    6    6    0    0  0.11762858611E+02  0.19439130009E+02  0.66896394956E+02  0.70649644559E+02  0.00000000000E+00 0.  1.
</event>
<event>
12    1  0.8135779E-002  0.1741561E+03  0.7818608E-02  0.1174259E+00
         21   -1    0    0  503  502  0.00000000000E+00  0.00000000000E+00  0.28727632230E+03  0.28727632230E+03  0.00000000000E+00 0. -1.
         21   -1    0    0  501  503 -0.00000000000E+00 -0.00000000000E+00 -0.12553749575E+03  0.12553749575E+03  0.00000000000E+00 0. -1.
          6    2    1    2  501    0  0.93109598825E+00  0.28120383893E+02 -0.41608524919E+01  0.17420575375E+03  0.17186828974E+03 0.  0.
         24    2    3    3    0    0 -0.41052708001E+02  0.22077674524E+02 -0.54745527256E+02  0.10802378147E+03  0.80618335770E+02 0.  0.
         -6    2    1    2    0  502 -0.93109598825E+00 -0.28120383893E+02  0.16589967905E+03  0.23860806430E+03  0.16917293492E+03 0.  0.
        -24    2    5    5    0    0  0.43572186117E+02 -0.11630568664E+02  0.16736505564E+03  0.19089335532E+03  0.79971280636E+02 0.  0.
          5    1    3    3  501    0  0.41983803989E+02  0.60427093695E+01  0.50584674764E+02  0.66181972280E+02  0.47000000000E+01 0. -1.
        -11    1    4    4    0    0 -0.59725654869E+02 -0.29084591870E+01 -0.24645003993E+02  0.64676032703E+02  0.00000000000E+00 0.  1.
         12    1    4    4    0    0  0.18672946868E+02  0.24986133711E+02 -0.30100523263E+02  0.43347748768E+02  0.00000000000E+00 0. -1.
         -5    1    5    5    0  502 -0.44503282105E+02 -0.16489815229E+02 -0.14653765887E+01  0.47714708979E+02  0.47000000000E+01 0.  1.
         13    1    6    6    0    0 -0.13396548987E+02  0.19741142839E+02  0.26007432331E+02  0.35292588200E+02  0.00000000000E+00 0. -1.
        -14    1    6    6    0    0  0.56968735104E+02 -0.31371711503E+02  0.14135762330E+03  0.15560076712E+03  0.00000000000E+00 0.  1.
</event>
<event>
12    1  0.8135779E-002  0.2026810E+03  0.7818608E-02  0.1148059E+00
         21   -1    0    0  501  502  0.00000000000E+00  0.00000000000E+00  0.18055070641E+03  0.18055070641E+03  0.00000000000E+00 0. -1.
         21   -1    0    0  502  503 -0.00000000000E+00 -0.00000000000E+00 -0.28372185907E+03  0.28372185907E+03  0.00000000000E+00 0. -1.
         -6    2    1    2    0  503  0.36451089482E+01 -0.10323120536E+03 -0.15790674988E+03  0.25693215030E+03  0.17438354172E+03 0.  0.
        -24    2    3    3    0    0  0.61164957600E+02 -0.10433084161E+03 -0.10664211394E+03  0.17973179353E+03  0.79403404147E+02 0.  0.
          6    2    1    2  501    0 -0.36451089482E+01  0.10323120536E+03  0.54735597213E+02  0.20734041518E+03  0.17124279133E+03 0.  0.
         24    2    5    5    0    0  0.49736443867E+02  0.24016067124E+02  0.56225052703E+02  0.11169034050E+03  0.79139056614E+02 0.  0.
          5    1    5    5  501    0 -0.53381552815E+02  0.79215138239E+02 -0.14894554903E+01  0.95650074672E+02  0.47000000000E+01 0. -1.
        -13    1    6    6    0    0  0.38921264723E+02  0.33950561258E+02  0.72982334538E+02  0.89408761383E+02  0.00000000000E+00 0.  1.
         14    1    6    6    0    0  0.10815179144E+02 -0.99344941345E+01 -0.16757281835E+02  0.22281579121E+02  0.00000000000E+00 0. -1.
         -5    1    3    3    0  503 -0.57519848652E+02  0.10996362446E+01 -0.51264635934E+02  0.77200356775E+02  0.47000000000E+01 0.  1.
         13    1    4    4    0    0  0.18242211924E+02 -0.94665081880E+02 -0.51863993477E+02  0.10947205051E+03  0.00000000000E+00 0. -1.
        -14    1    4    4    0    0  0.42922745676E+02 -0.96657597271E+01 -0.54778120465E+02  0.70259743019E+02  0.00000000000E+00 0.  1.
</event>
<event>
12    1  0.8135779E-002  0.2992226E+03  0.7818608E-02  0.1085659E+00
         21   -1    0    0  501  502  0.00000000000E+00  0.00000000000E+00  0.50429723548E+03  0.50429723548E+03  0.00000000000E+00 0.  1.
         21   -1    0    0  502  503 -0.00000000000E+00 -0.00000000000E+00 -0.23769904083E+03  0.23769904083E+03  0.00000000000E+00 0. -1.
         -6    2    1    2    0  503  0.78249635875E+02 -0.23164498195E+03 -0.53511897663E+02  0.30396986566E+03  0.17248696431E+03 0.  0.
        -24    2    3    3    0    0  0.11833400607E+03 -0.14768179713E+03 -0.48067161867E+02  0.21065154866E+03  0.79061828375E+02 0.  0.
          6    2    1    2  501    0 -0.78249635875E+02  0.23164498195E+03  0.32011009231E+03  0.43802641066E+03  0.17208794860E+03 0.  0.
         24    2    5    5    0    0 -0.51864563050E+02  0.28190111280E+02  0.13189694146E+03  0.15957293766E+03  0.67691240150E+02 0.  0.
          5    1    5    5  501    0 -0.26385072825E+02  0.20345487067E+03  0.18821315085E+03  0.27845347299E+03  0.47000000000E+01 0. -1.
        -13    1    6    6    0    0  0.10310208315E+02  0.23991442279E+02  0.26999548816E+02  0.37561487383E+02  0.00000000000E+00 0.  1.
         14    1    6    6    0    0 -0.62174771365E+02  0.41986690009E+01  0.10489739264E+03  0.12201145028E+03  0.00000000000E+00 0. -1.
         -5    1    3    3    0  503 -0.40084370194E+02 -0.83963184824E+02 -0.54447357956E+01  0.93318316999E+02  0.47000000000E+01 0.  1.
         13    1    4    4    0    0  0.48900763506E+02 -0.39578958661E+02 -0.52729835025E+02  0.82086625841E+02  0.00000000000E+00 0. -1.
        -14    1    4    4    0    0  0.69433242563E+02 -0.10810283847E+03  0.46626731586E+01  0.12856492282E+03  0.00000000000E+00 0.  1.
</event>
<event>
12    1  0.8135779E-002  0.1849132E+03  0.7818608E-02  0.1163203E+00
         21   -1    0    0  503  502  0.00000000000E+00  0.00000000000E+00  0.41454671805E+03  0.41454671805E+03  0.00000000000E+00 0. -1.
         21   -1    0    0  501  503 -0.00000000000E+00 -0.00000000000E+00 -0.85628195571E+02  0.85628195571E+02  0.00000000000E+00 0.  1.
          6    2    1    2  501    0  0.30580124125E+02 -0.60045122275E+02  0.11536093636E+03  0.21768642313E+03  0.17186818344E+03 0.  0.
         24    2    3    3    0    0  0.76193430099E+02 -0.97614628848E+01  0.90376544040E+02  0.14519276863E+03  0.83739449497E+02 0.  0.
         -6    2    1    2    0  502 -0.30580124125E+02  0.60045122275E+02  0.21355758612E+03  0.28248849049E+03  0.17219855972E+03 0.  0.
        -24    2    5    5    0    0  0.18728393066E+02  0.79407351437E+02  0.19052913427E+03  0.22453484194E+03  0.86361241714E+02 0.  0.
          5    1    3    3  501    0 -0.45613305974E+02 -0.50283659391E+02  0.24984392319E+02  0.72493654502E+02  0.47000000000E+01 0. -1.
        -11    1    4    4    0    0  0.24845217035E+02 -0.21991106466E+02 -0.74757725056E+01  0.34011479646E+02  0.00000000000E+00 0.  1.
         12    1    4    4    0    0  0.51348213064E+02  0.12229643581E+02  0.97852316546E+02  0.11118128898E+03  0.00000000000E+00 0. -1.
         -5    1    5    5    0  502 -0.49308517191E+02 -0.19362229162E+02  0.23028451852E+02  0.57953648551E+02  0.47000000000E+01 0.  1.
         13    1    6    6    0    0  0.36080216966E+02  0.76766933554E+02  0.18870030092E+03  0.20688824933E+03  0.00000000000E+00 0. -1.
        -14    1    6    6    0    0 -0.17351823900E+02  0.26404178831E+01  0.18288333473E+01  0.17646592607E+02  0.00000000000E+00 0.  1.
</event>
<event>
12    1  0.8135779E-002  0.1788507E+03  0.7818608E-02  0.1168992E+00
         21   -1    0    0  501  502  0.00000000000E+00  0.00000000000E+00  0.19269806586E+03  0.19269806586E+03  0.00000000000E+00 0. -1.
         21   -1    0    0  502  503 -0.00000000000E+00 -0.00000000000E+00 -0.69302704850E+03  0.69302704850E+03  0.00000000000E+00 0. -1.
         -6    2    1    2    0  503 -0.21093503072E+02 -0.45340551695E+02 -0.63641394811E+03  0.66098818080E+03  0.17141166910E+03 0.  0.
        -24    2    3    3    0    0 -0.48940184333E+02 -0.87177108415E+02 -0.46581113662E+03  0.48307487487E+03  0.79914515965E+02 0.  0.
          6    2    1    2  501    0  0.21093503072E+02  0.45340551695E+02  0.13608496547E+03  0.22473693356E+03  0.17171741315E+03 0.  0.
         24    2    5    5    0    0 -0.36284599575E+02  0.68586653716E+02  0.60097383250E+02  0.12661032873E+03  0.79986115260E+02 0.  0.
          5    1    5    5  501    0  0.57378102647E+02 -0.23246102022E+02  0.75987582218E+02  0.98126604822E+02  0.47000000000E+01 0. -1.
        -13    1    6    6    0    0  0.19115554129E+02  0.49107238883E+02  0.27329017930E+02  0.59361608312E+02  0.00000000000E+00 0.  1.
         14    1    6    6    0    0 -0.55400153703E+02  0.19479414833E+02  0.32768365320E+02  0.67248720422E+02  0.00000000000E+00 0. -1.
         -5    1    3    3    0  503  0.27846681261E+02  0.41836556721E+02 -0.17060281149E+03  0.17791330592E+03  0.47000000000E+01 0.  1.
         11    1    4    4    0    0 -0.30947405004E+02 -0.30237681935E+02 -0.35105974477E+03  0.35371599297E+03  0.00000000000E+00 0. -1.
        -12    1    4    4    0    0 -0.17992779329E+02 -0.56939426480E+02 -0.11475139185E+03  0.12935888190E+03  0.00000000000E+00 0.  1.
</event>
<event>
12    1  0.8135779E-002  0.2046066E+03  0.7818608E-02  0.1148454E+00
         21   -1    0    0  503  502  0.00000000000E+00  0.00000000000E+00  0.91652412396E+02  0.91652412396E+02  0.00000000000E+00 0. -1.
         21   -1    0    0  501  503 -0.00000000000E+00 -0.00000000000E+00 -0.88910943361E+03  0.88910943361E+03  0.00000000000E+00 0.  1.
          6    2    1    2  501    0  0.70801930870E+02 -0.50722191466E+02 -0.75676147116E+03  0.78393354531E+03  0.18514379578E+03 0.  0.
         24    2    3    3    0    0  0.26625193728E+02 -0.66913705426E+02 -0.70730277915E+03  0.71550839318E+03  0.80552432650E+02 0.  0.
         -6    2    1    2    0  502 -0.70801930870E+02  0.50722191466E+02 -0.40695550062E+02  0.19682830070E+03  0.17175447022E+03 0.  0.
        -24    2    5    5    0    0 -0.74221390416E+02 -0.13895369384E+02 -0.62215043092E+02  0.12847407293E+03  0.83264516708E+02 0.  0.
          5    1    3    3  501    0  0.44176737142E+02  0.16191513960E+02 -0.49458692004E+02  0.68425152127E+02  0.47000000000E+01 0. -1.
        -11    1    4    4    0    0 -0.24130713187E+02 -0.14709469501E+02 -0.33249770888E+03  0.33369654811E+03  0.00000000000E+00 0.  1.
         12    1    4    4    0    0  0.50755906915E+02 -0.52204235924E+02 -0.37480507027E+03  0.38181184507E+03  0.00000000000E+00 0. -1.
         -5    1    5    5    0  502  0.34194595459E+01  0.64617560850E+02  0.21519493030E+02  0.68354227770E+02  0.47000000000E+01 0.  1.
         11    1    6    6    0    0 -0.30927670700E+02 -0.30654733575E+02 -0.68964271763E+02  0.81561659407E+02  0.00000000000E+00 0. -1.
        -12    1    6    6    0    0 -0.43293719715E+02  0.16759364190E+02  0.67492286705E+01  0.46912413523E+02  0.00000000000E+00 0.  1.
</event>
<event>
12    1  0.8135779E-002  0.1889082E+03  0.7818608E-02  0.1160166E+00
         21   -1    0    0  501  502  0.00000000000E+00  0.00000000000E+00  0.51658794449E+02  0.51658794449E+02  0.00000000000E+00 0.  1.
         21   -1    0    0  502  503 -0.00000000000E+00 -0.00000000000E+00 -0.98007336614E+03  0.98007336614E+03  0.00000000000E+00 0.  1.
         -6    2    1    2    0  503  0.57717865313E+02  0.39920510146E+02 -0.74723344222E+03  0.76998245643E+03  0.17201792616E+03 0.  0.
        -24    2    3    3    0    0  0.84613957749E+02  0.22873926392E+02 -0.31602177934E+03  0.33757110827E+03  0.80010935306E+02 0.  0.
          6    2    1    2  501    0 -0.57717865313E+02 -0.39920510146E+02 -0.18118112947E+03  0.26174970416E+03  0.17538901575E+03 0.  0.
         24    2    5    5    0    0 -0.98903418603E+02 -0.11598270496E+02 -0.80347198513E+02  0.14910881154E+03  0.76559514630E+02 0.  0.
          5    1    5    5  501    0  0.41185553290E+02 -0.28322239650E+02 -0.10083393095E+03  0.11264089262E+03  0.47000000000E+01 0. -1.
        -13    1    6    6    0    0 -0.43040706220E+02 -0.32531950341E+02 -0.70293243417E+02  0.88611343828E+02  0.00000000000E+00 0.  1.
         14    1    6    6    0    0 -0.55862712383E+02  0.20933679845E+02 -0.10053955096E+02  0.60497467713E+02  0.00000000000E+00 0. -1.
         -5    1    3    3    0  503 -0.26896092436E+02  0.17046583754E+02 -0.43121166289E+03  0.43241134816E+03  0.47000000000E+01 0.  1.
         11    1    4    4    0    0  0.44696982204E+02  0.35519841947E+02 -0.82519058500E+02  0.10034378110E+03  0.00000000000E+00 0. -1.
        -12    1    4    4    0    0  0.39916975545E+02 -0.12645915555E+02 -0.23350272084E+03  0.23722732717E+03  0.00000000000E+00 0.  1.
</event>
<event>
12    1  0.8135779E-002  0.2174463E+03  0.7818608E-02  0.1136015E+00
         21   -1    0    0  503  502  0.00000000000E+00  0.00000000000E+00  0.95739622040E+02  0.95739622040E+02  0.00000000000E+00 0. -1.
         21   -1    0    0  501  503 -0.00000000000E+00 -0.00000000000E+00 -0.49545333655E+03  0.49545333655E+03  0.00000000000E+00 0. -1.
          6    2    1    2  501    0 -0.13158026206E+03  0.18835139524E+02 -0.22634280848E+03  0.31309163836E+03  0.17066686619E+03 0.  0.
         24    2    3    3    0    0 -0.91597202853E+02  0.72644321785E+02 -0.18947822184E+03  0.23644204040E+03  0.79596462606E+02 0.  0.
         -6    2    1    2    0  502  0.13158026206E+03 -0.18835139524E+02 -0.17337090603E+03  0.27810132023E+03  0.17208935299E+03 0.  0.
        -24    2    5    5    0    0  0.86655045195E+02  0.56067338856E+02 -0.10697931815E+03  0.16828971193E+03  0.78893658068E+02 0.  0.
          5    1    3    3  501    0 -0.39983059205E+02 -0.53809182260E+02 -0.36864586643E+02  0.76649597959E+02  0.47000000000E+01 0. -1.
        -13    1    4    4    0    0 -0.69834022435E+02  0.70471362391E+02 -0.87943894159E+02  0.13257877706E+03  0.00000000000E+00 0.  1.
         14    1    4    4    0    0 -0.21763180419E+02  0.21729593935E+01 -0.10153432768E+03  0.10386326334E+03  0.00000000000E+00 0. -1.
         -5    1    5    5    0  502  0.44925216864E+02 -0.74902478381E+02 -0.66391587875E+02  0.10981160830E+03  0.47000000000E+01 0.  1.
         13    1    6    6    0    0 -0.47887143567E+01 -0.10819740112E+01  0.87969700546E+01  0.10074181609E+02  0.00000000000E+00 0. -1.
        -14    1    6    6    0    0  0.91443759552E+02  0.57149312868E+02 -0.11577628821E+03  0.15821553032E+03  0.00000000000E+00 0.  1.
</event>
<event>
12    1  0.8135779E-002  0.2306785E+03  0.7818608E-02  0.1126582E+00
         21   -1    0    0  503  502  0.00000000000E+00  0.00000000000E+00  0.12337858262E+04  0.12337858262E+04  0.00000000000E+00 0.  1.
         21   -1    0    0  501  503 -0.00000000000E+00 -0.00000000000E+00 -0.46644874181E+02  0.46644874181E+02  0.00000000000E+00 0. -1.
          6    2    1    2  501    0 -0.14574392658E+03  0.49327707635E+02  0.40988623419E+03  0.47033955824E+03  0.17186640213E+03 0.  0.
         24    2    3    3    0    0 -0.17371615591E+03  0.32121406118E+02  0.31641591136E+03  0.37115642622E+03  0.80180896776E+02 0.  0.
         -6    2    1    2    0  502  0.14574392658E+03 -0.49327707635E+02  0.77725471786E+03  0.81009114218E+03  0.16866608233E+03 0.  0.
        -24    2    5    5    0    0  0.14115483561E+03 -0.55690979867E+02  0.78150005730E+03  0.80000829057E+03  0.79023746874E+02 0.  0.
          5    1    3    3  501    0  0.27972229327E+02  0.17206301517E+02  0.93470322837E+02  0.99183132016E+02  0.47000000000E+01 0. -1.
        -11    1    4    4    0    0 -0.54302730440E+02  0.34170003628E+02  0.17305618944E+03  0.18456657440E+03  0.00000000000E+00 0.  1.
         12    1    4    4    0    0 -0.11941342547E+03 -0.20485975099E+01  0.14335972191E+03  0.18658985182E+03  0.00000000000E+00 0. -1.
         -5    1    5    5    0  502  0.45890909771E+01  0.63632722319E+01 -0.42453394444E+01  0.10082851605E+02  0.47000000000E+01 0.  1.
         11    1    6    6    0    0  0.76351054555E+01 -0.12755223495E+02  0.16299700208E+02  0.22060616234E+02  0.00000000000E+00 0. -1.
        -12    1    6    6    0    0  0.13351973015E+03 -0.42935756372E+02  0.76520035709E+03  0.77794767434E+03  0.00000000000E+00 0.  1.
</event>
<event>
12    1  0.8135779E-002  0.1840073E+03  0.7818608E-02  0.1164411E+00
         21   -1    0    0  501  502  0.00000000000E+00  0.00000000000E+00  0.39595049693E+03  0.39595049693E+03  0.00000000000E+00 0. -1.
         21   -1    0    0  502  503 -0.00000000000E+00 -0.00000000000E+00 -0.31261745674E+03  0.31261745674E+03  0.00000000000E+00 0.  1.
         -6    2    1    2    0  503 -0.55585125349E+02 -0.31493890226E+02 -0.26091541215E+03  0.31822749246E+03  0.17061744747E+03 0.  0.
        -24    2    3    3    0    0  0.32820377562E+02 -0.35793985335E+02 -0.14248188425E+03  0.17029975911E+03  0.79640027912E+02 0.  0.
          6    2    1    2  501    0  0.55585125349E+02  0.31493890226E+02  0.34424845234E+03  0.39034046122E+03  0.17256044577E+03 0.  0.
         24    2    5    5    0    0  0.73528434695E+02 -0.27585605345E+02  0.27212695343E+03  0.29528284841E+03  0.83495421748E+02 0.  0.
          5    1    5    5  501    0 -0.17943309345E+02  0.59079495570E+02  0.72121498912E+02  0.95057612806E+02  0.47000000000E+01 0. -1.
        -13    1    6    6    0    0  0.41371897279E+02 -0.50168597164E+02  0.10424723998E+03  0.12286581734E+03  0.00000000000E+00 0.  1.
         14    1    6    6    0    0  0.32156537416E+02  0.22582991819E+02  0.16787971344E+03  0.17241703107E+03  0.00000000000E+00 0. -1.
         -5    1    3    3    0  503 -0.88405502911E+02  0.43000951090E+01 -0.11843352790E+03  0.14792773335E+03  0.47000000000E+01 0.  1.
         13    1    4    4    0    0  0.48648567221E+02  0.55920474466E+01 -0.74592443138E+02  0.89229965038E+02  0.00000000000E+00 0. -1.
        -14    1    4    4    0    0 -0.15828189659E+02 -0.41386032781E+02 -0.67889441111E+02  0.81069794077E+02  0.00000000000E+00 0.  1.
</event>
<event>
12    1  0.8135779E-002  0.2353880E+03  0.7818608E-02  0.1123013E+00
         21   -1    0    0  501  502  0.00000000000E+00  0.00000000000E+00  0.22972941550E+03  0.22972941550E+03  0.00000000000E+00 0.  1.
         21   -1    0    0  502  503 -0.00000000000E+00 -0.00000000000E+00 -0.50480240139E+03  0.50480240139E+03  0.00000000000E+00 0. -1.
         -6    2    1    2    0  503  0.15669344257E+03  0.32404262258E+02 -0.40335691615E+03  0.46701641143E+03  0.17264024903E+03 0.  0.
        -24    2    3    3    0    0  0.10183077542E+03 -0.47490836264E+02 -0.24657019151E+03  0.28263282746E+03  0.80371446837E+02 0.  0.
          6    2    1    2  501    0 -0.15669344257E+03 -0.32404262258E+02  0.12828393026E+03  0.26751540546E+03  0.17176977103E+03 0.  0.
         24    2    5    5    0    0 -0.15213607846E+03 -0.68206613286E+02  0.13784426155E+03  0.22988472860E+03  0.77771585680E+02 0.  0.
          5    1    5    5  501    0 -0.45573641085E+01  0.35802351028E+02 -0.95603312840E+01  0.37630676861E+02  0.47000000000E+01 0. -1.
        -13    1    6    6    0    0 -0.12411338306E+03 -0.28405464374E+02  0.66848327693E+02  0.14380438511E+03  0.00000000000E+00 0.  1.
         14    1    6    6    0    0 -0.28022695393E+02 -0.39801148911E+02  0.70995933853E+02  0.86080343490E+02  0.00000000000E+00 0. -1.
         -5    1    3    3    0  503  0.54862667148E+02  0.79895098523E+02 -0.15678672464E+03  0.18438358397E+03  0.47000000000E+01 0.  1.
         11    1    4    4    0    0  0.60344173649E+02 -0.21058481942E+01 -0.18895771560E+03  0.19837054260E+03  0.00000000000E+00 0. -1.
        -12    1    4    4    0    0  0.41486601769E+02 -0.45384988070E+02 -0.57612475914E+02  0.84262284858E+02  0.00000000000E+00 0.  1.
</event>
<event>
12    1  0.8135779E-002  0.2112538E+03  0.7818608E-02  0.1140942E+00
         21   -1    0    0  503  502  0.00000000000E+00  0.00000000000E+00  0.14614759578E+03  0.14614759578E+03  0.00000000000E+00 0. -1.
         21   -1    0    0  501  503 -0.00000000000E+00 -0.00000000000E+00 -0.36882127804E+03  0.36882127804E+03  0.00000000000E+00 0. -1.
          6    2    1    2  501    0 -0.97646333429E+02 -0.72634826315E+02 -0.22076365338E+03  0.30555644521E+03  0.17267752064E+03 0.  0.
         24    2    3    3    0    0 -0.64810460535E+02 -0.99008662910E+02 -0.89752111192E+02  0.16786153612E+03  0.78223671085E+02 0.  0.
         -6    2    1    2    0  502  0.97646333429E+02  0.72634826315E+02 -0.19100288818E+01  0.20941242861E+03  0.17040919172E+03 0.  0.
        -24    2    5    5    0    0 -0.13702157272E+02  0.45245649626E+02 -0.32204973527E+01  0.94641087640E+02  0.81924635749E+02 0.  0.
          5    1    3    3  501    0 -0.32835872894E+02  0.26373836595E+02 -0.13101154219E+03  0.13769490910E+03  0.47000000000E+01 0. -1.
        -11    1    4    4    0    0 -0.68748645369E+02 -0.10776386251E+03 -0.92606424261E+02  0.15784605196E+03  0.00000000000E+00 0.  1.
         12    1    4    4    0    0  0.39381848340E+01  0.87551996027E+01  0.28543130690E+01  0.10015484160E+02  0.00000000000E+00 0. -1.
         -5    1    5    5    0  502  0.11134849070E+03  0.27389176688E+02  0.13104684710E+01  0.11477134097E+03  0.47000000000E+01 0.  1.
         11    1    6    6    0    0 -0.41567732025E+02  0.40365480856E+02 -0.20535371476E+02  0.61473163837E+02  0.00000000000E+00 0. -1.
        -12    1    6    6    0    0  0.27865574753E+02  0.48801687702E+01  0.17314874123E+02  0.33167923804E+02  0.00000000000E+00 0.  1.
</event>
<event>
12    1  0.8135779E-002  0.2095881E+03  0.7818608E-02  0.1142967E+00
         21   -1    0    0  503  502  0.00000000000E+00  0.00000000000E+00  0.93496886205E+02  0.93496886205E+02  0.00000000000E+00 0.  1.
         21   -1    0    0  501  503 -0.00000000000E+00 -0.00000000000E+00 -0.13714560021E+04  0.13714560021E+04  0.00000000000E+00 0.  1.
          6    2    1    2  501    0 -0.12056822887E+03 -0.59275364009E+01 -0.12395215710E+04  0.12571161056E+04  0.17133401498E+03 0.  0.
         24    2    3    3    0    0 -0.11850893783E+03  0.64587982859E+01 -0.57610608939E+03  0.59356516325E+03  0.79594549851E+02 0.  0.
         -6    2    1    2    0  502  0.12056822887E+03  0.59275364009E+01 -0.38437544979E+02  0.20783678271E+03  0.16476301127E+03 0.  0.
        -24    2    5    5    0    0  0.11575537741E+03  0.55450396929E+02 -0.14291759044E+02  0.15233195200E+03  0.80788088866E+02 0.  0.
          5    1    3    3  501    0 -0.20592910340E+01 -0.12386334687E+02 -0.66341548157E+03  0.66355094239E+03  0.47000000000E+01 0. -1.
        -11    1    4    4    0    0 -0.10293087200E+03 -0.14614595025E+02 -0.53357277545E+03  0.54360671216E+03  0.00000000000E+00 0.  1.
         12    1    4    4    0    0 -0.15578065836E+02  0.21073393311E+02 -0.42533313940E+02  0.49958451092E+02  0.00000000000E+00 0. -1.
         -5    1    5    5    0  502  0.48128514541E+01 -0.49522860528E+02 -0.24145785935E+02  0.55504830712E+02  0.47000000000E+01 0.  1.
         11    1    6    6    0    0  0.48477689632E+02 -0.86834459976E+01 -0.30574433894E+02  0.57967962138E+02  0.00000000000E+00 0. -1.
        -12    1    6    6    0    0  0.67277687781E+02  0.64133842926E+02  0.16282674849E+02  0.94363989858E+02  0.00000000000E+00 0.  1.
</event>
<event>
12    1  0.8135779E-002  0.2104674E+03  0.7818608E-02  0.1141426E+00
         21   -1    0    0  501  502  0.00000000000E+00  0.00000000000E+00  0.74581984951E+02  0.74581984951E+02  0.00000000000E+00 0.  1.
         21   -1    0    0  502  503 -0.00000000000E+00 -0.00000000000E+00 -0.85363295269E+03  0.85363295269E+03  0.00000000000E+00 0. -1.
         -6    2    1    2    0  503 -0.71959937926E+02  0.98022313079E+02 -0.64786236841E+03  0.68119172391E+03  0.17178448650E+03 0.  0.
        -24    2    3    3    0    0 -0.78044240239E+02 -0.12946034342E+01 -0.33727954685E+03  0.35502512893E+03  0.78694154872E+02 0.  0.
          6    2    1    2  501    0  0.71959937926E+02 -0.98022313079E+02 -0.13118859933E+03  0.24702321372E+03  0.17036259272E+03 0.  0.
         24    2    5    5    0    0 -0.25281206608E+02 -0.33896531073E+02 -0.62677931213E+02  0.11180576754E+03  0.82364387734E+02 0.  0.
          5    1    5    5  501    0  0.97241144534E+02 -0.64125782006E+02 -0.68510668113E+02  0.13521744619E+03  0.47000000000E+01 0. -1.
        -11    1    6    6    0    0  0.11593611863E+02  0.14018894185E+02  0.70542047199E+01  0.19511612810E+02  0.00000000000E+00 0.  1.
         12    1    6    6    0    0 -0.36874818471E+02 -0.47915425258E+02 -0.69732135933E+02  0.92294154727E+02  0.00000000000E+00 0. -1.
         -5    1    3    3    0  503  0.60843023127E+01  0.99316916513E+02 -0.31058282156E+03  0.32616659499E+03  0.47000000000E+01 0.  1.
         13    1    4    4    0    0 -0.66121010496E+02  0.26649963914E+02 -0.29143118384E+03  0.30002390492E+03  0.00000000000E+00 0. -1.
        -14    1    4    4    0    0 -0.11923229743E+02 -0.27944567348E+02 -0.45848363012E+02  0.55001224011E+02  0.00000000000E+00 0.  1.
</event>
<event>
12    1  0.8135779E-002  0.2630957E+03  0.7818608E-02  0.1105393E+00
         21   -1    0    0  503  502  0.00000000000E+00  0.00000000000E+00  0.53863093762E+03  0.53863093762E+03  0.00000000000E+00 0.  1.
         21   -1    0    0  501  503 -0.00000000000E+00 -0.00000000000E+00 -0.13020482715E+03  0.13020482715E+03  0.00000000000E+00 0. -1.
          6    2    1    2  501    0 -0.18094035875E+03  0.80015631782E+02  0.16240308636E+03  0.30863206995E+03  0.17244441827E+03 0.  0.
         24    2    3    3    0    0 -0.20131510431E+03  0.94484229737E+02  0.15607829944E+03  0.28242971294E+03  0.77143154607E+02 0.  0.
         -6    2    1    2    0  502  0.18094035875E+03 -0.80015631782E+02  0.24602302411E+03  0.36020369482E+03  0.17342854039E+03 0.  0.
        -24    2    5    5    0    0  0.19195274799E+03 -0.28632058440E+02  0.19850552622E+03  0.28919984330E+03  0.81033654683E+02 0.  0.
          5    1    3    3  501    0  0.20374745562E+02 -0.14468597955E+02  0.63247869222E+01  0.26202357015E+02  0.47000000000E+01 0. -1.
        -11    1    4    4    0    0 -0.17020087435E+03  0.79126594473E+02  0.90803402223E+02  0.20850566764E+03  0.00000000000E+00 0.  1.
         12    1    4    4    0    0 -0.31114229959E+02  0.15357635264E+02  0.65274897215E+02  0.73924045298E+02  0.00000000000E+00 0. -1.
         -5    1    5    5    0  502 -0.11012389245E+02 -0.51383573342E+02  0.47517497888E+02  0.71003851527E+02  0.47000000000E+01 0.  1.
         11    1    6    6    0    0  0.13068925995E+03 -0.28910565132E+02  0.80372334968E+02  0.15612564066E+03  0.00000000000E+00 0. -1.
        -12    1    6    6    0    0  0.61263488042E+02  0.27850669199E+00  0.11813319125E+03  0.13307420264E+03  0.00000000000E+00 0.  1.
</event>
<event>
12    1  0.8135779E-002  0.2107629E+03  0.7818608E-02  0.1142404E+00
         21   -1    0    0  501  502  0.00000000000E+00  0.00000000000E+00  0.70491697900E+02  0.70491697900E+02  0.00000000000E+00 0. -1.
         21   -1    0    0  502  503 -0.00000000000E+00 -0.00000000000E+00 -0.20428550621E+04  0.20428550621E+04  0.00000000000E+00 0.  1.
         -6    2    1    2    0  503 -0.90430453710E+02  0.45807288787E+02 -0.18663541162E+04  0.18774252640E+04  0.17655582744E+03 0.  0.
        -24    2    3    3    0    0 -0.10740829209E+03  0.45854802057E+02 -0.18416425162E+04  0.18470772422E+04  0.80049841210E+02 0.  0.
          6    2    1    2  501    0  0.90430453710E+02 -0.45807288787E+02 -0.10600924800E+03  0.23592149600E+03  0.18478370314E+03 0.  0.
         24    2    5    5    0    0  0.97997555019E+02 -0.71546249831E+02 -0.20722643745E+02  0.14639133346E+03  0.79237667144E+02 0.  0.
          5    1    5    5  501    0 -0.75671013089E+01  0.25738961044E+02 -0.85286604259E+02  0.89530162537E+02  0.47000000000E+01 0. -1.
        -13    1    6    6    0    0  0.43367299801E+02 -0.75645989432E+02 -0.26924105898E+02  0.91257579892E+02  0.00000000000E+00 0.  1.
         14    1    6    6    0    0  0.54630255217E+02  0.40997396009E+01  0.62014621535E+01  0.55133753570E+02  0.00000000000E+00 0. -1.
         -5    1    3    3    0  503  0.16977838382E+02 -0.47513269512E-01 -0.24711600040E+02  0.30348021850E+02  0.47000000000E+01 0.  1.
         11    1    4    4    0    0 -0.92369092116E+01  0.81170775066E+01 -0.30528675309E+02  0.32912117148E+02  0.00000000000E+00 0. -1.
        -12    1    4    4    0    0 -0.98171382880E+02  0.37737724550E+02 -0.18111138408E+04  0.18141651250E+04  0.00000000000E+00 0.  1.
</event>
<event>
12    1  0.8135779E-002  0.2085987E+03  0.7818608E-02  0.1143744E+00
         21   -1    0    0  501  502  0.00000000000E+00  0.00000000000E+00  0.38502545673E+03  0.38502545673E+03  0.00000000000E+00 0.  1.
         21   -1    0    0  502  503 -0.00000000000E+00 -0.00000000000E+00 -0.11555128628E+03  0.11555128628E+03  0.00000000000E+00 0. -1.
         -6    2    1    2    0  503 -0.76365621071E+02  0.89662826678E+02  0.79167284814E+02  0.21821151636E+03  0.16576391742E+03 0.  0.
        -24    2    3    3    0    0 -0.67286342451E+02  0.96618548497E+02  0.40891667999E+01  0.14212190360E+03  0.79494140681E+02 0.  0.
          6    2    1    2  501    0  0.76365621071E+02 -0.89662826678E+02  0.19030688564E+03  0.28236522665E+03  0.17216933504E+03 0.  0.
         24    2    5    5    0    0  0.71193960673E+01 -0.10886723449E+03  0.96487724466E+02  0.16409446120E+03  0.75593324299E+02 0.  0.
          5    1    5    5  501    0  0.69246225004E+02  0.19204407811E+02  0.93819161173E+02  0.11827076545E+03  0.47000000000E+01 0. -1.
        -13    1    6    6    0    0  0.98708171145E+01 -0.44937929502E+02  0.88321705279E+02  0.99587018039E+02  0.00000000000E+00 0.  1.
         14    1    6    6    0    0 -0.27514210472E+01 -0.63929304987E+02  0.81660191862E+01  0.64507443162E+02  0.00000000000E+00 0. -1.
         -5    1    3    3    0  503 -0.90792786202E+01 -0.69557218191E+01  0.75078118015E+02  0.76089612766E+02  0.47000000000E+01 0.  1.
         11    1    4    4    0    0 -0.12861267514E+02 -0.11407630631E+02  0.11899927655E+02  0.20908240406E+02  0.00000000000E+00 0. -1.
        -12    1    4    4    0    0 -0.54425074937E+02  0.10802617913E+03 -0.78107608547E+01  0.12121366319E+03  0.00000000000E+00 0.  1.
</event>
<event>
12    1  0.8135779E-002  0.1863107E+03  0.7818608E-02  0.1162339E+00
         21   -1    0    0  503  502  0.00000000000E+00  0.00000000000E+00  0.93285282053E+02  0.93285282053E+02  0.00000000000E+00 0. -1.
         21   -1    0    0  501  503 -0.00000000000E+00 -0.00000000000E+00 -0.37035785863E+03  0.37035785863E+03  0.00000000000E+00 0.  1.
          6    2    1    2  501    0  0.17647448126E+02  0.67396073730E+02 -0.15714961187E+03  0.24207334115E+03  0.17044013261E+03 0.  0.
         24    2    3    3    0    0  0.72807197564E+02  0.34734948646E+02 -0.65523707596E+02  0.13015040612E+03  0.78347733105E+02 0.  0.
         -6    2    1    2    0  502 -0.17647448126E+02 -0.67396073730E+02 -0.11992296471E+03  0.22156979954E+03  0.17279466260E+03 0.  0.
        -24    2    5    5    0    0 -0.12836673774E+02 -0.20998970430E+02 -0.14664138023E+03  0.16760871659E+03  0.77351473997E+02 0.  0.
          5    1    3    3  501    0 -0.55159749439E+02  0.32661125085E+02 -0.91625904278E+02  0.11192293503E+03  0.47000000000E+01 0. -1.
        -13    1    4    4    0    0  0.17347876301E+02 -0.15230672718E+02  0.88995130186E+01  0.24741130442E+02  0.00000000000E+00 0.  1.
         14    1    4    4    0    0  0.55459321263E+02  0.49965621363E+02 -0.74423220615E+02  0.10540927568E+03  0.00000000000E+00 0. -1.
         -5    1    5    5    0  502 -0.48107743512E+01 -0.46397103300E+02  0.26718415523E+02  0.53961082945E+02  0.47000000000E+01 0.  1.
         11    1    6    6    0    0 -0.15279418653E+02  0.27882991099E+02 -0.49449192304E+02  0.58788982356E+02  0.00000000000E+00 0. -1.
        -12    1    6    6    0    0  0.24427448784E+01 -0.48881961529E+02 -0.97192187925E+02  0.10881973424E+03  0.00000000000E+00 0.  1.
</event>
<event>
12    1  0.8135779E-002  0.2686705E+03  0.7818608E-02  0.1102876E+00
         21   -1    0    0  501  502  0.00000000000E+00  0.00000000000E+00  0.83221182564E+03  0.83221182564E+03  0.00000000000E+00 0. -1.
         21   -1    0    0  502  503 -0.00000000000E+00 -0.00000000000E+00 -0.28483184234E+03  0.28483184234E+03  0.00000000000E+00 0.  1.
         -6    2    1    2    0  503 -0.19823992049E+03 -0.13216163242E+02 -0.19335917624E+03  0.33101605841E+03  0.18085941181E+03 0.  0.
        -24    2    3    3    0    0 -0.14611885302E+03 -0.72633063319E+02 -0.16892044612E+03  0.24815282640E+03  0.80121326984E+02 0.  0.
          6    2    1    2  501    0  0.19823992049E+03  0.13216163242E+02  0.74073915954E+03  0.78602760958E+03  0.17225320751E+03 0.  0.
         24    2    5    5    0    0  0.11725871208E+03  0.51736854753E+02  0.60261798038E+03  0.62128128967E+03  0.80098083127E+02 0.  0.
          5    1    5    5  501    0  0.80981208411E+02 -0.38520691512E+02  0.13812117916E+03  0.16474631991E+03  0.47000000000E+01 0. -1.
        -13    1    6    6    0    0  0.51063664106E+02  0.21365449345E+02  0.10828995968E+03  0.12161700369E+03  0.00000000000E+00 0.  1.
         14    1    6    6    0    0  0.66195047975E+02  0.30371405408E+02  0.49432802069E+03  0.49966428598E+03  0.00000000000E+00 0. -1.
         -5    1    3    3    0  503 -0.52121067475E+02  0.59416900077E+02 -0.24438730119E+02  0.82863232011E+02  0.47000000000E+01 0.  1.
         13    1    4    4    0    0 -0.70992402998E+02 -0.43548522384E+02 -0.31861348151E+02  0.89171411289E+02  0.00000000000E+00 0. -1.
        -14    1    4    4    0    0 -0.75126450020E+02 -0.29084540935E+02 -0.13705909797E+03  0.15898141511E+03  0.00000000000E+00 0.  1.
</event>
<event>
12    1  0.8135779E-002  0.1858366E+03  0.7818608E-02  0.1162292E+00
         21   -1    0    0  503  502  0.00000000000E+00  0.00000000000E+00  0.11548697403E+04  0.11548697403E+04  0.00000000000E+00 0. -1.
         21   -1    0    0  501  503 -0.00000000000E+00 -0.00000000000E+00 -0.57655276174E+02  0.57655276174E+02  0.00000000000E+00 0. -1.
          6    2    1    2  501    0 -0.51067907958E+02 -0.49748946608E+02  0.12795381303E+03  0.22562675080E+03  0.17161690912E+03 0.  0.
         24    2    3    3    0    0 -0.73435129023E+02 -0.45782838979E+02  0.24861881656E+02  0.11995717665E+03  0.79264270322E+02 0.  0.
         -6    2    1    2    0  502  0.51067907958E+02  0.49748946608E+02  0.96926065107E+03  0.98689826564E+03  0.17151993503E+03 0.  0.
        -24    2    5    5    0    0  0.94479300688E+02  0.13182283080E+02  0.56308916096E+03  0.57675312149E+03  0.80465204327E+02 0.  0.
          5    1    3    3  501    0  0.22367221065E+02 -0.39661076290E+01  0.10309193138E+03  0.10566957416E+03  0.47000000000E+01 0. -1.
        -13    1    4    4    0    0 -0.57045885032E+02 -0.10895708060E+01  0.40367012029E+02  0.69892172836E+02  0.00000000000E+00 0.  1.
         14    1    4    4    0    0 -0.16389243991E+02 -0.44693268173E+02 -0.15505130372E+02  0.50065003809E+02  0.00000000000E+00 0. -1.
         -5    1    5    5    0  502 -0.43411392729E+02  0.36566663528E+02  0.40617149010E+03  0.41014514415E+03  0.47000000000E+01 0.  1.
         13    1    6    6    0    0  0.34389820447E+02  0.25535330347E+02  0.40369946120E+03  0.40596547615E+03  0.00000000000E+00 0. -1.
        -14    1    6    6    0    0  0.60089480240E+02 -0.12353047267E+02  0.15938969976E+03  0.17078764534E+03  0.00000000000E+00 0.  1.
</event>
<event>
12    1  0.8135779E-002  0.1842075E+03  0.7818608E-02  0.1164112E+00
         21   -1    0    0  501  502  0.00000000000E+00  0.00000000000E+00  0.48029705593E+03  0.48029705593E+03  0.00000000000E+00 0.  1.
         21   -1    0    0  502  503 -0.00000000000E+00 -0.00000000000E+00 -0.74337722951E+02  0.74337722951E+02  0.00000000000E+00 0.  1.
         -6    2    1    2    0  503 -0.12495387627E+01 -0.64900668352E+02  0.13770794661E+03  0.22999100814E+03  0.17239120386E+03 0.  0.
        -24    2    3    3    0    0  0.58197297199E+02 -0.61082969933E+01  0.59024467938E+02  0.11508387585E+03  0.79600087766E+02 0.  0.
          6    2    1    2  501    0  0.12495387627E+01  0.64900668352E+02  0.26825138637E+03  0.32464377073E+03  0.17094184242E+03 0.  0.
         24    2    5    5    0    0 -0.62652409118E+02  0.28651156355E+02  0.19460636427E+03  0.22051325003E+03  0.77512858894E+02 0.  0.
          5    1    5    5  501    0  0.63901947881E+02  0.36249511997E+02  0.73645022097E+02  0.10413052071E+03  0.47000000000E+01 0. -1.
        -11    1    6    6    0    0 -0.17363490799E+02  0.48590586859E+02  0.74616630907E+02  0.90720326013E+02  0.00000000000E+00 0.  1.
         12    1    6    6    0    0 -0.45288918319E+02 -0.19939430504E+02  0.11998973336E+03  0.12979292401E+03  0.00000000000E+00 0. -1.
         -5    1    3    3    0  503 -0.59446835962E+02 -0.58792371359E+02  0.78683478671E+02  0.11490713229E+03  0.47000000000E+01 0.  1.
         13    1    4    4    0    0  0.25114888046E+02  0.29877793370E+02  0.77162079077E+00  0.39038897742E+02  0.00000000000E+00 0. -1.
        -14    1    4    4    0    0  0.33082409153E+02 -0.35986090364E+02  0.58252847147E+02  0.76044978110E+02  0.00000000000E+00 0.  1.
</event>
<event>
12    1  0.8135779E-002  0.2696567E+03  0.7818608E-02  0.1101615E+00
         21   -1    0    0  501  502  0.00000000000E+00  0.00000000000E+00  0.34104441567E+03  0.34104441567E+03  0.00000000000E+00 0. -1.
         21   -1    0    0  502  503 -0.00000000000E+00 -0.00000000000E+00 -0.22400647297E+03  0.22400647297E+03  0.00000000000E+00 0.  1.
         -6    2    1    2    0  503 -0.10578193017E+03  0.17826308184E+03 -0.57565741412E+01  0.26875167946E+03  0.17095842760E+03 0.  0.
        -24    2    3    3    0    0 -0.19026605775E+02  0.46187632983E+02  0.35702151045E+02  0.10531567854E+03  0.85565410005E+02 0.  0.
          6    2    1    2  501    0  0.10578193017E+03 -0.17826308184E+03  0.12279451684E+03  0.29629920919E+03  0.17247372235E+03 0.  0.
         24    2    5    5    0    0  0.61176644175E+00 -0.38674712513E+02  0.70718353398E+02  0.11387198263E+03  0.80434043008E+02 0.  0.
          5    1    5    5  501    0  0.10517016373E+03 -0.13958836933E+03  0.52076163441E+02  0.18242722656E+03  0.47000000000E+01 0. -1.
        -13    1    6    6    0    0 -0.18764378044E+01 -0.26794860855E+02 -0.12603709619E+02  0.29670508645E+02  0.00000000000E+00 0.  1.
         14    1    6    6    0    0  0.24882042461E+01 -0.11879851659E+02  0.83322063017E+02  0.84201473985E+02  0.00000000000E+00 0. -1.
         -5    1    3    3    0  503 -0.86755324398E+02  0.13207544886E+03 -0.41458725187E+02  0.16343600092E+03  0.47000000000E+01 0.  1.
         11    1    4    4    0    0 -0.25565673524E+02  0.67801832853E+02  0.13618006196E+02  0.73730199333E+02  0.00000000000E+00 0. -1.
        -12    1    4    4    0    0  0.65390677491E+01 -0.21614199870E+02  0.22084144849E+02  0.31585479208E+02  0.00000000000E+00 0.  1.
</event>
<event>
12    1  0.8135779E-002  0.2233905E+03  0.7818608E-02  0.1131772E+00
         21   -1    0    0  503  502  0.00000000000E+00  0.00000000000E+00  0.52909616315E+03  0.52909616315E+03  0.00000000000E+00 0. -1.
         21   -1    0    0  501  503 -0.00000000000E+00 -0.00000000000E+00 -0.30480307945E+03  0.30480307945E+03  0.00000000000E+00 0. -1.
          6    2    1    2  501    0  0.10996894673E+03  0.86706270256E+02 -0.23491153608E+03  0.32417085439E+03  0.17404644928E+03 0.  0.
         24    2    3    3    0    0  0.11470431979E+03  0.27941426443E+02 -0.94676989852E+02  0.17197509696E+03  0.81693924357E+02 0.  0.
         -6    2    1    2    0  502 -0.10996894673E+03 -0.86706270256E+02  0.45920461978E+03  0.50972838820E+03  0.17129798705E+03 0.  0.
        -24    2    5    5    0    0 -0.12645936703E+03 -0.20023987201E+02  0.28795074314E+03  0.32515200537E+03  0.80095346619E+02 0.  0.
          5    1    3    3  501    0 -0.47353730527E+01  0.58764843813E+02 -0.14023454622E+03  0.15219575743E+03  0.47000000000E+01 0. -1.
        -11    1    4    4    0    0  0.45407287728E+02 -0.10734639517E+02  0.22393220349E+01  0.46712619575E+02  0.00000000000E+00 0.  1.
         12    1    4    4    0    0  0.69297032058E+02  0.38676065960E+02 -0.96916311887E+02  0.12526247738E+03  0.00000000000E+00 0. -1.
         -5    1    5    5    0  502  0.16490420295E+02 -0.66682283055E+02  0.17125387664E+03  0.18457638283E+03  0.47000000000E+01 0.  1.
         13    1    6    6    0    0 -0.92829759136E+02 -0.44104509206E+02  0.15550931229E+03  0.18640203358E+03  0.00000000000E+00 0. -1.
        -14    1    6    6    0    0 -0.33629607892E+02  0.24080522005E+02  0.13244143085E+03  0.13874997179E+03  0.00000000000E+00 0.  1.
</event>
<event>
12    1  0.8135779E-002  0.2022610E+03  0.7818608E-02  0.1147847E+00
         21   -1    0    0  501  502  0.00000000000E+00  0.00000000000E+00  0.42403369412E+03  0.42403369412E+03  0.00000000000E+00 0. -1.
         21   -1    0    0  502  503 -0.00000000000E+00 -0.00000000000E+00 -0.99732619743E+02  0.99732619743E+02  0.00000000000E+00 0. -1.
         -6    2    1    2    0  503  0.88096004088E+02  0.57887766743E+02  0.11481438510E+03  0.23257657816E+03  0.17261987779E+03 0.  0.
        -24    2    3    3    0    0  0.55307397823E+02  0.67613150796E+02  0.14417435050E+03  0.18725800179E+03  0.81540600164E+02 0.  0.
          6    2    1    2  501    0 -0.88096004088E+02 -0.57887766743E+02  0.20948668928E+03  0.29118973571E+03  0.17261196285E+03 0.  0.
         24    2    5    5    0    0  0.40021259598E+00 -0.30215496219E+01  0.15197401161E+03  0.17214486920E+03  0.80798922362E+02 0.  0.
          5    1    5    5  501    0 -0.88496216684E+02 -0.54866217121E+02  0.57512677671E+02  0.11904486651E+03  0.47000000000E+01 0. -1.
        -11    1    6    6    0    0  0.83384900643E+01  0.62374551313E+01 -0.71003747154E+01  0.12603633768E+02  0.00000000000E+00 0.  1.
         12    1    6    6    0    0 -0.79382774684E+01 -0.92590047532E+01  0.15907438633E+03  0.15954123543E+03  0.00000000000E+00 0. -1.
         -5    1    3    3    0  503  0.32788606265E+02 -0.97253840538E+01 -0.29359965407E+02  0.45318576373E+02  0.47000000000E+01 0.  1.
         11    1    4    4    0    0  0.46185659248E+02 -0.14282936493E+01  0.35872939142E+02  0.58498058991E+02  0.00000000000E+00 0. -1.
        -12    1    4    4    0    0  0.91217385744E+01  0.69041444446E+02  0.10830141136E+03  0.12875994280E+03  0.00000000000E+00 0.  1.
</event>
<event>
12    1  0.8135779E-002  0.2620422E+03  0.7818608E-02  0.1106077E+00
         21   -1    0    0  501  502  0.00000000000E+00  0.00000000000E+00  0.11423686888E+03  0.11423686888E+03  0.00000000000E+00 0.  1.
         21   -1    0    0  502  503 -0.00000000000E+00 -0.00000000000E+00 -0.66196244212E+03  0.66196244212E+03  0.00000000000E+00 0. -1.
         -6    2    1    2    0  503 -0.17373283493E+03 -0.92159660544E+02 -0.39432090992E+03  0.47345017731E+03  0.17317502542E+03 0.  0.
        -24    2    3    3    0    0 -0.15871423799E+03 -0.10912454082E+03 -0.39843678995E+03  0.44994707357E+03  0.81253422540E+02 0.  0.
          6    2    1    2  501    0  0.17373283493E+03  0.92159660544E+02 -0.15340466333E+03  0.30274913370E+03  0.17160287368E+03 0.  0.
         24    2    5    5    0    0  0.54133265502E+02  0.28644098347E+01 -0.11318323360E+03  0.14809612785E+03  0.78634619845E+02 0.  0.
          5    1    5    5  501    0  0.11959956943E+03  0.89295250710E+02 -0.40221429728E+02  0.15465300584E+03  0.47000000000E+01 0. -1.
        -13    1    6    6    0    0  0.55840017644E+02  0.53076369983E+01 -0.27695625590E+02  0.62556584448E+02  0.00000000000E+00 0.  1.
         14    1    6    6    0    0 -0.17067521424E+01 -0.24432271636E+01 -0.85487608013E+02  0.85539543403E+02  0.00000000000E+00 0. -1.
         -5    1    3    3    0  503 -0.15018596945E+02  0.16964880272E+02  0.41158800372E+01  0.23503103738E+02  0.47000000000E+01 0.  1.
         11    1    4    4    0    0 -0.83581020935E+02 -0.43381278111E+02 -0.11044069618E+03  0.14513741669E+03  0.00000000000E+00 0. -1.
        -12    1    4    4    0    0 -0.75133217052E+02 -0.65743262706E+02 -0.28799609377E+03  0.30480965688E+03  0.00000000000E+00 0.  1.
</event>
<event>
12    1  0.8135779E-002  0.2131506E+03  0.7818608E-02  0.1139112E+00
         21   -1    0    0  501  502  0.00000000000E+00  0.00000000000E+00  0.26958825455E+02  0.26958825455E+02  0.00000000000E+00 0.  1.
         21   -1    0    0  502  503 -0.00000000000E+00 -0.00000000000E+00 -0.23793351897E+04  0.23793351897E+04  0.00000000000E+00 0.  1.
         -6    2    1    2    0  503 -0.12623200659E+03  0.13968692698E+02 -0.18264794769E+04  0.18388747761E+04  0.17118270588E+03 0.  0.
        -24    2    3    3    0    0 -0.12637782519E+02  0.44017335685E+02 -0.60560726405E+03  0.61235220444E+03  0.78216524007E+02 0.  0.
          6    2    1    2  501    0  0.12623200659E+03 -0.13968692698E+02 -0.52589688743E+03  0.56741923914E+03  0.17107721318E+03 0.  0.
         24    2    5    5    0    0  0.91532112894E+02  0.43039845690E+02 -0.22664438756E+03  0.26077905137E+03  0.80046731447E+02 0.  0.
          5    1    5    5  501    0  0.34699893694E+02 -0.57008538388E+02 -0.29925249987E+03  0.30664018776E+03  0.47000000000E+01 0. -1.
        -11    1    6    6    0    0  0.30125468251E+02 -0.23069591956E+02 -0.81061994332E+02  0.89503054894E+02  0.00000000000E+00 0.  1.
         12    1    6    6    0    0  0.61406644643E+02  0.66109437646E+02 -0.14558239323E+03  0.17127599648E+03  0.00000000000E+00 0. -1.
         -5    1    3    3    0  503 -0.11359422407E+03 -0.30048642987E+02 -0.12208722128E+04  0.12265225716E+04  0.47000000000E+01 0.  1.
         13    1    4    4    0    0 -0.21014695854E+02  0.79372345197E+01 -0.42884647646E+02  0.48411880126E+02  0.00000000000E+00 0. -1.
        -14    1    4    4    0    0  0.83769133348E+01  0.36080101165E+02 -0.56272261641E+03  0.56394032432E+03  0.00000000000E+00 0.  1.
</event>
<event>
12    1  0.8135779E-002  0.1730729E+03  0.7818608E-02  0.1174898E+00
         21   -1    0    0  501  502  0.00000000000E+00  0.00000000000E+00  0.37679990893E+03  0.37679990893E+03  0.00000000000E+00 0.  1.
         21   -1    0    0  502  503 -0.00000000000E+00 -0.00000000000E+00 -0.83050979457E+02  0.83050979457E+02  0.00000000000E+00 0.  1.
         -6    2    1    2    0  503 -0.99848716855E+01 -0.89222680939E+01  0.96420822516E+02  0.19737690252E+03  0.17170137478E+03 0.  0.
        -24    2    3    3    0    0  0.55972847803E+02  0.44253934799E+00  0.86780451383E+02  0.12989989063E+03  0.78803421943E+02 0.  0.
          6    2    1    2  501    0  0.99848716855E+01  0.89222680939E+01  0.19732810696E+03  0.26247398587E+03  0.17255406959E+03 0.  0.
         24    2    5    5    0    0  0.47566509802E+02  0.57797488593E+02  0.10093246979E+03  0.14795160567E+03  0.78097321456E+02 0.  0.
          5    1    5    5  501    0 -0.37581638117E+02 -0.48875220499E+02  0.96395637168E+02  0.11452238020E+03  0.47000000000E+01 0. -1.
        -13    1    6    6    0    0 -0.20904692134E+02  0.22368292107E+02  0.22678074289E+02  0.38100415988E+02  0.00000000000E+00 0.  1.
         14    1    6    6    0    0  0.68471201937E+02  0.35429196486E+02  0.78254395502E+02  0.10985118968E+03  0.00000000000E+00 0. -1.
         -5    1    3    3    0  503 -0.65957719488E+02 -0.93648074419E+01  0.96403711330E+01  0.67477011894E+02  0.47000000000E+01 0.  1.
         13    1    4    4    0    0  0.55810714257E+02  0.28880988532E+02  0.38005393787E+02  0.73439480400E+02  0.00000000000E+00 0. -1.
        -14    1    4    4    0    0  0.16213354594E+00 -0.28438449184E+02  0.48775057597E+02  0.56460410226E+02  0.00000000000E+00 0.  1.
</event>
<event>
12    1  0.8135779E-002  0.1900248E+03  0.7818608E-02  0.1161095E+00
         21   -1    0    0  501  502  0.00000000000E+00  0.00000000000E+00  0.27783793686E+03  0.27783793686E+03  0.00000000000E+00 0.  1.
         21   -1    0    0  502  503 -0.00000000000E+00 -0.00000000000E+00 -0.19365027448E+03  0.19365027448E+03  0.00000000000E+00 0.  1.
         -6    2    1    2    0  503  0.40309084722E+02 -0.37270827272E+02 -0.10015052774E+03  0.21480116042E+03  0.18192161344E+03 0.  0.
        -24    2    3    3    0    0  0.94017078011E+01 -0.90829983678E+01  0.24185444069E+02  0.83532948234E+02  0.78879178285E+02 0.  0.
          6    2    1    2  501    0 -0.40309084722E+02  0.37270827272E+02  0.18433819011E+03  0.25668705092E+03  0.16998157812E+03 0.  0.
         24    2    5    5    0    0 -0.31363258336E+02  0.82793535677E+02  0.84032058994E+02  0.14607170510E+03  0.80231742908E+02 0.  0.
          5    1    5    5  501    0 -0.89458263862E+01 -0.45522708404E+02  0.10030613112E+03  0.11061534582E+03  0.47000000000E+01 0. -1.
        -11    1    6    6    0    0 -0.45920204216E+02  0.14434263231E+02  0.23292524748E+02  0.53474805464E+02  0.00000000000E+00 0.  1.
         12    1    6    6    0    0  0.14556945880E+02  0.68359272445E+02  0.60739534246E+02  0.92596899640E+02  0.00000000000E+00 0. -1.
         -5    1    3    3    0  503  0.30907376921E+02 -0.28187828904E+02 -0.12433597180E+03  0.13126821219E+03  0.47000000000E+01 0.  1.
         13    1    4    4    0    0  0.31357370537E+00 -0.19562874835E+02  0.50295367182E+02  0.53966919129E+02  0.00000000000E+00 0. -1.
        -14    1    4    4    0    0  0.90881340957E+01  0.10479876467E+02 -0.26109923113E+02  0.29566029106E+02  0.00000000000E+00 0.  1.
</event>
<event>
12    1  0.8135779E-002  0.1762732E+03  0.7818608E-02  0.1172234E+00
         21   -1    0    0  501  502  0.00000000000E+00  0.00000000000E+00  0.13643053795E+03  0.13643053795E+03  0.00000000000E+00 0.  1.
         21   -1    0    0  502  503 -0.00000000000E+00 -0.00000000000E+00 -0.27675429094E+03  0.27675429094E+03  0.00000000000E+00 0.  1.
         -6    2    1    2    0  503  0.13077363589E+02  0.56723002347E+01 -0.16004360310E+03  0.23581197135E+03  0.17259819962E+03 0.  0.
        -24    2    3    3    0    0 -0.54485687175E+02 -0.14900532351E+02 -0.63787017029E+02  0.11633215033E+03  0.79206500288E+02 0.  0.
          6    2    1    2  501    0 -0.13077363589E+02 -0.56723002347E+01  0.19719850110E+02  0.17737285754E+03  0.17569594666E+03 0.  0.
         24    2    5    5    0    0 -0.25051913426E+02 -0.69450951982E+02  0.68549223302E+01  0.11105014175E+03  0.82668681643E+02 0.  0.
          5    1    5    5  501    0  0.11974549838E+02  0.63778651748E+02  0.12864927780E+02  0.66322715787E+02  0.47000000000E+01 0. -1.
        -13    1    6    6    0    0 -0.85701900333E+01 -0.80450079314E+02  0.24483318997E+02  0.84528671633E+02  0.00000000000E+00 0.  1.
         14    1    6    6    0    0 -0.16481723393E+02  0.10999127332E+02 -0.17628396666E+02  0.26521470116E+02  0.00000000000E+00 0. -1.
         -5    1    3    3    0  503  0.67563050763E+02  0.20572832586E+02 -0.96256586074E+02  0.11947982102E+03  0.47000000000E+01 0.  1.
         11    1    4    4    0    0 -0.36256934411E+02 -0.44312812231E+02 -0.57534027243E+02  0.81168681839E+02  0.00000000000E+00 0. -1.
        -12    1    4    4    0    0 -0.18228752764E+02  0.29412279880E+02 -0.62529897851E+01  0.35163468491E+02  0.00000000000E+00 0.  1.
</event>
<event>
12    1  0.8135779E-002  0.1785609E+03  0.7818608E-02  0.1170102E+00
         21   -1    0    0  503  502  0.00000000000E+00  0.00000000000E+00  0.14837958621E+03  0.14837958621E+03  0.00000000000E+00 0.  1.
         21   -1    0    0  501  503 -0.00000000000E+00 -0.00000000000E+00 -0.24494607490E+03  0.24494607490E+03  0.00000000000E+00 0.  1.
          6    2    1    2  501    0 -0.37619384479E+02 -0.27364832317E+02 -0.12157424675E+03  0.21302203386E+03  0.16862395234E+03 0.  0.
         24    2    3    3    0    0 -0.58169619992E+02 -0.74188205009E+02 -0.93675386595E+02  0.15458251976E+03  0.78949875938E+02 0.  0.
         -6    2    1    2    0  502  0.37619384479E+02  0.27364832317E+02  0.25007758066E+02  0.18030362724E+03  0.17239477341E+03 0.  0.
        -24    2    5    5    0    0  0.34642112922E+02  0.65192158983E+02 -0.31464948354E+02  0.11210518621E+03  0.78277942108E+02 0.  0.
          5    1    3    3  501    0  0.20550235514E+02  0.46823372693E+02 -0.27898860155E+02  0.58439514097E+02  0.47000000000E+01 0. -1.
        -13    1    4    4    0    0  0.13433941123E+02 -0.33625417385E+02 -0.49048827208E+02  0.60966604948E+02  0.00000000000E+00 0.  1.
         14    1    4    4    0    0 -0.71603561116E+02 -0.40562787625E+02 -0.44626559387E+02  0.93615914817E+02  0.00000000000E+00 0. -1.
         -5    1    5    5    0  502  0.29772715564E+01 -0.37827326666E+02  0.56472706420E+02  0.68198441031E+02  0.47000000000E+01 0.  1.
         13    1    6    6    0    0 -0.23810399643E+02  0.84548496717E+01 -0.13654077061E+02  0.28720261742E+02  0.00000000000E+00 0. -1.
        -14    1    6    6    0    0  0.58452512565E+02  0.56737309311E+02 -0.17810871293E+02  0.83384924472E+02  0.00000000000E+00 0.  1.
</event>
<event>
12    1  0.8135779E-002  0.2212684E+03  0.7818608E-02  0.1133597E+00
         21   -1    0    0  503  502  0.00000000000E+00  0.00000000000E+00  0.14010680651E+04  0.14010680651E+04  0.00000000000E+00 0. -1.
         21   -1    0    0  501  503 -0.00000000000E+00 -0.00000000000E+00 -0.45197554889E+02  0.45197554889E+02  0.00000000000E+00 0.  1.
          6    2    1    2  501    0  0.51895127919E+02  0.12276019752E+03  0.32023099789E+03  0.38725244448E+03  0.17220160668E+03 0.  0.
         24    2    3    3    0    0 -0.37267263899E+02  0.28655034335E+02  0.14901402810E+03  0.17244309971E+03  0.72948489474E+02 0.  0.
         -6    2    1    2    0  502 -0.51895127919E+02 -0.12276019752E+03  0.10356395123E+04  0.10590131755E+04  0.17662541166E+03 0.  0.
        -24    2    5    5    0    0 -0.85821329243E+02 -0.76681826950E+02  0.91100885901E+03  0.92179403284E+03  0.80757009982E+02 0.  0.
          5    1    3    3  501    0  0.89162391818E+02  0.94105163184E+02  0.17121696980E+03  0.21480934477E+03  0.47000000000E+01 0. -1.
        -11    1    4    4    0    0  0.19608827576E+02 -0.55902765390E+01  0.34335540479E+02  0.39933527902E+02  0.00000000000E+00 0.  1.
         12    1    4    4    0    0 -0.56876091475E+02  0.34245310874E+02  0.11467848762E+03  0.13250957181E+03  0.00000000000E+00 0. -1.
         -5    1    5    5    0  502  0.33926201324E+02 -0.46078370570E+02  0.12463065332E+03  0.13721914268E+03  0.47000000000E+01 0.  1.
         13    1    6    6    0    0 -0.85667537176E+02 -0.35179317392E+02  0.48456403031E+03  0.49333438028E+03  0.00000000000E+00 0. -1.
        -14    1    6    6    0    0 -0.15379206735E+00 -0.41502509557E+02  0.42644482870E+03  0.42845965257E+03  0.00000000000E+00 0.  1.
</event>
<event>
12    1  0.8135779E-002  0.2189979E+03  0.7818608E-02  0.1134721E+00
         21   -1    0    0  501  502  0.00000000000E+00  0.00000000000E+00  0.28064973888E+03  0.28064973888E+03  0.00000000000E+00 0. -1.
         21   -1    0    0  502  503 -0.00000000000E+00 -0.00000000000E+00 -0.17542166258E+03  0.17542166258E+03  0.00000000000E+00 0.  1.
         -6    2    1    2    0  503 -0.78168683587E+02  0.11070006606E+03  0.14442095633E+02  0.21900140304E+03  0.17142984772E+03 0.  0.
        -24    2    3    3    0    0 -0.86294132309E+02  0.11145024011E+02  0.53266186963E+01  0.11859019234E+03  0.80401318537E+02 0.  0.
          6    2    1    2  501    0  0.78168683587E+02 -0.11070006606E+03  0.90785980665E+02  0.23706999841E+03  0.17203267755E+03 0.  0.
         24    2    5    5    0    0  0.97983910499E+02 -0.82471872214E+02  0.11466981786E+02  0.15044974831E+03  0.78110042067E+02 0.  0.
          5    1    5    5  501    0 -0.19815226912E+02 -0.28228193842E+02  0.79318998879E+02  0.86620250106E+02  0.47000000000E+01 0. -1.
        -11    1    6    6    0    0  0.47579714082E+02 -0.90349239553E+01 -0.24641493263E+02  0.54338404773E+02  0.00000000000E+00 0.  1.
         12    1    6    6    0    0  0.50404196417E+02 -0.73436948259E+02  0.36108475049E+02  0.96111343536E+02  0.00000000000E+00 0. -1.
         -5    1    3    3    0  503  0.81254487220E+01  0.99555042046E+02  0.91154769371E+01  0.10041121070E+03  0.47000000000E+01 0.  1.
         11    1    4    4    0    0  0.14384983220E+02  0.31435721133E+00  0.95042492030E+01  0.17244051601E+02  0.00000000000E+00 0. -1.
        -12    1    4    4    0    0 -0.10067911553E+03  0.10830666800E+02 -0.41776305067E+01  0.10134614074E+03  0.00000000000E+00 0.  1.
</event>
<event>
12    1  0.8135779E-002  0.2734190E+03  0.7818608E-02  0.1099378E+00
         21   -1    0    0  503  502  0.00000000000E+00  0.00000000000E+00  0.17988811179E+03  0.17988811179E+03  0.00000000000E+00 0.  1.
         21   -1    0    0  501  503 -0.00000000000E+00 -0.00000000000E+00 -0.42648788109E+03  0.42648788109E+03  0.00000000000E+00 0.  1.
          6    2    1    2  501    0 -0.16555679855E+03  0.13265105262E+03 -0.73827701297E+02  0.28294418578E+03  0.17205094444E+03 0.  0.
         24    2    3    3    0    0 -0.17997408485E+03  0.99426233893E+02 -0.22627568518E+02  0.22005308688E+03  0.75067349656E+02 0.  0.
         -6    2    1    2    0  502  0.16555679855E+03 -0.13265105262E+03 -0.17277206800E+03  0.32343180710E+03  0.17248939404E+03 0.  0.
        -24    2    5    5    0    0  0.69866943527E+02 -0.13924937550E+03 -0.93059399667E+02  0.19862681637E+03  0.80751358758E+02 0.  0.
          5    1    3    3  501    0  0.14417286308E+02  0.33224818728E+02 -0.51200132779E+02  0.62891098898E+02  0.47000000000E+01 0. -1.
        -13    1    4    4    0    0 -0.14411341535E+03  0.86668899947E+02 -0.47301597078E+02  0.17469291854E+03  0.00000000000E+00 0.  1.
         14    1    4    4    0    0 -0.35860669501E+02  0.12757333946E+02  0.24674028560E+02  0.45360168340E+02  0.00000000000E+00 0. -1.
         -5    1    5    5    0  502  0.95689855018E+02  0.65983228755E+01 -0.79712668330E+02  0.12480499073E+03  0.47000000000E+01 0.  1.
         13    1    6    6    0    0 -0.18039503088E+02 -0.27195805217E+02 -0.22864762371E+02  0.39847620397E+02  0.00000000000E+00 0. -1.
        -14    1    6    6    0    0  0.87906446615E+02 -0.11205357028E+03 -0.70194637296E+02  0.15877919597E+03  0.00000000000E+00 0.  1.
</event>
<event>
12    1  0.8135779E-002  0.2424883E+03  0.7818608E-02  0.1118630E+00
         21   -1    0    0  503  502  0.00000000000E+00  0.00000000000E+00  0.36127945276E+02  0.36127945276E+02  0.00000000000E+00 0.  1.
         21   -1    0    0  501  503 -0.00000000000E+00 -0.00000000000E+00 -0.27407334929E+04  0.27407334929E+04  0.00000000000E+00 0.  1.
          6    2    1    2  501    0 -0.63082111564E+02  0.15795540014E+03 -0.22400765563E+04  0.22528502174E+04  0.16870643934E+03 0.  0.
         24    2    3    3    0    0 -0.69627435615E+02  0.38646244545E+02 -0.13511457038E+04  0.13559122784E+04  0.81005443063E+02 0.  0.
         -6    2    1    2    0  502  0.63082111564E+02 -0.15795540014E+03 -0.46452899137E+03  0.52401122083E+03  0.17283319850E+03 0.  0.
        -24    2    5    5    0    0  0.24611174908E+02 -0.62496548496E+01 -0.13066906220E+03  0.15525766027E+03  0.79911007634E+02 0.  0.
          5    1    3    3  501    0  0.65453240505E+01  0.11930915559E+03 -0.88893085250E+03  0.89693793899E+03  0.47000000000E+01 0. -1.
        -13    1    4    4    0    0 -0.49399727108E+02  0.53644464794E+02 -0.61072361877E+03  0.61506211082E+03  0.00000000000E+00 0.  1.
         14    1    4    4    0    0 -0.20227708507E+02 -0.14998220249E+02 -0.74042208504E+03  0.74085016759E+03  0.00000000000E+00 0. -1.
         -5    1    5    5    0  502  0.38470936657E+02 -0.15170574529E+03 -0.33385992917E+03  0.36875356056E+03  0.47000000000E+01 0.  1.
         11    1    6    6    0    0  0.17281658615E+02  0.26728468849E+01 -0.13958060361E+03  0.14067176241E+03  0.00000000000E+00 0. -1.
        -12    1    6    6    0    0  0.73295162924E+01 -0.89225017345E+01  0.89115414082E+01  0.14585897866E+02  0.00000000000E+00 0.  1.
</event>
<event>
12    1  0.8135779E-002  0.1734506E+03  0.7818608E-02  0.1174568E+00
         21   -1    0    0  503  502  0.00000000000E+00  0.00000000000E+00  0.22465195934E+03  0.22465195934E+03  0.00000000000E+00 0. -1.
         21   -1    0    0  501  503 -0.00000000000E+00 -0.00000000000E+00 -0.25129575762E+03  0.25129575762E+03  0.00000000000E+00 0.  1.
          6    2    1    2  501    0 -0.52205153566E+01  0.75827416998E+01 -0.17650748622E+03  0.24672239930E+03  0.17214034353E+03 0.  0.
         24    2    3    3    0    0 -0.41543405663E+02  0.31880125679E+01 -0.30126829763E+02  0.95765277606E+02  0.80791983174E+02 0.  0.
         -6    2    1    2    0  502  0.52205153566E+01 -0.75827416998E+01  0.14986368794E+03  0.22922531766E+03  0.17320614753E+03 0.  0.
        -24    2    5    5    0    0  0.26262551034E+01 -0.50636654918E+02  0.15890713588E+03  0.18490552998E+03  0.79797300354E+02 0.  0.
          5    1    3    3  501    0  0.36322890306E+02  0.43947291319E+01 -0.14638065646E+03  0.15095712169E+03  0.47000000000E+01 0. -1.
        -11    1    4    4    0    0  0.20263990034E+02  0.18000447552E+02 -0.12231721351E+02  0.29736516463E+02  0.00000000000E+00 0.  1.
         12    1    4    4    0    0 -0.61807395697E+02 -0.14812434984E+02 -0.17895108412E+02  0.66028761143E+02  0.00000000000E+00 0. -1.
         -5    1    5    5    0  502  0.25942602532E+01  0.43053913218E+02 -0.90434479458E+01  0.44319787685E+02  0.47000000000E+01 0.  1.
         13    1    6    6    0    0 -0.31487481711E+02 -0.11044077869E+02  0.10347103136E+03  0.10871838616E+03  0.00000000000E+00 0. -1.
        -14    1    6    6    0    0  0.34113736815E+02 -0.39592577049E+02  0.55436104528E+02  0.76187143811E+02  0.00000000000E+00 0.  1.
</event>
<event>
12    1  0.8135779E-002  0.2039324E+03  0.7818608E-02  0.1147088E+00
         21   -1    0    0  501  502  0.00000000000E+00  0.00000000000E+00  0.14961065913E+04  0.14961065913E+04  0.00000000000E+00 0. -1.
         21   -1    0    0  502  503 -0.00000000000E+00 -0.00000000000E+00 -0.46283106841E+02  0.46283106841E+02  0.00000000000E+00 0.  1.
         -6    2    1    2    0  503 -0.81380811226E+02 -0.70564614075E+02  0.23536679579E+03  0.31142566137E+03  0.17316527597E+03 0.  0.
        -24    2    3    3    0    0 -0.13830953654E+02 -0.35227899437E+02  0.21659257277E+03  0.23277308283E+03  0.76411159763E+02 0.  0.
          6    2    1    2  501    0  0.81380811226E+02  0.70564614075E+02  0.12144566887E+04  0.12309640368E+04  0.16960309545E+03 0.  0.
         24    2    5    5    0    0  0.11162294533E+03  0.64269622743E+02  0.74915546643E+03  0.76461488538E+03  0.82533288617E+02 0.  0.
          5    1    5    5  501    0 -0.30242134104E+02  0.62949913315E+01  0.46530122227E+03  0.46634915142E+03  0.47000000000E+01 0. -1.
        -13    1    6    6    0    0 -0.56273979158E+01 -0.60733142144E+01  0.14254698529E+03  0.14278723951E+03  0.00000000000E+00 0.  1.
         14    1    6    6    0    0  0.11725034325E+03  0.70342936958E+02  0.60660848114E+03  0.62182764587E+03  0.00000000000E+00 0. -1.
         -5    1    3    3    0  503 -0.67549857572E+02 -0.35336714638E+02  0.18774223022E+02  0.78652578531E+02  0.47000000000E+01 0.  1.
         13    1    4    4    0    0  0.23533133207E+02 -0.12068596120E+02  0.25675372451E+02  0.36860332627E+02  0.00000000000E+00 0. -1.
        -14    1    4    4    0    0 -0.37364086861E+02 -0.23159303317E+02  0.19091720032E+03  0.19591275021E+03  0.00000000000E+00 0.  1.
</event>
<event>
12    1  0.8135779E-002  0.1747848E+03  0.7818608E-02  0.1173215E+00
         21   -1    0    0  503  502  0.00000000000E+00  0.00000000000E+00  0.88679091911E+03  0.88679091911E+03  0.00000000000E+00 0.  1.
         21   -1    0    0  501  503 -0.00000000000E+00 -0.00000000000E+00 -0.34807122549E+02  0.34807122549E+02  0.00000000000E+00 0.  1.
          6    2    1    2  501    0  0.12360298716E+02  0.26301903954E+02  0.48598935319E+03  0.51646431621E+03  0.17235188240E+03 0.  0.
         24    2    3    3    0    0  0.35850421100E+02  0.58861693546E+02  0.18520841828E+03  0.21297924812E+03  0.79423235061E+02 0.  0.
         -6    2    1    2    0  502 -0.12360298716E+02 -0.26301903954E+02  0.36599444337E+03  0.40513372545E+03  0.17127999236E+03 0.  0.
        -24    2    5    5    0    0  0.27947029824E+02  0.13471240706E+02  0.95748990035E+02  0.12897927805E+03  0.80655280494E+02 0.  0.
          5    1    3    3  501    0 -0.23490122385E+02 -0.32559789592E+02  0.30078093491E+03  0.30348506809E+03  0.47000000000E+01 0. -1.
        -11    1    4    4    0    0  0.36892220892E+02 -0.83126846425E+01  0.61189893442E+02  0.71932883633E+02  0.00000000000E+00 0.  1.
         12    1    4    4    0    0 -0.10417997917E+01  0.67174378188E+02  0.12401852484E+03  0.14104636449E+03  0.00000000000E+00 0. -1.
         -5    1    5    5    0  502 -0.40307328540E+02 -0.39773144660E+02  0.27024545333E+03  0.27615444740E+03  0.47000000000E+01 0.  1.
         11    1    6    6    0    0  0.96378099183E+01 -0.23785824217E+02  0.80928237089E+02  0.84900131755E+02  0.00000000000E+00 0. -1.
        -12    1    6    6    0    0  0.18309219906E+02  0.37257064923E+02  0.14820752946E+02  0.44079146295E+02  0.00000000000E+00 0.  1.
</event>
<event>
12    1  0.8135779E-002  0.1945913E+03  0.7818608E-02  0.1155000E+00
         21   -1    0    0  501  502  0.00000000000E+00  0.00000000000E+00  0.34604912734E+02  0.34604912734E+02  0.00000000000E+00 0.  1.
         21   -1    0    0  502  503 -0.00000000000E+00 -0.00000000000E+00 -0.11551974830E+04  0.11551974830E+04  0.00000000000E+00 0.  1.
         -6    2    1    2    0  503  0.90227155629E+02 -0.86495494882E+01 -0.70973470837E+03  0.73519272931E+03  0.16902437294E+03 0.  0.
        -24    2    3    3    0    0  0.15618199687E+01 -0.36383276703E+02 -0.22344382722E+03  0.24008505167E+03  0.79921874391E+02 0.  0.
          6    2    1    2  501    0 -0.90227155629E+02  0.86495494882E+01 -0.41085786187E+03  0.45460966639E+03  0.17219178784E+03 0.  0.
         24    2    5    5    0    0 -0.15737030804E+02  0.61755166522E+02 -0.20890978804E+03  0.23285732756E+03  0.80733392888E+02 0.  0.
          5    1    5    5  501    0 -0.74490124824E+02 -0.53105617034E+02 -0.20194807383E+03  0.22175233884E+03  0.47000000000E+01 0. -1.
        -13    1    6    6    0    0 -0.59285803819E+01 -0.91899330611E+01 -0.11106074279E+03  0.11159790108E+03  0.00000000000E+00 0.  1.
         14    1    6    6    0    0 -0.98084504226E+01  0.70945099583E+02 -0.97849045249E+02  0.12125942648E+03  0.00000000000E+00 0. -1.
         -5    1    3    3    0  503  0.88665335660E+02  0.27733727215E+02 -0.48629088114E+03  0.49510767764E+03  0.47000000000E+01 0.  1.
         13    1    4    4    0    0 -0.10372625119E+02 -0.39114361368E+02 -0.22419628176E+03  0.22781900134E+03  0.00000000000E+00 0. -1.
        -14    1    4    4    0    0  0.11934445087E+02  0.27310846656E+01  0.75245453093E+00  0.12266050335E+02  0.00000000000E+00 0.  1.
</event>
<event>
12    1  0.8135779E-002  0.1759928E+03  0.7818608E-02  0.1171948E+00
         21   -1    0    0  503  502  0.00000000000E+00  0.00000000000E+00  0.56846430391E+02  0.56846430391E+02  0.00000000000E+00 0. -1.
         21   -1    0    0  501  503 -0.00000000000E+00 -0.00000000000E+00 -0.65181688948E+03  0.65181688948E+03  0.00000000000E+00 0. -1.
          6    2    1    2  501    0 -0.37456614468E+02  0.40955375883E+01 -0.44215246552E+03  0.47558222749E+03  0.17105519851E+03 0.  0.
         24    2    3    3    0    0  0.24873897947E+02  0.51008821131E+02 -0.30508497884E+03  0.31779903809E+03  0.68547601451E+02 0.  0.
         -6    2    1    2    0  502  0.37456614468E+02 -0.40955375883E+01 -0.15281799356E+03  0.23308109238E+03  0.17191185263E+03 0.  0.
        -24    2    5    5    0    0  0.45446981779E+02 -0.27644721120E+02 -0.19691859117E+02  0.97570695410E+02  0.79388995010E+02 0.  0.
          5    1    3    3  501    0 -0.62330512415E+02 -0.46913283543E+02 -0.13706748668E+03  0.15778318940E+03  0.47000000000E+01 0. -1.
        -13    1    4    4    0    0 -0.43488437630E+01  0.95458586098E+01 -0.22286116408E+01  0.10723925052E+02  0.00000000000E+00 0.  1.
         14    1    4    4    0    0  0.29222741710E+02  0.41462962521E+02 -0.30285636720E+03  0.30707511304E+03  0.00000000000E+00 0. -1.
         -5    1    5    5    0  502 -0.79903673109E+01  0.23549183532E+02 -0.13312613444E+03  0.13551039697E+03  0.47000000000E+01 0.  1.
         11    1    6    6    0    0  0.22616119417E+02 -0.13354272543E+02  0.30718455404E+02  0.40415949266E+02  0.00000000000E+00 0. -1.
        -12    1    6    6    0    0  0.22830862362E+02 -0.14290448576E+02 -0.50410314521E+02  0.57154746144E+02  0.00000000000E+00 0.  1.
</event>
<event>
12    1  0.8135779E-002  0.2209460E+03  0.7818608E-02  0.1134565E+00
         21   -1    0    0  501  502  0.00000000000E+00  0.00000000000E+00  0.27260277311E+03  0.27260277311E+03  0.00000000000E+00 0.  1.
         21   -1    0    0  502  503 -0.00000000000E+00 -0.00000000000E+00 -0.17346582451E+03  0.17346582451E+03  0.00000000000E+00 0. -1.
         -6    2    1    2    0  503  0.34512198601E+01  0.12732103842E+03  0.39673703082E+02  0.21726080740E+03  0.17148089682E+03 0.  0.
        -24    2    3    3    0    0  0.47569819658E+01  0.35953003544E+02 -0.39560507669E+02  0.96223734714E+02  0.79866926911E+02 0.  0.
          6    2    1    2  501    0 -0.34512198601E+01 -0.12732103842E+03  0.59463245518E+02  0.22880779021E+03  0.18053966199E+03 0.  0.
         24    2    5    5    0    0 -0.98494009658E+01  0.13567869990E+02  0.31877585876E+02  0.85024342441E+02  0.77018572635E+02 0.  0.
          5    1    5    5  501    0  0.63981811057E+01 -0.14088890841E+03  0.27585659642E+02  0.14378344777E+03  0.47000000000E+01 0. -1.
        -13    1    6    6    0    0  0.17319398011E+01 -0.18880351915E+02  0.44469303899E+02  0.48342386093E+02  0.00000000000E+00 0.  1.
         14    1    6    6    0    0 -0.11581340767E+02  0.32448221904E+02 -0.12591718023E+02  0.36681956348E+02  0.00000000000E+00 0. -1.
         -5    1    3    3    0  503 -0.13057621057E+01  0.91368034878E+02  0.79234210751E+02  0.12103707269E+03  0.47000000000E+01 0.  1.
         11    1    4    4    0    0 -0.26366460487E+02  0.44069280394E+02 -0.95537231456E+01  0.52235671136E+02  0.00000000000E+00 0. -1.
        -12    1    4    4    0    0  0.31123442452E+02 -0.81162768504E+01 -0.30006784523E+02  0.43988063579E+02  0.00000000000E+00 0.  1.
</event>
<event>
12    1  0.8135779E-002  0.2126090E+03  0.7818608E-02  0.1139740E+00
         21   -1    0    0  503  502  0.00000000000E+00  0.00000000000E+00  0.16867268253E+03  0.16867268253E+03  0.00000000000E+00 0. -1.
         21   -1    0    0  501  503 -0.00000000000E+00 -0.00000000000E+00 -0.50285699499E+03  0.50285699499E+03  0.00000000000E+00 0.  1.
          6    2    1    2  501    0  0.63780475174E+02 -0.10684968134E+03 -0.39702333073E+03  0.44982864849E+03  0.17097802327E+03 0.  0.
         24    2    3    3    0    0 -0.60138128953E+01  0.11888846167E+01 -0.17900802786E+03  0.19665610522E+03  0.81192181204E+02 0.  0.
         -6    2    1    2    0  502 -0.63780475174E+02  0.10684968134E+03  0.62839018264E+02  0.22170102903E+03  0.17238851655E+03 0.  0.
        -24    2    5    5    0    0  0.52002000227E+01  0.11031627464E+03  0.68180140058E+02  0.15226783522E+03  0.79625621596E+02 0.  0.
          5    1    3    3  501    0  0.69794288069E+02 -0.10803856596E+03 -0.21801530287E+03  0.25317254327E+03  0.47000000000E+01 0. -1.
        -11    1    4    4    0    0  0.45622301106E+00 -0.97351198335E+01 -0.18306743289E+03  0.18332666386E+03  0.00000000000E+00 0.  1.
         12    1    4    4    0    0 -0.64700359064E+01  0.10924004450E+02  0.40594050242E+01  0.13329441361E+02  0.00000000000E+00 0. -1.
         -5    1    5    5    0  502 -0.68980675197E+02 -0.34665933007E+01 -0.53411217946E+01  0.69433193803E+02  0.47000000000E+01 0.  1.
         13    1    6    6    0    0 -0.27720697564E+02  0.95846841363E+02  0.44771953551E+02  0.10935987334E+03  0.00000000000E+00 0. -1.
        -14    1    6    6    0    0  0.32920897587E+02  0.14469433279E+02  0.23408186507E+02  0.42907961882E+02  0.00000000000E+00 0.  1.
</event>
<event>
12    1  0.8135779E-002  0.4303471E+03  0.7818608E-02  0.1033771E+00
         21   -1    0    0  501  502  0.00000000000E+00  0.00000000000E+00  0.28460798694E+03  0.28460798694E+03  0.00000000000E+00 0.  1.
         21   -1    0    0  502  503 -0.00000000000E+00 -0.00000000000E+00 -0.13473056864E+04  0.13473056864E+04  0.00000000000E+00 0. -1.
         -6    2    1    2    0  503 -0.33567032978E+03 -0.20666265068E+03 -0.11182977961E+04  0.11982439603E+04  0.17266906588E+03 0.  0.
        -24    2    3    3    0    0 -0.12754697090E+03 -0.12521571590E+03 -0.67247776728E+03  0.69951906246E+03  0.71786948395E+02 0.  0.
          6    2    1    2  501    0  0.33567032978E+03  0.20666265068E+03  0.55600096580E+02  0.43366971303E+03  0.17202914805E+03 0.  0.
         24    2    5    5    0    0  0.31218531005E+03  0.12594664522E+03  0.48149280194E+02  0.34914619942E+03  0.79135896584E+02 0.  0.
          5    1    5    5  501    0  0.23485019730E+02  0.80716005457E+02  0.74508163865E+01  0.84523513613E+02  0.47000000000E+01 0. -1.
        -13    1    6    6    0    0  0.21528359658E+03  0.11359829130E+03  0.60117719145E+02  0.25073041079E+03  0.00000000000E+00 0.  1.
         14    1    6    6    0    0  0.96901713478E+02  0.12348353919E+02 -0.11968438952E+02  0.98415788624E+02  0.00000000000E+00 0. -1.
         -5    1    3    3    0  503 -0.20812335888E+03 -0.81446934772E+02 -0.44582002877E+03  0.49872489787E+03  0.47000000000E+01 0.  1.
         11    1    4    4    0    0 -0.34089518064E+02  0.20659306573E+01 -0.14115976486E+03  0.14523237424E+03  0.00000000000E+00 0. -1.
        -12    1    4    4    0    0 -0.93457452838E+02 -0.12728164656E+03 -0.53131800242E+03  0.55428668822E+03  0.00000000000E+00 0.  1.
</event>
<event>
12    1  0.8135779E-002  0.1812318E+03  0.7818608E-02  0.1167228E+00
         21   -1    0    0  503  502  0.00000000000E+00  0.00000000000E+00  0.15443613949E+03  0.15443613949E+03  0.00000000000E+00 0. -1.
         21   -1    0    0  501  503 -0.00000000000E+00 -0.00000000000E+00 -0.42908781067E+03  0.42908781067E+03  0.00000000000E+00 0. -1.
          6    2    1    2  501    0  0.17393553662E+02  0.53875872859E+02 -0.34546632810E+03  0.38894833780E+03  0.16949536940E+03 0.  0.
         24    2    3    3    0    0  0.19107056889E+02 -0.16276634273E+02 -0.28454061021E+03  0.29589811776E+03  0.77216117415E+02 0.  0.
         -6    2    1    2    0  502 -0.17393553662E+02 -0.53875872859E+02  0.70814656915E+02  0.19457561235E+03  0.17216215584E+03 0.  0.
        -24    2    5    5    0    0 -0.10322252386E+02 -0.76445584695E+02 -0.92560747318E+01  0.11095260558E+03  0.79210665020E+02 0.  0.
          5    1    3    3  501    0 -0.17135032270E+01  0.70152507132E+02 -0.60925717885E+02  0.93050220043E+02  0.47000000000E+01 0. -1.
        -13    1    4    4    0    0  0.37411569911E+02  0.17777772181E+02 -0.17140863448E+03  0.17634226583E+03  0.00000000000E+00 0.  1.
         14    1    4    4    0    0 -0.18304513022E+02 -0.34054406454E+02 -0.11313197574E+03  0.11955585193E+03  0.00000000000E+00 0. -1.
         -5    1    5    5    0  502 -0.70713012760E+01  0.22569711836E+02  0.80070731647E+02  0.83623006766E+02  0.47000000000E+01 0.  1.
         11    1    6    6    0    0  0.29780655645E+02 -0.58301928814E+02  0.20777551729E+01  0.65500529927E+02  0.00000000000E+00 0. -1.
        -12    1    6    6    0    0 -0.40102908031E+02 -0.18143655881E+02 -0.11333829905E+02  0.45452075658E+02  0.00000000000E+00 0.  1.
</event>
<event>
12    1  0.8135779E-002  0.1813921E+03  0.7818608E-02  0.1166543E+00
         21   -1    0    0  503  502  0.00000000000E+00  0.00000000000E+00  0.31601409022E+03  0.31601409022E+03  0.00000000000E+00 0.  1.
         21   -1    0    0  501  503 -0.00000000000E+00 -0.00000000000E+00 -0.47109245323E+03  0.47109245323E+03  0.00000000000E+00 0.  1.
          6    2    1    2  501    0 -0.38976002178E+02  0.38065740387E+02 -0.42496495142E+03  0.46192677763E+03  0.17266443936E+03 0.  0.
         24    2    3    3    0    0 -0.46259013290E+02  0.23383695159E+02 -0.43270341259E+03  0.44320303644E+03  0.80684538394E+02 0.  0.
         -6    2    1    2    0  502  0.38976002178E+02 -0.38065740387E+02  0.26988658841E+03  0.32517976581E+03  0.17301728280E+03 0.  0.
        -24    2    5    5    0    0  0.11244228639E+02 -0.49248145678E+02  0.27834021658E+03  0.29375284612E+03  0.79155833053E+02 0.  0.
          5    1    3    3  501    0  0.72830111127E+01  0.14682045227E+02  0.77384611674E+01  0.18723741190E+02  0.47000000000E+01 0. -1.
        -13    1    4    4    0    0 -0.68654395731E+02  0.25518615968E+02 -0.34146616865E+03  0.34923311720E+03  0.00000000000E+00 0.  1.
         14    1    4    4    0    0  0.22395382441E+02 -0.21349208091E+01 -0.91237243938E+02  0.93969919245E+02  0.00000000000E+00 0. -1.
         -5    1    5    5    0  502  0.27731773539E+02  0.11182405292E+02 -0.84536281696E+01  0.31426919686E+02  0.47000000000E+01 0.  1.
         11    1    6    6    0    0 -0.24107504721E+02  0.68263548771E+01  0.49133688249E+02  0.55153333769E+02  0.00000000000E+00 0. -1.
        -12    1    6    6    0    0  0.35351733360E+02 -0.56074500555E+02  0.22920652834E+03  0.23859951235E+03  0.00000000000E+00 0.  1.
</event>
<event>
12    1  0.8135779E-002  0.3152847E+03  0.7818608E-02  0.1077868E+00
         21   -1    0    0  503  502  0.00000000000E+00  0.00000000000E+00  0.24531089595E+03  0.24531089595E+03  0.00000000000E+00 0. -1.
         21   -1    0    0  501  503 -0.00000000000E+00 -0.00000000000E+00 -0.41289447259E+03  0.41289447259E+03  0.00000000000E+00 0. -1.
          6    2    1    2  501    0 -0.12767428260E+03 -0.23163998222E+03 -0.12953008300E+03  0.34063250062E+03  0.17115681195E+03 0.  0.
         24    2    3    3    0    0 -0.13013846701E+02 -0.35566543149E+02 -0.33824009776E+02  0.94109577710E+02  0.79235154962E+02 0.  0.
         -6    2    1    2    0  502  0.12767428260E+03  0.23163998222E+03 -0.38053493639E+02  0.31757286792E+03  0.17160027466E+03 0.  0.
        -24    2    5    5    0    0  0.15128631977E+03  0.15511240260E+03 -0.70091990335E+01  0.23155056286E+03  0.81358013119E+02 0.  0.
          5    1    3    3  501    0 -0.11466043590E+03 -0.19607343907E+03 -0.95706073224E+02  0.24652292291E+03  0.47000000000E+01 0. -1.
        -11    1    4    4    0    0 -0.33688234546E+02  0.12060816978E+02 -0.11411921898E+02  0.37557854231E+02  0.00000000000E+00 0.  1.
         12    1    4    4    0    0  0.20674387845E+02 -0.47627360127E+02 -0.22412087878E+02  0.56551723479E+02  0.00000000000E+00 0. -1.
         -5    1    5    5    0  502 -0.23612037166E+02  0.76527579617E+02 -0.31044294606E+02  0.86022305065E+02  0.47000000000E+01 0.  1.
         11    1    6    6    0    0  0.15409605799E+03  0.12464262322E+03 -0.18061680087E+02  0.19901658950E+03  0.00000000000E+00 0. -1.
        -12    1    6    6    0    0 -0.28097382233E+01  0.30469779384E+02  0.11052481054E+02  0.32533973352E+02  0.00000000000E+00 0.  1.
</event>
<event>
12    1  0.8135779E-002  0.3124621E+03  0.7818608E-02  0.1079265E+00
         21   -1    0    0  503  502  0.00000000000E+00  0.00000000000E+00  0.12015978661E+03  0.12015978661E+03  0.00000000000E+00 0.  1.
         21   -1    0    0  501  503 -0.00000000000E+00 -0.00000000000E+00 -0.12611220885E+04  0.12611220885E+04  0.00000000000E+00 0.  1.
          6    2    1    2  501    0 -0.21755569956E+03  0.14357248183E+03 -0.98286534191E+03  0.10311001600E+04  0.17087925459E+03 0.  0.
         24    2    3    3    0    0 -0.35656042257E+02  0.22289194290E+02 -0.22863294176E+03  0.24580675966E+03  0.79873521928E+02 0.  0.
         -6    2    1    2    0  502  0.21755569956E+03 -0.14357248183E+03 -0.15809695996E+03  0.35018171510E+03  0.17230509248E+03 0.  0.
        -24    2    5    5    0    0  0.27427246746E+02 -0.24750322397E+02 -0.47485166934E+02  0.10013253414E+03  0.80042807250E+02 0.  0.
          5    1    3    3  501    0 -0.18189965730E+03  0.12128328754E+03 -0.75423240015E+03  0.78529340033E+03  0.47000000000E+01 0. -1.
        -13    1    4    4    0    0 -0.36547472375E+02  0.49466636930E+02 -0.13590055644E+03  0.14916979301E+03  0.00000000000E+00 0.  1.
         14    1    4    4    0    0  0.89143011771E+00 -0.27177442640E+02 -0.92732385316E+02  0.96636966646E+02  0.00000000000E+00 0. -1.
         -5    1    5    5    0  502  0.19012845281E+03 -0.11882215944E+03 -0.11061179303E+03  0.25004918096E+03  0.47000000000E+01 0.  1.
         11    1    6    6    0    0  0.25805227009E+02 -0.38802414825E+02 -0.63500629459E+02  0.78764630888E+02  0.00000000000E+00 0. -1.
        -12    1    6    6    0    0  0.16220197370E+01  0.14052092428E+02  0.16015462525E+02  0.21367903255E+02  0.00000000000E+00 0.  1.
</event>
<event>
12    1  0.8135779E-002  0.3363647E+03  0.7818608E-02  0.1068379E+00
         21   -1    0    0  501  502  0.00000000000E+00  0.00000000000E+00  0.46974640535E+03  0.46974640535E+03  0.00000000000E+00 0.  1.
         21   -1    0    0  502  503 -0.00000000000E+00 -0.00000000000E+00 -0.37697379907E+03  0.37697379907E+03  0.00000000000E+00 0. -1.
         -6    2    1    2    0  503  0.28833157452E+03 -0.20597619009E+02  0.30094148444E+03  0.45133909397E+03  0.17199372640E+03 0.  0.
        -24    2    3    3    0    0  0.57993475653E+02 -0.16923380395E+02  0.12157439927E+03  0.15933946887E+03  0.83421146964E+02 0.  0.
          6    2    1    2  501    0 -0.28833157452E+03  0.20597619009E+02 -0.20816887815E+03  0.39538111045E+03  0.17155926641E+03 0.  0.
         24    2    5    5    0    0 -0.16010032021E+03 -0.22193766466E+02 -0.18476820285E+03  0.25810751919E+03  0.79721558409E+02 0.  0.
          5    1    5    5  501    0 -0.12823125430E+03  0.42791385475E+02 -0.23400675300E+02  0.13727359125E+03  0.47000000000E+01 0. -1.
        -13    1    6    6    0    0 -0.28900394231E+01  0.15953016904E+02 -0.67409049257E+01  0.17558213902E+02  0.00000000000E+00 0.  1.
         14    1    6    6    0    0 -0.15721028079E+03 -0.38146783370E+02 -0.17802729793E+03  0.24054930529E+03  0.00000000000E+00 0. -1.
         -5    1    3    3    0  503  0.23033809886E+03 -0.36742386147E+01  0.17936708517E+03  0.29199962510E+03  0.47000000000E+01 0.  1.
         11    1    4    4    0    0  0.12853617100E+02 -0.13124020117E+02 -0.94836174890E+01  0.20673518744E+02  0.00000000000E+00 0. -1.
        -12    1    4    4    0    0  0.45139858554E+02 -0.37993602778E+01  0.13105801676E+03  0.13866595013E+03  0.00000000000E+00 0.  1.
</event>
<event>
12    1  0.8135779E-002  0.1942602E+03  0.7818608E-02  0.1155951E+00
         21   -1    0    0  503  502  0.00000000000E+00  0.00000000000E+00  0.25103006868E+03  0.25103006868E+03  0.00000000000E+00 0. -1.
         21   -1    0    0  501  503 -0.00000000000E+00 -0.00000000000E+00 -0.19491912160E+03  0.19491912160E+03  0.00000000000E+00 0. -1.
          6    2    1    2  501    0 -0.44219076862E+02 -0.62595417959E+02 -0.84039762178E+02  0.20640954080E+03  0.17224605598E+03 0.  0.
         24    2    3    3    0    0 -0.25395659698E+02 -0.11129235482E+03 -0.59312815349E+02  0.14845072272E+03  0.74085621000E+02 0.  0.
         -6    2    1    2    0  502  0.44219076862E+02  0.62595417959E+02  0.14015070925E+03  0.23953964948E+03  0.17850352731E+03 0.  0.
        -24    2    5    5    0    0  0.59054302309E+02  0.10114955739E+03  0.13559575628E+03  0.19771449941E+03  0.83583315169E+02 0.  0.
          5    1    3    3  501    0 -0.18823417163E+02  0.48696936864E+02 -0.24726946829E+02  0.57958818079E+02  0.47000000000E+01 0. -1.
        -11    1    4    4    0    0  0.24993890307E+02 -0.42265760627E+02 -0.32488337454E+02  0.58877679511E+02  0.00000000000E+00 0.  1.
         12    1    4    4    0    0 -0.50389550005E+02 -0.69026594196E+02 -0.26824477895E+02  0.89573043213E+02  0.00000000000E+00 0. -1.
         -5    1    5    5    0  502 -0.14835225447E+02 -0.38554139434E+02  0.45549529709E+01  0.41825150067E+02  0.47000000000E+01 0.  1.
         13    1    6    6    0    0  0.53347960194E+02  0.32519438459E+02  0.10538311390E+03  0.12251171140E+03  0.00000000000E+00 0. -1.
        -14    1    6    6    0    0  0.57063421146E+01  0.68630118934E+02  0.30212642379E+02  0.75202788012E+02  0.00000000000E+00 0.  1.
</event>
<event>
12    1  0.8135779E-002  0.2603385E+03  0.7818608E-02  0.1107674E+00
         21   -1    0    0  503  502  0.00000000000E+00  0.00000000000E+00  0.10972098173E+03  0.10972098173E+03  0.00000000000E+00 0.  1.
         21   -1    0    0  501  503 -0.00000000000E+00 -0.00000000000E+00 -0.88141253372E+03  0.88141253372E+03  0.00000000000E+00 0. -1.
          6    2    1    2  501    0 -0.12716245990E+03  0.14790337926E+03 -0.66022305350E+03  0.70793504572E+03  0.16502074955E+03 0.  0.
         24    2    3    3    0    0 -0.10248209529E+02  0.40123077327E+02 -0.17797496355E+03  0.20012519382E+03  0.81609548576E+02 0.  0.
         -6    2    1    2    0  502  0.12716245990E+03 -0.14790337926E+03 -0.11146849848E+03  0.28319846973E+03  0.17242519044E+03 0.  0.
        -24    2    5    5    0    0  0.15192745569E+03 -0.13050281388E+03 -0.12561837924E+03  0.24945837760E+03  0.79602567345E+02 0.  0.
          5    1    3    3  501    0 -0.11691425037E+03  0.10778030193E+03 -0.48224808996E+03  0.50780985190E+03  0.47000000000E+01 0. -1.
        -11    1    4    4    0    0  0.53451949772E+01  0.62332837283E+02 -0.14103988291E+03  0.15429258662E+03  0.00000000000E+00 0.  1.
         12    1    4    4    0    0 -0.15593404506E+02 -0.22209759957E+02 -0.36935080637E+02  0.45832607204E+02  0.00000000000E+00 0. -1.
         -5    1    5    5    0  502 -0.24764995783E+02 -0.17400565371E+02  0.14149880758E+02  0.33740092129E+02  0.47000000000E+01 0.  1.
         13    1    6    6    0    0  0.95063743838E+02 -0.12660165228E+03 -0.97103951707E+02  0.18572633413E+03  0.00000000000E+00 0. -1.
        -14    1    6    6    0    0  0.56863711848E+02 -0.39011616051E+01 -0.28514427532E+02  0.63732043467E+02  0.00000000000E+00 0.  1.
</event>
<event>
12    1  0.8135779E-002  0.3352686E+03  0.7818608E-02  0.1070162E+00
         21   -1    0    0  501  502  0.00000000000E+00  0.00000000000E+00  0.10837777599E+04  0.10837777599E+04  0.00000000000E+00 0. -1.
         21   -1    0    0  502  503 -0.00000000000E+00 -0.00000000000E+00 -0.27124098338E+03  0.27124098338E+03  0.00000000000E+00 0.  1.
         -6    2    1    2    0  503  0.26453292397E+03 -0.76091614614E+02 -0.12924556146E+03  0.35931800948E+03  0.19140902565E+03 0.  0.
        -24    2    3    3    0    0  0.10005983086E+03 -0.38993967278E+02  0.23072974751E+02  0.13205019330E+03  0.73296603961E+02 0.  0.
          6    2    1    2  501    0 -0.26453292397E+03  0.76091614614E+02  0.94178233802E+03  0.99570073384E+03  0.16940595467E+03 0.  0.
         24    2    5    5    0    0 -0.77377305108E+02 -0.26719916694E+02  0.33312642483E+03  0.35065690020E+03  0.72703820046E+02 0.  0.
          5    1    5    5  501    0 -0.18715561886E+03  0.10281153131E+03  0.60865591320E+03  0.64504383363E+03  0.47000000000E+01 0. -1.
        -13    1    6    6    0    0 -0.88082123306E+02 -0.31769706873E+02  0.31770853708E+03  0.33121969937E+03  0.00000000000E+00 0.  1.
         14    1    6    6    0    0  0.10704818198E+02  0.50497901797E+01  0.15417887747E+02  0.19437200829E+02  0.00000000000E+00 0. -1.
         -5    1    3    3    0  503  0.16447309311E+03 -0.37097647336E+02 -0.15231853621E+03  0.22726781617E+03  0.47000000000E+01 0.  1.
         11    1    4    4    0    0  0.10279944757E+03 -0.23534574466E+02  0.16271034895E+01  0.10547156053E+03  0.00000000000E+00 0. -1.
        -12    1    4    4    0    0 -0.27396167086E+01 -0.15459392812E+02  0.21445871262E+02  0.26578632771E+02  0.00000000000E+00 0.  1.
</event>
<event>
12    1  0.8135779E-002  0.2159582E+03  0.7818608E-02  0.1138147E+00
         21   -1    0    0  503  502  0.00000000000E+00  0.00000000000E+00  0.89787391247E+02  0.89787391247E+02  0.00000000000E+00 0.  1.
         21   -1    0    0  501  503 -0.00000000000E+00 -0.00000000000E+00 -0.68231853431E+03  0.68231853431E+03  0.00000000000E+00 0.  1.
          6    2    1    2  501    0  0.11166904086E+03 -0.60259709402E+02 -0.49012204622E+03  0.53309633718E+03  0.16694573149E+03 0.  0.
         24    2    3    3    0    0  0.47585284051E+02 -0.22706615720E+02 -0.42067886843E+03  0.43130533722E+03  0.79206274476E+02 0.  0.
         -6    2    1    2    0  502 -0.11166904086E+03  0.60259709402E+02 -0.10240909684E+03  0.23900958837E+03  0.17474768369E+03 0.  0.
        -24    2    5    5    0    0 -0.36500286972E+02 -0.17440250664E+02  0.23743556293E+01  0.88379952289E+02  0.78542632434E+02 0.  0.
          5    1    3    3  501    0  0.64083756807E+02 -0.37553093682E+02 -0.69443177789E+02  0.10179099996E+03  0.47000000000E+01 0. -1.
        -11    1    4    4    0    0  0.50478687689E+02 -0.44768695424E+02 -0.36777168490E+03  0.37390954282E+03  0.00000000000E+00 0.  1.
         12    1    4    4    0    0 -0.28934036374E+01  0.22062079704E+02 -0.52907183538E+02  0.57395794405E+02  0.00000000000E+00 0. -1.
         -5    1    5    5    0  502 -0.75168753885E+02  0.77699960067E+02 -0.10478345247E+03  0.15062963608E+03  0.47000000000E+01 0.  1.
         13    1    6    6    0    0 -0.22602113437E+02 -0.13049174957E+02 -0.37634770343E+02  0.45798607377E+02  0.00000000000E+00 0. -1.
        -14    1    6    6    0    0 -0.13898173535E+02 -0.43910757073E+01  0.40009125972E+02  0.42581344912E+02  0.00000000000E+00 0.  1.
</event>
<event>
12    1  0.8135779E-002  0.1839975E+03  0.7818608E-02  0.1164467E+00
         21   -1    0    0  503  502  0.00000000000E+00  0.00000000000E+00  0.49978551008E+03  0.49978551008E+03  0.00000000000E+00 0. -1.
         21   -1    0    0  501  503 -0.00000000000E+00 -0.00000000000E+00 -0.10623242106E+03  0.10623242106E+03  0.00000000000E+00 0. -1.
          6    2    1    2  501    0 -0.62072616947E+02  0.20507556156E+02  0.13316573860E+02  0.18447877238E+03  0.17199278091E+03 0.  0.
         24    2    3    3    0    0  0.19400370441E+02  0.36124515138E+02  0.38390266079E+02  0.97688697350E+02  0.79924427387E+02 0.  0.
         -6    2    1    2    0  502  0.62072616947E+02 -0.20507556156E+02  0.38023651516E+03  0.42153915877E+03  0.16982898834E+03 0.  0.
        -24    2    5    5    0    0 -0.11376690980E+02  0.33577662171E+02  0.22043193507E+03  0.23747502458E+03  0.80915145721E+02 0.  0.
          5    1    3    3  501    0 -0.81472987388E+02 -0.15616958982E+02 -0.25073692219E+02  0.86790075028E+02  0.47000000000E+01 0. -1.
        -13    1    4    4    0    0  0.33967426649E+02  0.47011693856E+01  0.50461126969E+02  0.61009936909E+02  0.00000000000E+00 0.  1.
         14    1    4    4    0    0 -0.14567056207E+02  0.31423345752E+02 -0.12070860890E+02  0.36678760441E+02  0.00000000000E+00 0. -1.
         -5    1    5    5    0  502  0.73449307927E+02 -0.54085218327E+02  0.15980458009E+03  0.18406413418E+03  0.47000000000E+01 0.  1.
         11    1    6    6    0    0 -0.11465522126E+02  0.25462792521E+01  0.19994748873E+03  0.20029213660E+03  0.00000000000E+00 0. -1.
        -12    1    6    6    0    0  0.88831146560E-01  0.31031382919E+02  0.20484446347E+02  0.37182887986E+02  0.00000000000E+00 0.  1.
</event>
<event>
12    1  0.8135779E-002  0.2541724E+03  0.7818608E-02  0.1111667E+00
         21   -1    0    0  503  502  0.00000000000E+00  0.00000000000E+00  0.65032414885E+03  0.65032414885E+03  0.00000000000E+00 0. -1.
         21   -1    0    0  501  503 -0.00000000000E+00 -0.00000000000E+00 -0.99536411384E+02  0.99536411384E+02  0.00000000000E+00 0. -1.
          6    2    1    2  501    0  0.17414817300E+03  0.41654951118E+02  0.33933109437E+03  0.42396842084E+03  0.18039098966E+03 0.  0.
         24    2    3    3    0    0  0.12082691226E+03  0.83092511108E+02  0.15594306689E+03  0.22848571867E+03  0.79899783444E+02 0.  0.
         -6    2    1    2    0  502 -0.17414817300E+03 -0.41654951118E+02  0.21145664309E+03  0.32589213940E+03  0.17154898280E+03 0.  0.
        -24    2    5    5    0    0 -0.72764697743E+02 -0.83411065303E+02  0.13315583002E+03  0.19107637824E+03  0.80793565352E+02 0.  0.
          5    1    3    3  501    0  0.53321260734E+02 -0.41437559990E+02  0.18338802748E+03  0.19548270217E+03  0.47000000000E+01 0. -1.
        -13    1    4    4    0    0  0.90639579393E+01  0.16438253934E+02 -0.69316583023E+01  0.20010482572E+02  0.00000000000E+00 0.  1.
         14    1    4    4    0    0  0.11176295432E+03  0.66654257174E+02  0.16287472519E+03  0.20847523609E+03  0.00000000000E+00 0. -1.
         -5    1    5    5    0  502 -0.10138347526E+03  0.41756114185E+02  0.78300813075E+02  0.13481576115E+03  0.47000000000E+01 0.  1.
         13    1    6    6    0    0 -0.31884637906E+02 -0.31212275186E+02  0.26535432485E+01  0.44697623521E+02  0.00000000000E+00 0. -1.
        -14    1    6    6    0    0 -0.40880059837E+02 -0.52198790117E+02  0.13050228677E+03  0.14637875472E+03  0.00000000000E+00 0.  1.
</event>
<event>
12    1  0.8135779E-002  0.1865576E+03  0.7818608E-02  0.1162467E+00
         21   -1    0    0  501  502  0.00000000000E+00  0.00000000000E+00  0.26650905651E+04  0.26650905651E+04  0.00000000000E+00 0. -1.
         21   -1    0    0  502  503 -0.00000000000E+00 -0.00000000000E+00 -0.13543908410E+02  0.13543908410E+02  0.00000000000E+00 0.  1.
         -6    2    1    2    0  503  0.74953300176E+02  0.10483732927E+02  0.99967024549E+03  0.10162568331E+04  0.16646154311E+03 0.  0.
        -24    2    3    3    0    0  0.47616152592E+02  0.66057124013E+02  0.49533264844E+03  0.50810899714E+03  0.78673240357E+02 0.  0.
          6    2    1    2  501    0 -0.74953300176E+02 -0.10483732927E+02  0.16518764112E+04  0.16623776404E+04  0.17051637880E+03 0.  0.
         24    2    5    5    0    0 -0.37994582955E+02 -0.53387776566E+02  0.58600846971E+03  0.59499614228E+03  0.79502451187E+02 0.  0.
          5    1    5    5  501    0 -0.36958717221E+02  0.42904043639E+02  0.10658679415E+04  0.10673814981E+04  0.47000000000E+01 0. -1.
        -13    1    6    6    0    0 -0.14928500351E+02  0.22610482498E+01  0.16716309494E+02  0.22525706760E+02  0.00000000000E+00 0.  1.
         14    1    6    6    0    0 -0.23066082603E+02 -0.55648824815E+02  0.56929216021E+03  0.57247043553E+03  0.00000000000E+00 0. -1.
         -5    1    3    3    0  503  0.27337147584E+02 -0.55573391086E+02  0.50433759705E+03  0.50814783601E+03  0.47000000000E+01 0.  1.
         13    1    4    4    0    0  0.44011703434E+02  0.69455636176E+02  0.49629664118E+03  0.50306209506E+03  0.00000000000E+00 0. -1.
        -14    1    4    4    0    0  0.36044491578E+01 -0.33985121634E+01 -0.96399274274E+00  0.50469020858E+01  0.00000000000E+00 0.  1.
</event>
<event>
12    1  0.8135779E-002  0.1781593E+03  0.7818608E-02  0.1169725E+00
         21   -1    0    0  503  502  0.00000000000E+00  0.00000000000E+00  0.38636857538E+03  0.38636857538E+03  0.00000000000E+00 0.  1.
         21   -1    0    0  501  503 -0.00000000000E+00 -0.00000000000E+00 -0.82390976630E+02  0.82390976630E+02  0.00000000000E+00 0.  1.
          6    2    1    2  501    0 -0.44674053795E+02 -0.20088241155E+02  0.13385514386E+03  0.22242160676E+03  0.17074795197E+03 0.  0.
         24    2    3    3    0    0 -0.60898043138E+02 -0.31720798639E+02  0.20840693616E+02  0.10756129949E+03  0.80126886333E+02 0.  0.
         -6    2    1    2    0  502  0.44674053795E+02  0.20088241155E+02  0.17012245489E+03  0.24633794525E+03  0.17129338894E+03 0.  0.
        -24    2    5    5    0    0 -0.43603391437E+01 -0.43575534202E+02  0.56291806918E+02  0.10692146702E+03  0.79659229499E+02 0.  0.
          5    1    3    3  501    0  0.16223989343E+02  0.11632557485E+02  0.11301445024E+03  0.11486030727E+03  0.47000000000E+01 0. -1.
        -13    1    4    4    0    0  0.36958182411E+01 -0.18206796080E+02 -0.22067063874E+02  0.28846174859E+02  0.00000000000E+00 0.  1.
         14    1    4    4    0    0 -0.64593861379E+02 -0.13514002559E+02  0.42907757490E+02  0.78715124632E+02  0.00000000000E+00 0. -1.
         -5    1    5    5    0  502  0.49034392938E+02  0.63663775357E+02  0.11383064797E+03  0.13941647823E+03  0.47000000000E+01 0.  1.
         11    1    6    6    0    0  0.31020486665E+02 -0.37282109250E+02  0.12144780787E+02  0.49997219557E+02  0.00000000000E+00 0. -1.
        -12    1    6    6    0    0 -0.35380825809E+02 -0.62934249521E+01  0.44147026132E+02  0.56924247459E+02  0.00000000000E+00 0.  1.
</event>
<event>
12    1  0.8135779E-002  0.1867901E+03  0.7818608E-02  0.1162009E+00
         21   -1    0    0  503  502  0.00000000000E+00  0.00000000000E+00  0.12734041633E+03  0.12734041633E+03  0.00000000000E+00 0. -1.
         21   -1    0    0  501  503 -0.00000000000E+00 -0.00000000000E+00 -0.57814286162E+03  0.57814286162E+03  0.00000000000E+00 0. -1.
          6    2    1    2  501    0 -0.40205506914E+02  0.60804297741E+02 -0.48212442678E+03  0.51608526665E+03  0.16907511392E+03 0.  0.
         24    2    3    3    0    0 -0.84223608989E+02  0.14761833909E+02 -0.26002555470E+03  0.28498463756E+03  0.79318512962E+02 0.  0.
         -6    2    1    2    0  502  0.40205506914E+02 -0.60804297741E+02  0.31321981488E+02  0.18939801130E+03  0.17197934397E+03 0.  0.
        -24    2    5    5    0    0  0.65847524486E+02 -0.95414408940E+02  0.79622263894E+01  0.14017260099E+03  0.78391039692E+02 0.  0.
          5    1    3    3  501    0  0.44018102075E+02  0.46042463831E+02 -0.22209887208E+03  0.23110062909E+03  0.47000000000E+01 0. -1.
        -13    1    4    4    0    0 -0.54981111355E+02  0.70335630395E+01 -0.56230762506E+02  0.78957534580E+02  0.00000000000E+00 0.  1.
         14    1    4    4    0    0 -0.29242497634E+02  0.77282708699E+01 -0.20379479219E+03  0.20602710298E+03  0.00000000000E+00 0. -1.
         -5    1    5    5    0  502 -0.25642017573E+02  0.34610111199E+02  0.23359755098E+02  0.49225410315E+02  0.47000000000E+01 0.  1.
         11    1    6    6    0    0  0.95764026192E+01 -0.81219484860E+02  0.16766222315E+01  0.81799286489E+02  0.00000000000E+00 0. -1.
        -12    1    6    6    0    0  0.56271121867E+02 -0.14194924080E+02  0.62856041578E+01  0.58373314498E+02  0.00000000000E+00 0.  1.
</event>
<event>
12    1  0.8135779E-002  0.1819218E+03  0.7818608E-02  0.1166074E+00
         21   -1    0    0  501  502  0.00000000000E+00  0.00000000000E+00  0.35631791879E+02  0.35631791879E+02  0.00000000000E+00 0. -1.
         21   -1    0    0  502  503 -0.00000000000E+00 -0.00000000000E+00 -0.10928835131E+04  0.10928835131E+04  0.00000000000E+00 0. -1.
         -6    2    1    2    0  503  0.77278785166E+01 -0.57774157682E+02 -0.74953022274E+03  0.77129182414E+03  0.17233093101E+03 0.  0.
        -24    2    3    3    0    0  0.65339316060E+02 -0.33071714947E+01 -0.43662097376E+03  0.44846057036E+03  0.78732743084E+02 0.  0.
          6    2    1    2  501    0 -0.77278785166E+01  0.57774157682E+02 -0.30772149850E+03  0.35722348086E+03  0.17180954931E+03 0.  0.
         24    2    5    5    0    0  0.40460331276E+02  0.83842719754E+02 -0.17524326290E+03  0.21378622489E+03  0.79546896227E+02 0.  0.
          5    1    5    5  501    0 -0.48188209793E+02 -0.26068562072E+02 -0.13247823560E+03  0.14343725597E+03  0.47000000000E+01 0. -1.
        -11    1    6    6    0    0 -0.41675723403E+01 -0.89612813273E+01 -0.53166290198E+02  0.54077052765E+02  0.00000000000E+00 0.  1.
         12    1    6    6    0    0  0.44627903616E+02  0.92804001081E+02 -0.12207697270E+03  0.15970917213E+03  0.00000000000E+00 0. -1.
         -5    1    3    3    0  503 -0.57611437544E+02 -0.54466986187E+02 -0.31290924899E+03  0.32283125379E+03  0.47000000000E+01 0.  1.
         13    1    4    4    0    0  0.24191863347E+02 -0.22786219353E+02 -0.34034358803E+03  0.34196230196E+03  0.00000000000E+00 0. -1.
        -14    1    4    4    0    0  0.41147452713E+02  0.19479047858E+02 -0.96277385722E+02  0.10649826840E+03  0.00000000000E+00 0.  1.
</event>
<event>
12    1  0.8135779E-002  0.1912142E+03  0.7818608E-02  0.1158513E+00
         21   -1    0    0  501  502  0.00000000000E+00  0.00000000000E+00  0.76908696187E+03  0.76908696187E+03  0.00000000000E+00 0. -1.
         21   -1    0    0  502  503 -0.00000000000E+00 -0.00000000000E+00 -0.10348304474E+03  0.10348304474E+03  0.00000000000E+00 0. -1.
         -6    2    1    2    0  503  0.14009415170E+02 -0.71061218835E+02  0.65008923562E+01  0.18629043611E+03  0.17151065404E+03 0.  0.
        -24    2    3    3    0    0 -0.45569915401E+02 -0.81379472898E+02  0.18083323613E+02  0.12454575446E+03  0.80531997132E+02 0.  0.
          6    2    1    2  501    0 -0.14009415170E+02  0.71061218835E+02  0.65910302477E+03  0.68627957050E+03  0.17696579075E+03 0.  0.
         24    2    5    5    0    0 -0.71903624711E+02  0.73144456593E+02  0.50935225897E+03  0.52564501247E+03  0.79641149142E+02 0.  0.
          5    1    5    5  501    0  0.57894209541E+02 -0.20832377583E+01  0.14975076580E+03  0.16063455803E+03  0.47000000000E+01 0. -1.
        -11    1    6    6    0    0 -0.39726201717E+02 -0.75254791006E+01  0.11681513300E+03  0.12361464005E+03  0.00000000000E+00 0.  1.
         12    1    6    6    0    0 -0.32177422994E+02  0.80669935694E+02  0.39253712597E+03  0.40203037241E+03  0.00000000000E+00 0. -1.
         -5    1    3    3    0  503  0.59579330571E+02  0.10318254063E+02 -0.11582431257E+02  0.61744681649E+02  0.47000000000E+01 0.  1.
         11    1    4    4    0    0  0.15480131302E+02 -0.33261177139E+02  0.28042380728E+02  0.46177001708E+02  0.00000000000E+00 0. -1.
        -12    1    4    4    0    0 -0.61050046703E+02 -0.48118295760E+02 -0.99590571154E+01  0.78368752752E+02  0.00000000000E+00 0.  1.
</event>
<event>
12    1  0.8135779E-002  0.1868622E+03  0.7818608E-02  0.1161455E+00
         21   -1    0    0  503  502  0.00000000000E+00  0.00000000000E+00  0.10173300947E+04  0.10173300947E+04  0.00000000000E+00 0. -1.
         21   -1    0    0  501  503 -0.00000000000E+00 -0.00000000000E+00 -0.36501021125E+02  0.36501021125E+02  0.00000000000E+00 0. -1.
          6    2    1    2  501    0  0.44198081747E+02  0.52096612315E+02  0.35931824923E+03  0.40500259111E+03  0.17392517683E+03 0.  0.
         24    2    3    3    0    0  0.78244969680E+02 -0.78663544741E+01  0.17608055377E+03  0.20916364963E+03  0.80999482087E+02 0.  0.
         -6    2    1    2    0  502 -0.44198081747E+02 -0.52096612315E+02  0.62151082431E+03  0.64882852467E+03  0.17330672881E+03 0.  0.
        -24    2    5    5    0    0 -0.93504399005E+02 -0.45156715016E+02  0.38892364301E+03  0.41092484248E+03  0.82555584497E+02 0.  0.
          5    1    3    3  501    0 -0.34046887932E+02  0.59962966789E+02  0.18323769546E+03  0.19583894148E+03  0.47000000000E+01 0. -1.
        -11    1    4    4    0    0  0.69236284266E+02  0.17518728140E+01  0.18198847272E+03  0.19472168940E+03  0.00000000000E+00 0.  1.
         12    1    4    4    0    0  0.90086854136E+01 -0.96182272881E+01 -0.59079189539E+01  0.14441960234E+02  0.00000000000E+00 0. -1.
         -5    1    5    5    0  502  0.49306317258E+02 -0.69398972993E+01  0.23258718129E+03  0.23790368219E+03  0.47000000000E+01 0.  1.
         11    1    6    6    0    0 -0.21942176812E+02 -0.46522418402E+02  0.24310228648E+03  0.24848443861E+03  0.00000000000E+00 0. -1.
        -12    1    6    6    0    0 -0.71562222194E+02  0.13657033865E+01  0.14582135653E+03  0.16244040388E+03  0.00000000000E+00 0.  1.
</event>
<event>
12    1  0.8135779E-002  0.1900797E+03  0.7818608E-02  0.1158586E+00
         21   -1    0    0  503  502  0.00000000000E+00  0.00000000000E+00  0.11443731604E+03  0.11443731604E+03  0.00000000000E+00 0. -1.
         21   -1    0    0  501  503 -0.00000000000E+00 -0.00000000000E+00 -0.36497851028E+03  0.36497851028E+03  0.00000000000E+00 0. -1.
          6    2    1    2  501    0 -0.21610221813E+02 -0.76580129996E+02 -0.21486018326E+03  0.28687139498E+03  0.17262323399E+03 0.  0.
         24    2    3    3    0    0  0.25617318805E+02 -0.94189415363E+02 -0.19542802224E+03  0.23264754040E+03  0.80030451628E+02 0.  0.
         -6    2    1    2    0  502  0.21610221813E+02  0.76580129996E+02 -0.35681010983E+02  0.19254443133E+03  0.17166451438E+03 0.  0.
        -24    2    5    5    0    0  0.15074027012E+02  0.50347261359E+02  0.47073783603E+02  0.10535881746E+03  0.78246190305E+02 0.  0.
          5    1    3    3  501    0 -0.47227540619E+02  0.17609285367E+02 -0.19432161018E+02  0.54223854583E+02  0.47000000000E+01 0. -1.
        -11    1    4    4    0    0 -0.27446482626E+02 -0.49449439595E+02 -0.95231265742E+02  0.11075897462E+03  0.00000000000E+00 0.  1.
         12    1    4    4    0    0  0.53063801431E+02 -0.44739975767E+02 -0.10019675650E+03  0.12188856578E+03  0.00000000000E+00 0. -1.
         -5    1    5    5    0  502  0.65361948014E+01  0.26232868637E+02 -0.82754794587E+02  0.87185613873E+02  0.47000000000E+01 0.  1.
         11    1    6    6    0    0 -0.13418248897E+02  0.38545284871E+02 -0.86034031600E+01  0.41710992978E+02  0.00000000000E+00 0. -1.
        -12    1    6    6    0    0  0.28492275908E+02  0.11801976488E+02  0.55677186763E+02  0.63647824482E+02  0.00000000000E+00 0.  1.
</event>
<event>
12    1  0.8135779E-002  0.3255956E+03  0.7818608E-02  0.1073120E+00
         21   -1    0    0  501  502  0.00000000000E+00  0.00000000000E+00  0.58078420354E+03  0.58078420354E+03  0.00000000000E+00 0.  1.
         21   -1    0    0  502  503 -0.00000000000E+00 -0.00000000000E+00 -0.19004180188E+03  0.19004180188E+03  0.00000000000E+00 0.  1.
         -6    2    1    2    0  503  0.28775593116E+00  0.27583405180E+03  0.11835618061E+03  0.34643998936E+03  0.17299703410E+03 0.  0.
        -24    2    3    3    0    0  0.54659027818E+02  0.20681478265E+03  0.53140237794E+02  0.23691782760E+03  0.86868915707E+02 0.  0.
          6    2    1    2  501    0 -0.28775593116E+00 -0.27583405180E+03  0.27238622106E+03  0.42438601606E+03  0.17269837946E+03 0.  0.
         24    2    5    5    0    0 -0.21717865640E+02 -0.14288524542E+03  0.70986833689E+02  0.18206713947E+03  0.84979136675E+02 0.  0.
          5    1    5    5  501    0  0.21430109709E+02 -0.13294880638E+03  0.20139938737E+03  0.24231887659E+03  0.47000000000E+01 0. -1.
        -13    1    6    6    0    0 -0.36390074361E+02 -0.13704565917E+03  0.81066758916E+02  0.16333269608E+03  0.00000000000E+00 0.  1.
         14    1    6    6    0    0  0.14672208721E+02 -0.58395862522E+01 -0.10079925226E+02  0.18734443384E+02  0.00000000000E+00 0. -1.
         -5    1    3    3    0  503 -0.54371271887E+02  0.69019269144E+02  0.65215942817E+02  0.10952216176E+03  0.47000000000E+01 0.  1.
         11    1    4    4    0    0 -0.85573687455E+01  0.10070920966E+02 -0.14366491629E+02  0.19520453137E+02  0.00000000000E+00 0. -1.
        -12    1    4    4    0    0  0.63216396563E+02  0.19674386169E+03  0.67506729423E+02  0.21739737446E+03  0.00000000000E+00 0.  1.
</event>
<event>
12    1  0.8135779E-002  0.1820344E+03  0.7818608E-02  0.1165946E+00
         21   -1    0    0  501  502  0.00000000000E+00  0.00000000000E+00  0.92745498964E+02  0.92745498964E+02  0.00000000000E+00 0.  1.
         21   -1    0    0  502  503 -0.00000000000E+00 -0.00000000000E+00 -0.36698258596E+03  0.36698258596E+03  0.00000000000E+00 0. -1.
         -6    2    1    2    0  503  0.35361990137E+02 -0.47540690841E+02 -0.98382911840E+02  0.20691957145E+03  0.17212182917E+03 0.  0.
        -24    2    3    3    0    0 -0.26637175426E+02 -0.40407834429E+02 -0.10649365383E+03  0.14381134452E+03  0.83656872446E+02 0.  0.
          6    2    1    2  501    0 -0.35361990137E+02  0.47540690841E+02 -0.17585417516E+03  0.25280851347E+03  0.17168828129E+03 0.  0.
         24    2    5    5    0    0 -0.88588941626E+02  0.48975666358E+02 -0.11250308124E+03  0.16991931864E+03  0.77259401269E+02 0.  0.
          5    1    5    5  501    0  0.53226951489E+02 -0.14349755172E+01 -0.63351093914E+02  0.82889194831E+02  0.47000000000E+01 0. -1.
        -13    1    6    6    0    0 -0.61339385946E+02 -0.59100357535E+01 -0.34161623795E+02  0.70458962036E+02  0.00000000000E+00 0.  1.
         14    1    6    6    0    0 -0.27249555681E+02  0.54885702111E+02 -0.78341457446E+02  0.99460356604E+02  0.00000000000E+00 0. -1.
         -5    1    3    3    0  503  0.61999165563E+02 -0.71328564118E+01  0.81107419936E+01  0.63108226935E+02  0.47000000000E+01 0.  1.
         11    1    4    4    0    0 -0.29809818485E+02  0.79097378144E+01 -0.85760703895E+02  0.91137739510E+02  0.00000000000E+00 0. -1.
        -12    1    4    4    0    0  0.31726430587E+01 -0.48317572243E+02 -0.20732949939E+02  0.52673605009E+02  0.00000000000E+00 0.  1.
</event>
<event>
12    1  0.8135779E-002  0.1746483E+03  0.7818608E-02  0.1173356E+00
         21   -1    0    0  501  502  0.00000000000E+00  0.00000000000E+00  0.21562310562E+03  0.21562310562E+03  0.00000000000E+00 0. -1.
         21   -1    0    0  502  503 -0.00000000000E+00 -0.00000000000E+00 -0.14090762476E+03  0.14090762476E+03  0.00000000000E+00 0. -1.
         -6    2    1    2    0  503 -0.11770480809E+02 -0.23626408849E+02  0.45916973452E+02  0.18058345541E+03  0.17264201257E+03 0.  0.
        -24    2    3    3    0    0 -0.41518515465E+02 -0.69941181602E+02  0.52081282315E+02  0.12499485546E+03  0.79345434105E+02 0.  0.
          6    2    1    2  501    0  0.11770480809E+02  0.23626408849E+02  0.28798507410E+02  0.17594727497E+03  0.17155564149E+03 0.  0.
         24    2    5    5    0    0 -0.33315669965E+01  0.61765626825E+02 -0.29513216577E+02  0.10449785965E+03  0.78883969993E+02 0.  0.
          5    1    5    5  501    0  0.15102047805E+02 -0.38139217977E+02  0.58311723987E+02  0.71449415324E+02  0.47000000000E+01 0. -1.
        -13    1    6    6    0    0  0.27549001006E+02  0.62362126925E+02 -0.12758128310E+02  0.69359585992E+02  0.00000000000E+00 0.  1.
         14    1    6    6    0    0 -0.30880568002E+02 -0.59650009922E+00 -0.16755088267E+02  0.35138273653E+02  0.00000000000E+00 0. -1.
         -5    1    3    3    0  503  0.29748034656E+02  0.46314772753E+02 -0.61643088627E+01  0.55588599953E+02  0.47000000000E+01 0.  1.
         11    1    4    4    0    0  0.12949827626E+02  0.10314381145E+02  0.59772461140E+01  0.17601476218E+02  0.00000000000E+00 0. -1.
        -12    1    4    4    0    0 -0.54468343090E+02 -0.80255562747E+02  0.46104036201E+02  0.10739337924E+03  0.00000000000E+00 0.  1.
</event>
<event>
12    1  0.8135779E-002  0.1968704E+03  0.7818608E-02  0.1152541E+00
         21   -1    0    0  501  502  0.00000000000E+00  0.00000000000E+00  0.53608062053E+03  0.53608062053E+03  0.00000000000E+00 0. -1.
         21   -1    0    0  502  503 -0.00000000000E+00 -0.00000000000E+00 -0.10309374884E+03  0.10309374884E+03  0.00000000000E+00 0. -1.
         -6    2    1    2    0  503  0.53503583463E+02 -0.76247151581E+02  0.39156875756E+03  0.43799436109E+03  0.17273305092E+03 0.  0.
        -24    2    3    3    0    0  0.10242544787E+03 -0.59413621484E+02  0.25470095944E+03  0.29159900353E+03  0.78335492143E+02 0.  0.
          6    2    1    2  501    0 -0.53503583463E+02  0.76247151581E+02  0.41418114131E+02  0.20118000829E+03  0.17344069300E+03 0.  0.
         24    2    5    5    0    0  0.26538413332E+02  0.68329377204E+01 -0.12531813486E+02  0.82193710647E+02  0.76470800314E+02 0.  0.
          5    1    5    5  501    0 -0.80041996794E+02  0.69414213860E+02  0.53949927617E+02  0.11898629764E+03  0.47000000000E+01 0. -1.
        -11    1    6    6    0    0 -0.23086522967E+02 -0.46262489143E+01 -0.19778083441E+02  0.30749996851E+02  0.00000000000E+00 0.  1.
         12    1    6    6    0    0  0.49624936298E+02  0.11459186635E+02  0.72462699552E+01  0.51443713797E+02  0.00000000000E+00 0. -1.
         -5    1    3    3    0  503 -0.48921864407E+02 -0.16833530096E+02  0.13686779812E+03  0.14639535756E+03  0.47000000000E+01 0.  1.
         11    1    4    4    0    0  0.21486680182E+02 -0.28132833482E+02  0.15693884004E+03  0.16088173687E+03  0.00000000000E+00 0. -1.
        -12    1    4    4    0    0  0.80938767688E+02 -0.31280788003E+02  0.97762119398E+02  0.13071726666E+03  0.00000000000E+00 0.  1.
</event>
<event>
12    1  0.8135779E-002  0.1895226E+03  0.7818608E-02  0.1158958E+00
         21   -1    0    0  501  502  0.00000000000E+00  0.00000000000E+00  0.19437656796E+04  0.19437656796E+04  0.00000000000E+00 0. -1.
         21   -1    0    0  502  503 -0.00000000000E+00 -0.00000000000E+00 -0.22239003216E+02  0.22239003216E+02  0.00000000000E+00 0. -1.
         -6    2    1    2    0  503  0.33092674651E+02  0.72409629085E+02  0.13658601018E+04  0.13789066155E+04  0.17167223712E+03 0.  0.
        -24    2    3    3    0    0  0.75826611345E+02  0.11058146494E+02  0.65725653841E+03  0.66635395510E+03  0.78546028498E+02 0.  0.
          6    2    1    2  501    0 -0.33092674651E+02 -0.72409629085E+02  0.55566657463E+03  0.58709806739E+03  0.17198988073E+03 0.  0.
         24    2    5    5    0    0 -0.20703833196E+01 -0.21321623309E+02  0.49419703148E+03  0.50123211588E+03  0.80895178839E+02 0.  0.
          5    1    5    5  501    0 -0.31022291331E+02 -0.51088005777E+02  0.61469543148E+02  0.85865951509E+02  0.47000000000E+01 0. -1.
        -11    1    6    6    0    0 -0.36783601354E+01 -0.50559526579E+02  0.37884074554E+03  0.38221735510E+03  0.00000000000E+00 0.  1.
         12    1    6    6    0    0  0.16079768158E+01  0.29237903270E+02  0.11535628594E+03  0.11901476078E+03  0.00000000000E+00 0. -1.
         -5    1    3    3    0  503 -0.42733936694E+02  0.61351482591E+02  0.70860356337E+03  0.71255266036E+03  0.47000000000E+01 0.  1.
         11    1    4    4    0    0  0.63796555272E+02 -0.18701177128E+02  0.28214675966E+03  0.28987329728E+03  0.00000000000E+00 0. -1.
        -12    1    4    4    0    0  0.12030056073E+02  0.29759323622E+02  0.37510977875E+03  0.37648065781E+03  0.00000000000E+00 0.  1.
</event>
<event>
12    1  0.8135779E-002  0.1962805E+03  0.7818608E-02  0.1153241E+00
         21   -1    0    0  501  502  0.00000000000E+00  0.00000000000E+00  0.38898689357E+03  0.38898689357E+03  0.00000000000E+00 0. -1.
         21   -1    0    0  502  503 -0.00000000000E+00 -0.00000000000E+00 -0.10528228542E+03  0.10528228542E+03  0.00000000000E+00 0. -1.
         -6    2    1    2    0  503  0.91082513494E+02  0.22201159876E+02  0.20504316046E+03  0.28281316370E+03  0.17073860766E+03 0.  0.
        -24    2    3    3    0    0  0.93038048895E+02 -0.35747034024E+01  0.61003353924E+02  0.13639671956E+03  0.78827652958E+02 0.  0.
          6    2    1    2  501    0 -0.91082513494E+02 -0.22201159876E+02  0.78661447692E+02  0.21145601529E+03  0.17244450494E+03 0.  0.
         24    2    5    5    0    0 -0.11007486121E+03 -0.53676430039E+02  0.91002777021E+02  0.17239452129E+03  0.80254167080E+02 0.  0.
          5    1    5    5  501    0  0.18992347717E+02  0.31475270163E+02 -0.12341329329E+02  0.39061493996E+02  0.47000000000E+01 0. -1.
        -13    1    6    6    0    0 -0.54018457513E+02  0.16496317699E+02  0.31706266901E+02  0.64771981679E+02  0.00000000000E+00 0.  1.
         14    1    6    6    0    0 -0.56056403697E+02 -0.70172747738E+02  0.59296510119E+02  0.10762253961E+03  0.00000000000E+00 0. -1.
         -5    1    3    3    0  503 -0.19555354012E+01  0.25775863278E+02  0.14403980654E+03  0.14641644414E+03  0.47000000000E+01 0.  1.
         11    1    4    4    0    0  0.99595170740E+02  0.81828526290E+01  0.68340854539E+02  0.12106456753E+03  0.00000000000E+00 0. -1.
        -12    1    4    4    0    0 -0.65571218447E+01 -0.11757556031E+02 -0.73375006151E+01  0.15332152034E+02  0.00000000000E+00 0.  1.
</event>
<event>
12    1  0.8135779E-002  0.1824946E+03  0.7818608E-02  0.1165446E+00
         21   -1    0    0  503  502  0.00000000000E+00  0.00000000000E+00  0.18625846144E+03  0.18625846144E+03  0.00000000000E+00 0. -1.
         21   -1    0    0  501  503 -0.00000000000E+00 -0.00000000000E+00 -0.23325273909E+03  0.23325273909E+03  0.00000000000E+00 0. -1.
          6    2    1    2  501    0  0.58538117800E+02  0.13720011583E+02 -0.12498041088E+03  0.22118858307E+03  0.17230593787E+03 0.  0.
         24    2    3    3    0    0  0.50181825266E+02 -0.19275830516E+02 -0.15019563041E+03  0.17856874594E+03  0.80238995516E+02 0.  0.
         -6    2    1    2    0  502 -0.58538117800E+02 -0.13720011583E+02  0.77986133225E+02  0.19832261745E+03  0.17214840593E+03 0.  0.
        -24    2    5    5    0    0 -0.11934058314E+02  0.58569674645E+02  0.20430407672E+02  0.94724892386E+02  0.70587358245E+02 0.  0.
          5    1    3    3  501    0  0.83562925342E+01  0.32995842099E+02  0.25215219538E+02  0.42619837131E+02  0.47000000000E+01 0. -1.
        -11    1    4    4    0    0  0.43491649355E+01 -0.16521821840E+02  0.41138600993E+01  0.17572981462E+02  0.00000000000E+00 0.  1.
         12    1    4    4    0    0  0.45832660330E+02 -0.27540086760E+01 -0.15430949051E+03  0.16099576448E+03  0.00000000000E+00 0. -1.
         -5    1    5    5    0  502 -0.46604059486E+02 -0.72289686228E+02  0.57555725553E+02  0.10359772507E+03  0.47000000000E+01 0.  1.
         13    1    6    6    0    0 -0.22387884588E+02 -0.22185780729E+01 -0.11503471401E+02  0.25267950437E+02  0.00000000000E+00 0. -1.
        -14    1    6    6    0    0  0.10453826274E+02  0.60788252718E+02  0.31933879074E+02  0.69456941949E+02  0.00000000000E+00 0.  1.
</event>
<event>
12    1  0.8135779E-002  0.2020548E+03  0.7818608E-02  0.1148196E+00
         21   -1    0    0  501  502  0.00000000000E+00  0.00000000000E+00  0.66253532588E+03  0.66253532588E+03  0.00000000000E+00 0. -1.
         21   -1    0    0  502  503 -0.00000000000E+00 -0.00000000000E+00 -0.10578451123E+03  0.10578451123E+03  0.00000000000E+00 0. -1.
         -6    2    1    2    0  503 -0.10084676584E+03 -0.23914676022E+02  0.29081170203E+02  0.20328764018E+03  0.17244758125E+03 0.  0.
        -24    2    3    3    0    0 -0.47586062215E+02 -0.51282005928E+02 -0.38481358594E+02  0.11288598868E+03  0.79800714482E+02 0.  0.
          6    2    1    2  501    0  0.10084676584E+03  0.23914676022E+02  0.52766964445E+03  0.56503219693E+03  0.17344782498E+03 0.  0.
         24    2    5    5    0    0  0.62118331710E+02  0.78320496032E+02  0.35353410132E+03  0.37847078012E+03  0.90889952022E+02 0.  0.
          5    1    5    5  501    0  0.38728434128E+02 -0.54405820010E+02  0.17413554313E+03  0.18656141681E+03  0.47000000000E+01 0. -1.
        -11    1    6    6    0    0  0.49116160890E+02  0.14514170356E+02  0.65386481706E+02  0.83056910559E+02  0.00000000000E+00 0.  1.
         12    1    6    6    0    0  0.13002170820E+02  0.63806325676E+02  0.28814761961E+03  0.29541386956E+03  0.00000000000E+00 0. -1.
         -5    1    3    3    0  503 -0.53260703623E+02  0.27367329907E+02  0.67562528797E+02  0.90401651501E+02  0.47000000000E+01 0.  1.
         11    1    4    4    0    0  0.44966792327E+01 -0.52106212721E+02 -0.91124612752E+01  0.53087799717E+02  0.00000000000E+00 0. -1.
        -12    1    4    4    0    0 -0.52082741447E+02  0.82420679281E+00 -0.29368897319E+02  0.59798188963E+02  0.00000000000E+00 0.  1.
</event>
<event>
12    1  0.8135779E-002  0.3682185E+03  0.7818608E-02  0.1055559E+00
         21   -1    0    0  503  502  0.00000000000E+00  0.00000000000E+00  0.89744781095E+02  0.89744781095E+02  0.00000000000E+00 0. -1.
         21   -1    0    0  501  503 -0.00000000000E+00 -0.00000000000E+00 -0.16531135403E+04  0.16531135403E+04  0.00000000000E+00 0.  1.
          6    2    1    2  501    0 -0.11068806050E+02 -0.32530777721E+03 -0.52094944715E+03  0.63794453245E+03  0.17215467351E+03 0.  0.
         24    2    3    3    0    0  0.20280276532E+02 -0.12481691650E+03 -0.31336490038E+03  0.34761233605E+03  0.81524371337E+02 0.  0.
         -6    2    1    2    0  502  0.11068806050E+02  0.32530777721E+03 -0.10424193121E+04  0.11049137890E+04  0.16807376503E+03 0.  0.
        -24    2    5    5    0    0  0.46094052431E+02  0.20945256566E+03 -0.51516830700E+03  0.56392865953E+03  0.81376345255E+02 0.  0.
          5    1    3    3  501    0 -0.31349082582E+02 -0.20049086071E+03 -0.20758454677E+03  0.29033219640E+03  0.47000000000E+01 0. -1.
        -13    1    4    4    0    0 -0.23363140138E+02 -0.27024516379E+02 -0.13428448175E+03  0.13895496696E+03  0.00000000000E+00 0.  1.
         14    1    4    4    0    0  0.43643416670E+02 -0.97792400120E+02 -0.17908041863E+03  0.20865736909E+03  0.00000000000E+00 0. -1.
         -5    1    5    5    0  502 -0.35025246381E+02  0.11585521155E+03 -0.52725100510E+03  0.54098512947E+03  0.47000000000E+01 0.  1.
         13    1    6    6    0    0  0.50619597356E+02  0.62378013164E+02 -0.14847074380E+03  0.16881031345E+03  0.00000000000E+00 0. -1.
        -14    1    6    6    0    0 -0.45255449252E+01  0.14707455250E+03 -0.36669756321E+03  0.39511834608E+03  0.00000000000E+00 0.  1.
</event>
<event>
12    1  0.8135779E-002  0.3836915E+03  0.7818608E-02  0.1049620E+00
         21   -1    0    0  503  502  0.00000000000E+00  0.00000000000E+00  0.18475900866E+03  0.18475900866E+03  0.00000000000E+00 0. -1.
         21   -1    0    0  501  503 -0.00000000000E+00 -0.00000000000E+00 -0.11299805347E+04  0.11299805347E+04  0.00000000000E+00 0.  1.
          6    2    1    2  501    0 -0.34225175609E+03  0.14928154182E+02 -0.83026543019E+03  0.91463645705E+03  0.17280060666E+03 0.  0.
         24    2    3    3    0    0 -0.26642914361E+03 -0.25856973776E+02 -0.73478798445E+03  0.78598760214E+03  0.78803914627E+02 0.  0.
         -6    2    1    2    0  502  0.34225175609E+03 -0.14928154182E+02 -0.11495609585E+03  0.40010308631E+03  0.17178027060E+03 0.  0.
        -24    2    5    5    0    0  0.17017393833E+03  0.74713371490E+01  0.61027052019E+01  0.18846699324E+03  0.80421230806E+02 0.  0.
          5    1    3    3  501    0 -0.75822612481E+02  0.40785127958E+02 -0.95477445740E+02  0.12864885492E+03  0.47000000000E+01 0. -1.
        -11    1    4    4    0    0 -0.19630268295E+03 -0.53650973446E+02 -0.52642848492E+03  0.56439358609E+03  0.00000000000E+00 0.  1.
         12    1    4    4    0    0 -0.70126460666E+02  0.27793999671E+02 -0.20835949953E+03  0.22159401605E+03  0.00000000000E+00 0. -1.
         -5    1    5    5    0  502  0.17207781776E+03 -0.22399491331E+02 -0.12105880106E+03  0.21163609307E+03  0.47000000000E+01 0.  1.
         11    1    6    6    0    0  0.17715476381E+03  0.74616615233E+01  0.14075872445E+02  0.17786966273E+03  0.00000000000E+00 0. -1.
        -12    1    6    6    0    0 -0.69808254836E+01  0.96756256855E-02 -0.79731672427E+01  0.10597330510E+02  0.00000000000E+00 0.  1.
</event>
<event>
12    1  0.8135779E-002  0.1913317E+03  0.7818608E-02  0.1157955E+00
         21   -1    0    0  503  502  0.00000000000E+00  0.00000000000E+00  0.32925321682E+03  0.32925321682E+03  0.00000000000E+00 0.  1.
         21   -1    0    0  501  503 -0.00000000000E+00 -0.00000000000E+00 -0.11684340943E+03  0.11684340943E+03  0.00000000000E+00 0.  1.
          6    2    1    2  501    0 -0.59778890617E+02  0.48310503222E+02  0.49159841212E+02  0.19458443238E+03  0.17186910965E+03 0.  0.
         24    2    3    3    0    0  0.24666425896E+02  0.41990701787E+01  0.52946198745E+02  0.99121054532E+02  0.79972612394E+02 0.  0.
         -6    2    1    2    0  502  0.59778890617E+02 -0.48310503222E+02  0.16324996618E+03  0.25151219388E+03  0.17521532961E+03 0.  0.
        -24    2    5    5    0    0  0.80752600393E+02  0.10887346229E+02  0.14446732644E+03  0.18579188167E+03  0.83715578654E+02 0.  0.
          5    1    3    3  501    0 -0.84445316513E+02  0.44111433044E+02 -0.37863575330E+01  0.95463377845E+02  0.47000000000E+01 0. -1.
        -13    1    4    4    0    0 -0.98940776303E+01 -0.32148459943E+02  0.21697560433E+02  0.40027495270E+02  0.00000000000E+00 0.  1.
         14    1    4    4    0    0  0.34560503526E+02  0.36347530121E+02  0.31248638312E+02  0.59093559262E+02  0.00000000000E+00 0. -1.
         -5    1    5    5    0  502 -0.20973709776E+02 -0.59197849452E+02  0.18782639743E+02  0.65720312211E+02  0.47000000000E+01 0.  1.
         13    1    6    6    0    0  0.12127009360E+02 -0.29713583704E+02  0.19499053705E+02  0.37552290316E+02  0.00000000000E+00 0. -1.
        -14    1    6    6    0    0  0.68625591033E+02  0.40600929933E+02  0.12496827273E+03  0.14823959136E+03  0.00000000000E+00 0.  1.
</event>
<event>
12    1  0.8135779E-002  0.2403900E+03  0.7818608E-02  0.1119789E+00
         21   -1    0    0  503  502  0.00000000000E+00  0.00000000000E+00  0.23130081843E+04  0.23130081843E+04  0.00000000000E+00 0.  1.
         21   -1    0    0  501  503 -0.00000000000E+00 -0.00000000000E+00 -0.25630195412E+02  0.25630195412E+02  0.00000000000E+00 0.  1.
          6    2    1    2  501    0 -0.50366897389E+02  0.15947054040E+03  0.93285817258E+03  0.96295263448E+03  0.17054538543E+03 0.  0.
         24    2    3    3    0    0 -0.89403536606E+02  0.68413569504E+02  0.60527330089E+03  0.62068202617E+03  0.78847954908E+02 0.  0.
         -6    2    1    2    0  502  0.50366897389E+02 -0.15947054040E+03  0.13545198163E+04  0.13756857453E+04  0.17268369715E+03 0.  0.
        -24    2    5    5    0    0  0.45426655370E+02 -0.16018848319E+03  0.13561113639E+04  0.13686469629E+04  0.80203159796E+02 0.  0.
          5    1    3    3  501    0  0.39036639217E+02  0.91056970893E+02  0.32758487169E+03  0.34227060830E+03  0.47000000000E+01 0. -1.
        -11    1    4    4    0    0 -0.28597135975E+02  0.40014744600E+02  0.43322537652E+03  0.43600826005E+03  0.00000000000E+00 0.  1.
         12    1    4    4    0    0 -0.60806400632E+02  0.28398824904E+02  0.17204792437E+03  0.18467376612E+03  0.00000000000E+00 0. -1.
         -5    1    5    5    0  502  0.49402420185E+01  0.71794279651E+00 -0.15915475132E+01  0.70387823199E+01  0.47000000000E+01 0.  1.
         13    1    6    6    0    0  0.29824521870E+02 -0.70362110857E+01  0.25146545932E+03  0.25332565524E+03  0.00000000000E+00 0. -1.
        -14    1    6    6    0    0  0.15602133500E+02 -0.15315227211E+03  0.11046459045E+04  0.11153213077E+04  0.00000000000E+00 0.  1.
</event>
<event>
12    1  0.8135779E-002  0.3496076E+03  0.7818608E-02  0.1062781E+00
         21   -1    0    0  503  502  0.00000000000E+00  0.00000000000E+00  0.31062829887E+03  0.31062829887E+03  0.00000000000E+00 0. -1.
         21   -1    0    0  501  503 -0.00000000000E+00 -0.00000000000E+00 -0.39813950772E+03  0.39813950772E+03  0.00000000000E+00 0.  1.
          6    2    1    2  501    0  0.30004860766E+03  0.50210154351E+02 -0.51898966770E+01  0.34959894969E+03  0.17216928888E+03 0.  0.
         24    2    3    3    0    0  0.16504164108E+03 -0.25739217645E+02 -0.43078412402E+02  0.19005955719E+03  0.79784929974E+02 0.  0.
         -6    2    1    2    0  502 -0.30004860766E+03 -0.50210154351E+02 -0.82321312170E+02  0.35916885691E+03  0.17226503642E+03 0.  0.
        -24    2    5    5    0    0 -0.20843937815E+03 -0.49924824971E+01  0.69264144198E+01  0.22343332183E+03  0.80016091154E+02 0.  0.
          5    1    3    3  501    0  0.13500696659E+03  0.75949371996E+02  0.37888515725E+02  0.15953939249E+03  0.47000000000E+01 0. -1.
        -11    1    4    4    0    0  0.27900240879E+02  0.18711826531E+02 -0.30452825412E+02  0.45342369467E+02  0.00000000000E+00 0.  1.
         12    1    4    4    0    0  0.13714140020E+03 -0.44451044176E+02 -0.12625586989E+02  0.14471718773E+03  0.00000000000E+00 0. -1.
         -5    1    5    5    0  502 -0.91609229514E+02 -0.45217671854E+02 -0.89247726589E+02  0.13573553507E+03  0.47000000000E+01 0.  1.
         11    1    6    6    0    0 -0.13863830583E+03 -0.39650097082E+02  0.15518714450E+02  0.14502944715E+03  0.00000000000E+00 0. -1.
        -12    1    6    6    0    0 -0.69801072322E+02  0.34657614585E+02 -0.85923000299E+01  0.78403874686E+02  0.00000000000E+00 0.  1.
</event>
<event>
12    1  0.8135779E-002  0.1896440E+03  0.7818608E-02  0.1158942E+00
         21   -1    0    0  503  502  0.00000000000E+00  0.00000000000E+00  0.10008907521E+04  0.10008907521E+04  0.00000000000E+00 0.  1.
         21   -1    0    0  501  503 -0.00000000000E+00 -0.00000000000E+00 -0.42569386821E+02  0.42569386821E+02  0.00000000000E+00 0.  1.
          6    2    1    2  501    0 -0.36368321528E+00 -0.79579660433E+02  0.27185191729E+03  0.33146388456E+03  0.17213886026E+03 0.  0.
         24    2    3    3    0    0 -0.50458656768E+02 -0.69708691458E+02  0.24933618140E+03  0.27546396700E+03  0.79413399705E+02 0.  0.
         -6    2    1    2    0  502  0.36368321528E+00  0.79579660433E+02  0.68646944798E+03  0.71199625436E+03  0.17136308992E+03 0.  0.
        -24    2    5    5    0    0  0.20994768353E+02 -0.18604576061E+02  0.38472867485E+03  0.39397837728E+03  0.80099300655E+02 0.  0.
          5    1    3    3  501    0  0.50094973553E+02 -0.98709689755E+01  0.22515735894E+02  0.55999917559E+02  0.47000000000E+01 0. -1.
        -13    1    4    4    0    0 -0.31077452547E+02 -0.42216514532E+02  0.47174071681E+02  0.70522586418E+02  0.00000000000E+00 0.  1.
         14    1    4    4    0    0 -0.19381204221E+02 -0.27492176926E+02  0.20216210972E+03  0.20494138058E+03  0.00000000000E+00 0. -1.
         -5    1    5    5    0  502 -0.20631085138E+02  0.98184236494E+02  0.30174077313E+03  0.31801787708E+03  0.47000000000E+01 0.  1.
         13    1    6    6    0    0 -0.41570796573E+01  0.38504901273E+01 -0.18280699265E+01  0.59539419844E+01  0.00000000000E+00 0. -1.
        -14    1    6    6    0    0  0.25151848010E+02 -0.22455066188E+02  0.38655674478E+03  0.38802443530E+03  0.00000000000E+00 0.  1.
</event>
<event>
12    1  0.8135779E-002  0.1774587E+03  0.7818608E-02  0.1173400E+00
         21   -1    0    0  503  502  0.00000000000E+00  0.00000000000E+00  0.12042666609E+03  0.12042666609E+03  0.00000000000E+00 0.  1.
         21   -1    0    0  501  503 -0.00000000000E+00 -0.00000000000E+00 -0.10535063676E+04  0.10535063676E+04  0.00000000000E+00 0.  1.
          6    2    1    2  501    0  0.11741112474E+02  0.35566615469E+02 -0.97719252885E+03  0.99107372730E+03  0.16099396458E+03 0.  0.
         24    2    3    3    0    0  0.25213399281E+02 -0.29532394353E+02 -0.38212938680E+03  0.39229028011E+03  0.79755362166E+02 0.  0.
         -6    2    1    2    0  502 -0.11741112474E+02 -0.35566615469E+02  0.44112827338E+02  0.18285930640E+03  0.17346108078E+03 0.  0.
        -24    2    5    5    0    0 -0.71085351213E+01 -0.86291935172E+02  0.56245250957E+02  0.13028740769E+03  0.79463519927E+02 0.  0.
          5    1    3    3  501    0 -0.13472286807E+02  0.65099009822E+02 -0.59506314205E+03  0.59878344718E+03  0.47000000000E+01 0. -1.
        -13    1    4    4    0    0 -0.29176211181E+02 -0.94646012091E+01 -0.13914188282E+03  0.14248260782E+03  0.00000000000E+00 0.  1.
         14    1    4    4    0    0  0.54389610463E+02 -0.20067793144E+02 -0.24298750398E+03  0.24980767230E+03  0.00000000000E+00 0. -1.
         -5    1    5    5    0  502 -0.46325773526E+01  0.50725319703E+02 -0.12132423619E+02  0.52571898717E+02  0.47000000000E+01 0.  1.
         11    1    6    6    0    0 -0.27875512628E+02 -0.91817580568E+02  0.44117518570E+02  0.10561187315E+03  0.00000000000E+00 0. -1.
        -12    1    6    6    0    0  0.20766977507E+02  0.55256453958E+01  0.12127732388E+02  0.24675534536E+02  0.00000000000E+00 0.  1.
</event>
<event>
12    1  0.8135779E-002  0.2629022E+03  0.7818608E-02  0.1105589E+00
         21   -1    0    0  501  502  0.00000000000E+00  0.00000000000E+00  0.35152728414E+03  0.35152728414E+03  0.00000000000E+00 0.  1.
         21   -1    0    0  502  503 -0.00000000000E+00 -0.00000000000E+00 -0.29379073151E+03  0.29379073151E+03  0.00000000000E+00 0. -1.
         -6    2    1    2    0  503  0.19818766061E+03  0.87403947951E+01 -0.15758775468E+03  0.30549138442E+03  0.17069370877E+03 0.  0.
        -24    2    3    3    0    0  0.16902437028E+03  0.19408417345E+02 -0.18536847413E+03  0.26356093509E+03  0.78466367892E+02 0.  0.
          6    2    1    2  501    0 -0.19818766061E+03 -0.87403947951E+01  0.21532430730E+03  0.33982663122E+03  0.17251909649E+03 0.  0.
         24    2    5    5    0    0 -0.95184864693E+02  0.15106350914E+02  0.19536145009E+03  0.23212867899E+03  0.80182710868E+02 0.  0.
          5    1    5    5  501    0 -0.10300279592E+03 -0.23846745709E+02  0.19962857209E+02  0.10769795224E+03  0.47000000000E+01 0. -1.
        -11    1    6    6    0    0  0.80007274654E+01  0.12168566435E+02  0.46767490117E+01  0.15295673583E+02  0.00000000000E+00 0.  1.
         12    1    6    6    0    0 -0.10318559216E+03  0.29377844791E+01  0.19068470108E+03  0.21683300540E+03  0.00000000000E+00 0. -1.
         -5    1    3    3    0  503  0.29163290327E+02 -0.10668022550E+02  0.27780719456E+02  0.41930449333E+02  0.47000000000E+01 0.  1.
         11    1    4    4    0    0  0.85929410848E+02  0.35924688963E+02 -0.13802583807E+03  0.16650999640E+03  0.00000000000E+00 0. -1.
        -12    1    4    4    0    0  0.83094959437E+02 -0.16516271617E+02 -0.47342636064E+02  0.97050938694E+02  0.00000000000E+00 0.  1.
</event>
<event>
12    1  0.8135779E-002  0.1939185E+03  0.7818608E-02  0.1154996E+00
         21   -1    0    0  501  502  0.00000000000E+00  0.00000000000E+00  0.11644045958E+03  0.11644045958E+03  0.00000000000E+00 0. -1.
         21   -1    0    0  502  503 -0.00000000000E+00 -0.00000000000E+00 -0.84028361413E+03  0.84028361413E+03  0.00000000000E+00 0. -1.
         -6    2    1    2    0  503  0.62514972698E+02 -0.62819261353E+02 -0.73736094487E+03  0.76243395364E+03  0.17248185188E+03 0.  0.
        -24    2    3    3    0    0  0.93454720708E+02 -0.11163988794E+02 -0.59896849850E+03  0.61143695233E+03  0.78952295815E+02 0.  0.
          6    2    1    2  501    0 -0.62514972698E+02  0.62819261353E+02  0.13517790326E+02  0.19429012007E+03  0.17237035329E+03 0.  0.
         24    2    5    5    0    0 -0.73200253433E+02  0.91072101382E+02 -0.26170634227E+02  0.14419362082E+03  0.80339862060E+02 0.  0.
          5    1    5    5  501    0  0.10685280736E+02 -0.28252840029E+02  0.39688424553E+02  0.50096499255E+02  0.47000000000E+01 0. -1.
        -11    1    6    6    0    0 -0.46433998739E+02  0.11484936157E+02  0.15728574632E+02  0.50352835644E+02  0.00000000000E+00 0.  1.
         12    1    6    6    0    0 -0.26766254694E+02  0.79587165225E+02 -0.41899208860E+02  0.93840785174E+02  0.00000000000E+00 0. -1.
         -5    1    3    3    0  503 -0.30939748010E+02 -0.51655272558E+02 -0.13839244637E+03  0.15099700130E+03  0.47000000000E+01 0. -1.
         11    1    4    4    0    0  0.41590719546E+02  0.33491491806E+02 -0.30195149697E+03  0.30663687727E+03  0.00000000000E+00 0. -1.
        -12    1    4    4    0    0  0.51864001162E+02 -0.44655480600E+02 -0.29701700153E+03  0.30480007507E+03  0.00000000000E+00 0.  1.
</event>
<event>
12    1  0.8135779E-002  0.1898806E+03  0.7818608E-02  0.1158638E+00
         21   -1    0    0  503  502  0.00000000000E+00  0.00000000000E+00  0.90885847488E+01  0.90885847488E+01  0.00000000000E+00 0.  1.
         21   -1    0    0  501  503 -0.00000000000E+00 -0.00000000000E+00 -0.40756625460E+04  0.40756625460E+04  0.00000000000E+00 0.  1.
          6    2    1    2  501    0  0.53539570356E+02 -0.63615465600E+02 -0.23748009598E+04  0.23823556068E+04  0.17036791267E+03 0.  0.
         24    2    3    3    0    0 -0.35472483330E+02 -0.19943213214E+02 -0.11501433944E+04  0.11536820725E+04  0.80600670164E+02 0.  0.
         -6    2    1    2    0  502 -0.53539570356E+02  0.63615465600E+02 -0.16917730014E+04  0.17023955239E+04  0.17070799151E+03 0.  0.
        -24    2    5    5    0    0 -0.96345968310E+02  0.63567313649E+02 -0.14494151733E+04  0.14562415134E+04  0.80694806559E+02 0.  0.
          5    1    3    3  501    0  0.89012053685E+02 -0.43672252387E+02 -0.12246575654E+04  0.12286735343E+04  0.47000000000E+01 0. -1.
        -13    1    4    4    0    0 -0.30413461630E+02 -0.34926601280E+02 -0.31474739068E+03  0.31813639538E+03  0.00000000000E+00 0.  1.
         14    1    4    4    0    0 -0.50590216994E+01  0.14983388067E+02 -0.83539600371E+03  0.83554567716E+03  0.00000000000E+00 0. -1.
         -5    1    5    5    0  502  0.42806397955E+02  0.48151950991E-01 -0.24235782809E+03  0.24615401045E+03  0.47000000000E+01 0.  1.
         13    1    6    6    0    0 -0.61775062168E+02  0.76403295697E+02 -0.12123979478E+04  0.12163726426E+04  0.00000000000E+00 0. -1.
        -14    1    6    6    0    0 -0.34570906142E+02 -0.12835982047E+02 -0.23701722555E+03  0.23986887083E+03  0.00000000000E+00 0.  1.
</event>
<event>
12    1  0.8135779E-002  0.1782648E+03  0.7818608E-02  0.1169668E+00
         21   -1    0    0  501  502  0.00000000000E+00  0.00000000000E+00  0.60612942838E+03  0.60612942838E+03  0.00000000000E+00 0.  1.
         21   -1    0    0  502  503 -0.00000000000E+00 -0.00000000000E+00 -0.27054592393E+03  0.27054592393E+03  0.00000000000E+00 0.  1.
         -6    2    1    2    0  503 -0.37325760809E+02 -0.22838378446E+02 -0.22591244886E+03  0.28777555530E+03  0.17281068175E+03 0.  0.
        -24    2    3    3    0    0 -0.65125525358E+02 -0.61432423425E+02 -0.20128852474E+03  0.23400981475E+03  0.78919240425E+02 0.  0.
          6    2    1    2  501    0  0.37325760809E+02  0.22838378446E+02  0.56149595332E+03  0.58889979702E+03  0.17207690544E+03 0.  0.
         24    2    5    5    0    0 -0.12502364933E+02 -0.23594993007E+02  0.16116760926E+03  0.18279171638E+03  0.82004758892E+02 0.  0.
          5    1    5    5  501    0  0.49828125743E+02  0.46433371453E+02  0.40032834406E+03  0.40610808063E+03  0.47000000000E+01 0. -1.
        -11    1    6    6    0    0 -0.32489147685E+02 -0.39400098728E+02  0.14200823319E+03  0.15091140047E+03  0.00000000000E+00 0.  1.
         12    1    6    6    0    0  0.19986782752E+02  0.15805105721E+02  0.19159376064E+02  0.31880315914E+02  0.00000000000E+00 0. -1.
         -5    1    3    3    0  503  0.27799764549E+02  0.38594044979E+02 -0.24623924122E+02  0.53765740541E+02  0.47000000000E+01 0.  1.
         13    1    4    4    0    0  0.45162965041E+01 -0.19910648137E+00  0.56543315791E+01  0.72393399637E+01  0.00000000000E+00 0. -1.
        -14    1    4    4    0    0 -0.69641821862E+02 -0.61233316943E+02 -0.20694285632E+03  0.22677047479E+03  0.00000000000E+00 0.  1.
</event>
<event>
12    1  0.8135779E-002  0.2607139E+03  0.7818608E-02  0.1106770E+00
         21   -1    0    0  501  502  0.00000000000E+00  0.00000000000E+00  0.47722375545E+03  0.47722375545E+03  0.00000000000E+00 0. -1.
         21   -1    0    0  502  503 -0.00000000000E+00 -0.00000000000E+00 -0.14712645718E+03  0.14712645718E+03  0.00000000000E+00 0.  1.
         -6    2    1    2    0  503  0.19029766201E+03 -0.42066627971E+02  0.22187775328E+03  0.34206808099E+03  0.17262106846E+03 0.  0.
        -24    2    3    3    0    0  0.13390809677E+03  0.10098612464E+02  0.69384148175E+02  0.17125419111E+03  0.80501413667E+02 0.  0.
          6    2    1    2  501    0 -0.19029766201E+03  0.42066627971E+02  0.10821954499E+03  0.28228213164E+03  0.17317312311E+03 0.  0.
         24    2    5    5    0    0 -0.10379829403E+03  0.21165432322E+02  0.13498967685E+03  0.18923520476E+03  0.79785264895E+02 0.  0.
          5    1    5    5  501    0 -0.86499367980E+02  0.20901195649E+02 -0.26770131866E+02  0.93046926873E+02  0.47000000000E+01 0. -1.
        -13    1    6    6    0    0 -0.36373518688E+02  0.27791337227E+02  0.96864758413E+01  0.46789091686E+02  0.00000000000E+00 0.  1.
         14    1    6    6    0    0 -0.67424775347E+02 -0.66259049055E+01  0.12530320101E+03  0.14244611308E+03  0.00000000000E+00 0. -1.
         -5    1    3    3    0  503  0.56389565248E+02 -0.52165240436E+02  0.15249360510E+03  0.17081388988E+03  0.47000000000E+01 0.  1.
         13    1    4    4    0    0  0.16776264729E+02 -0.11928276908E+02  0.45163160777E+02  0.49633032746E+02  0.00000000000E+00 0. -1.
        -14    1    4    4    0    0  0.11713183204E+03  0.22026889373E+02  0.24220987399E+02  0.12162115837E+03  0.00000000000E+00 0.  1.
</event>
<event>
12    1  0.8135779E-002  0.2128035E+03  0.7818608E-02  0.1139671E+00
         21   -1    0    0  503  502  0.00000000000E+00  0.00000000000E+00  0.10059117800E+03  0.10059117800E+03  0.00000000000E+00 0.  1.
         21   -1    0    0  501  503 -0.00000000000E+00 -0.00000000000E+00 -0.46413466018E+03  0.46413466018E+03  0.00000000000E+00 0. -1.
          6    2    1    2  501    0 -0.84595115502E+02 -0.89686978481E+02 -0.12797686581E+03  0.24832118868E+03  0.17345099276E+03 0.  0.
         24    2    3    3    0    0 -0.28604548363E+02  0.22441032965E+02 -0.45988631901E+02  0.98481957976E+02  0.79132304624E+02 0.  0.
         -6    2    1    2    0  502  0.84595115502E+02  0.89686978481E+02 -0.23556661638E+03  0.31640464950E+03  0.17152312904E+03 0.  0.
        -24    2    5    5    0    0  0.21742719933E+02  0.11399610868E+03 -0.18175823157E+03  0.23004036454E+03  0.80091547062E+02 0.  0.
          5    1    3    3  501    0 -0.55990567140E+02 -0.11212801145E+03 -0.81988233905E+02  0.14983923071E+03  0.47000000000E+01 0. -1.
        -11    1    4    4    0    0 -0.13086446373E+02 -0.18600361988E+02  0.12039310836E+02  0.25732733049E+02  0.00000000000E+00 0.  1.
         12    1    4    4    0    0 -0.15518101989E+02  0.41041394954E+02 -0.58027942738E+02  0.72749224927E+02  0.00000000000E+00 0. -1.
         -5    1    5    5    0  502  0.62852395570E+02 -0.24309130200E+02 -0.53808384813E+02  0.86364284957E+02  0.47000000000E+01 0.  1.
         11    1    6    6    0    0  0.61742775746E+01  0.68007820839E+02 -0.37662667665E+02  0.77985010960E+02  0.00000000000E+00 0. -1.
        -12    1    6    6    0    0  0.15568442358E+02  0.45988287842E+02 -0.14409556390E+03  0.15205535358E+03  0.00000000000E+00 0.  1.
</event>
<event>
12    1  0.8135779E-002  0.2557150E+03  0.7818608E-02  0.1109943E+00
         21   -1    0    0  503  502  0.00000000000E+00  0.00000000000E+00  0.10047427078E+03  0.10047427078E+03  0.00000000000E+00 0. -1.
         21   -1    0    0  501  503 -0.00000000000E+00 -0.00000000000E+00 -0.76680503303E+03  0.76680503303E+03  0.00000000000E+00 0.  1.
          6    2    1    2  501    0 -0.13778011220E+03 -0.12767008328E+03 -0.50346712587E+03  0.56410492499E+03  0.17161646215E+03 0.  0.
         24    2    3    3    0    0 -0.54863140668E+02  0.64970324326E+01 -0.20576966648E+03  0.22717480400E+03  0.78835653683E+02 0.  0.
         -6    2    1    2    0  502  0.13778011220E+03  0.12767008328E+03 -0.16286363638E+03  0.30317437883E+03  0.17351406410E+03 0.  0.
        -24    2    5    5    0    0  0.30464211481E+02  0.10740200068E+03 -0.49322977492E+02  0.14556388127E+03  0.79327356508E+02 0.  0.
          5    1    3    3  501    0 -0.82916971535E+02 -0.13416711571E+03 -0.29769745939E+03  0.33693012099E+03  0.47000000000E+01 0. -1.
        -13    1    4    4    0    0 -0.56170764106E+02 -0.12200754676E+02 -0.19917766096E+03  0.20730594246E+03  0.00000000000E+00 0.  1.
         14    1    4    4    0    0  0.13076234374E+01  0.18697787109E+02 -0.65920055235E+01  0.19868861534E+02  0.00000000000E+00 0. -1.
         -5    1    5    5    0  502  0.10731590072E+03  0.20268082601E+02 -0.11354065888E+03  0.15761049756E+03  0.47000000000E+01 0.  1.
         11    1    6    6    0    0  0.45497595753E+02  0.11095448760E+03 -0.36117731256E+02  0.12524144701E+03  0.00000000000E+00 0. -1.
        -12    1    6    6    0    0 -0.15033384272E+02 -0.35524869231E+01 -0.13205246236E+02  0.20322434258E+02  0.00000000000E+00 0.  1.
</event>
<event>
12    1  0.8135779E-002  0.2840731E+03  0.7818608E-02  0.1093510E+00
         21   -1    0    0  503  502  0.00000000000E+00  0.00000000000E+00  0.27688711766E+03  0.27688711766E+03  0.00000000000E+00 0.  1.
         21   -1    0    0  501  503 -0.00000000000E+00 -0.00000000000E+00 -0.32472424394E+03  0.32472424394E+03  0.00000000000E+00 0. -1.
          6    2    1    2  501    0 -0.20110072168E+03  0.10341613665E+03 -0.12048415798E+03  0.30839619535E+03  0.17162570728E+03 0.  0.
         24    2    3    3    0    0 -0.39263852191E+02 -0.61697093009E+01 -0.29732951583E+02  0.92854780711E+02  0.78474495789E+02 0.  0.
         -6    2    1    2    0  502  0.20110072168E+03 -0.10341613665E+03  0.72647031704E+02  0.29321516626E+03  0.17193354800E+03 0.  0.
        -24    2    5    5    0    0  0.21037020638E+03 -0.55433062348E+02  0.40584995235E+02  0.23457761047E+03  0.77788594029E+02 0.  0.
          5    1    3    3  501    0 -0.16183686949E+03  0.10958584595E+03 -0.90751206399E+02  0.21554141463E+03  0.47000000000E+01 0. -1.
        -11    1    4    4    0    0 -0.32198241398E+02 -0.31099520826E+02 -0.44425249917E+02  0.63067501734E+02  0.00000000000E+00 0.  1.
         12    1    4    4    0    0 -0.70656107930E+01  0.24929811525E+02  0.14692298334E+02  0.29787278978E+02  0.00000000000E+00 0. -1.
         -5    1    5    5    0  502 -0.92694847007E+01 -0.47983074304E+02  0.32062036469E+02  0.58637555788E+02  0.47000000000E+01 0.  1.
         11    1    6    6    0    0  0.40556704636E+01 -0.17097624281E+02 -0.78005879942E+01  0.19225670131E+02  0.00000000000E+00 0. -1.
        -12    1    6    6    0    0  0.20631453592E+03 -0.38335438068E+02  0.48385583229E+02  0.21535194034E+03  0.00000000000E+00 0.  1.
</event>
<event>
12    1  0.8135779E-002  0.2982403E+03  0.7818608E-02  0.1086618E+00
         21   -1    0    0  501  502  0.00000000000E+00  0.00000000000E+00  0.34425588024E+03  0.34425588024E+03  0.00000000000E+00 0.  1.
         21   -1    0    0  502  503 -0.00000000000E+00 -0.00000000000E+00 -0.41741163257E+03  0.41741163257E+03  0.00000000000E+00 0.  1.
         -6    2    1    2    0  503  0.13584792283E+03  0.19724059111E+03 -0.27427081646E+03  0.40518110518E+03  0.17773220957E+03 0.  0.
        -24    2    3    3    0    0  0.37321241775E+02  0.60608635633E+02 -0.18639241375E+03  0.21512716074E+03  0.80444276258E+02 0.  0.
          6    2    1    2  501    0 -0.13584792283E+03 -0.19724059111E+03  0.20111506413E+03  0.35648640762E+03  0.17110459049E+03 0.  0.
         24    2    5    5    0    0 -0.51887441308E+02 -0.18480306090E+03  0.14558672811E+03  0.25495049912E+03  0.83425318197E+02 0.  0.
          5    1    5    5  501    0 -0.83960481521E+02 -0.12437530205E+02  0.55528336010E+02  0.10153590850E+03  0.47000000000E+01 0. -1.
        -13    1    6    6    0    0 -0.72619436677E+02 -0.11523950663E+03  0.86519162911E+02  0.16136694836E+03  0.00000000000E+00 0.  1.
         14    1    6    6    0    0  0.20731995368E+02 -0.69563554269E+02  0.59067565204E+02  0.93583550764E+02  0.00000000000E+00 0. -1.
         -5    1    3    3    0  503  0.98526681054E+02  0.13663195547E+03 -0.87878402704E+02  0.19005394444E+03  0.47000000000E+01 0.  1.
         11    1    4    4    0    0  0.47728984955E+02  0.46399810774E+02 -0.18595363195E+03  0.19750886481E+03  0.00000000000E+00 0. -1.
        -12    1    4    4    0    0 -0.10407743180E+02  0.14208824859E+02 -0.43878180499E+00  0.17618295929E+02  0.00000000000E+00 0.  1.
</event>
<event>
12    1  0.8135779E-002  0.1974735E+03  0.7818608E-02  0.1152056E+00
         21   -1    0    0  501  502  0.00000000000E+00  0.00000000000E+00  0.24984194556E+03  0.24984194556E+03  0.00000000000E+00 0.  1.
         21   -1    0    0  502  503 -0.00000000000E+00 -0.00000000000E+00 -0.17017218345E+03  0.17017218345E+03  0.00000000000E+00 0.  1.
         -6    2    1    2    0  503  0.94579268143E+02 -0.16070126874E+02 -0.21974713070E+02  0.19791641832E+03  0.17171061029E+03 0.  0.
        -24    2    3    3    0    0  0.24397349149E+02  0.19034258493E+02  0.39476607233E+02  0.98135786972E+02  0.84348660476E+02 0.  0.
          6    2    1    2  501    0 -0.94579268143E+02  0.16070126874E+02  0.10164447518E+03  0.22209771069E+03  0.17260448087E+03 0.  0.
         24    2    5    5    0    0 -0.11248933277E+03 -0.36976261074E+02  0.81918604868E+02  0.16255033754E+03  0.75437792521E+02 0.  0.
          5    1    5    5  501    0  0.17910064627E+02  0.53046387948E+02  0.19725870313E+02  0.59547373148E+02  0.47000000000E+01 0. -1.
        -11    1    6    6    0    0 -0.12105005159E+03 -0.21834457479E+02  0.71519413771E+02  0.14228452154E+03  0.00000000000E+00 0.  1.
         12    1    6    6    0    0  0.85607188173E+01 -0.15141803595E+02  0.10399191097E+02  0.20265816002E+02  0.00000000000E+00 0. -1.
         -5    1    3    3    0  503  0.70181918994E+02 -0.35104385367E+02 -0.61451320304E+02  0.99780631350E+02  0.47000000000E+01 0.  1.
         13    1    4    4    0    0  0.23070912028E+02  0.51880672089E+02  0.28079631844E+02  0.63343009423E+02  0.00000000000E+00 0. -1.
        -14    1    4    4    0    0  0.13264371206E+01 -0.32846413596E+02  0.11396975390E+02  0.34792777549E+02  0.00000000000E+00 0.  1.
</event>
<event>
12    1  0.8135779E-002  0.3179841E+03  0.7818608E-02  0.1076656E+00
         21   -1    0    0  503  502  0.00000000000E+00  0.00000000000E+00  0.46460925248E+03  0.46460925248E+03  0.00000000000E+00 0. -1.
         21   -1    0    0  501  503 -0.00000000000E+00 -0.00000000000E+00 -0.41006946651E+03  0.41006946651E+03  0.00000000000E+00 0. -1.
          6    2    1    2  501    0  0.15592478376E+03 -0.21707792240E+03 -0.27265637788E+03  0.41887394182E+03  0.17227453716E+03 0.  0.
         24    2    3    3    0    0  0.17036505387E+02 -0.74454208151E+02 -0.55508102275E+02  0.12424376459E+03  0.80756993474E+02 0.  0.
         -6    2    1    2    0  502 -0.15592478376E+03  0.21707792240E+03  0.32719616386E+03  0.45580477717E+03  0.17107104567E+03 0.  0.
        -24    2    5    5    0    0 -0.14481246365E+03  0.20770109125E+03  0.21266007802E+03  0.34025386380E+03  0.80237086900E+02 0.  0.
          5    1    3    3  501    0  0.13888827837E+03 -0.14262371425E+03 -0.21714827560E+03  0.29463017723E+03  0.47000000000E+01 0. -1.
        -13    1    4    4    0    0 -0.18307272336E+02 -0.24980894165E+02 -0.55369050881E+02  0.63442360368E+02  0.00000000000E+00 0.  1.
         14    1    4    4    0    0  0.35343777723E+02 -0.49473313986E+02 -0.13905139468E+00  0.60801404225E+02  0.00000000000E+00 0. -1.
         -5    1    5    5    0  502 -0.11112320112E+02  0.93768311435E+01  0.11453608584E+03  0.11555091337E+03  0.47000000000E+01 0.  1.
         13    1    6    6    0    0 -0.28521408811E+02  0.77471902081E+02  0.30702152755E+02  0.88079444574E+02  0.00000000000E+00 0. -1.
        -14    1    6    6    0    0 -0.11629105484E+03  0.13022918917E+03  0.18195792526E+03  0.25217441923E+03  0.00000000000E+00 0.  1.
</event>
<event>
12    1  0.8135779E-002  0.1855283E+03  0.7818608E-02  0.1162967E+00
         21   -1    0    0  503  502  0.00000000000E+00  0.00000000000E+00  0.13633251680E+03  0.13633251680E+03  0.00000000000E+00 0. -1.
         21   -1    0    0  501  503 -0.00000000000E+00 -0.00000000000E+00 -0.79760182012E+03  0.79760182012E+03  0.00000000000E+00 0. -1.
          6    2    1    2  501    0  0.35306391863E+01  0.66755095177E+02 -0.71801586079E+03  0.74159795097E+03  0.17306656635E+03 0.  0.
         24    2    3    3    0    0  0.57396512551E+02  0.80331588298E+02 -0.44796109720E+03  0.46584893680E+03  0.81231542995E+02 0.  0.
         -6    2    1    2    0  502 -0.35306391863E+01 -0.66755095177E+02  0.56746557464E+02  0.19233638595E+03  0.17118529560E+03 0.  0.
        -24    2    5    5    0    0 -0.16701274049E+02 -0.30589767670E+02 -0.33570693368E+02  0.94047564946E+02  0.80642957399E+02 0.  0.
          5    1    3    3  501    0 -0.53865873365E+02 -0.13576493121E+02 -0.27005476359E+03  0.27574901417E+03  0.47000000000E+01 0. -1.
        -11    1    4    4    0    0  0.12781907089E-01  0.53609118245E+02 -0.11444465356E+03  0.12637846514E+03  0.00000000000E+00 0.  1.
         12    1    4    4    0    0  0.57383730644E+02  0.26722470053E+02 -0.33351644365E+03  0.33947047166E+03  0.00000000000E+00 0. -1.
         -5    1    5    5    0  502  0.13170634863E+02 -0.36165327506E+02  0.90317250832E+02  0.98288821003E+02  0.47000000000E+01 0.  1.
         11    1    6    6    0    0 -0.28019419337E+02 -0.50930557882E+02 -0.67275458790E+01  0.58517257794E+02  0.00000000000E+00 0. -1.
        -12    1    6    6    0    0  0.11318145288E+02  0.20340790212E+02 -0.26843147489E+02  0.35530307152E+02  0.00000000000E+00 0.  1.
</event>
<event>
12    1  0.8135779E-002  0.1848292E+03  0.7818608E-02  0.1163660E+00
         21   -1    0    0  503  502  0.00000000000E+00  0.00000000000E+00  0.10954518314E+03  0.10954518314E+03  0.00000000000E+00 0. -1.
         21   -1    0    0  501  503 -0.00000000000E+00 -0.00000000000E+00 -0.30959269997E+03  0.30959269997E+03  0.00000000000E+00 0. -1.
          6    2    1    2  501    0  0.50735873694E+01  0.66392155301E+02 -0.11119754878E+03  0.21406189846E+03  0.17036414513E+03 0.  0.
         24    2    3    3    0    0  0.10898245184E+02 -0.31207863338E+02 -0.60846049654E+02  0.10398440875E+03  0.77574564275E+02 0.  0.
         -6    2    1    2    0  502 -0.50735873694E+01 -0.66392155301E+02 -0.88849968058E+02  0.20507598465E+03  0.17241862742E+03 0.  0.
        -24    2    5    5    0    0 -0.58523553280E+02 -0.11504370245E+02 -0.96191633060E+01  0.94761986324E+02  0.73006499205E+02 0.  0.
          5    1    3    3  501    0 -0.58246578147E+01  0.97600018639E+02 -0.50351499123E+02  0.11007748971E+03  0.47000000000E+01 0. -1.
        -11    1    4    4    0    0  0.11892320210E+02 -0.27523094580E+02  0.11074727574E+02  0.31962440553E+02  0.00000000000E+00 0.  1.
         12    1    4    4    0    0 -0.99407502587E+00 -0.36847687578E+01 -0.71920777228E+02  0.72021968197E+02  0.00000000000E+00 0. -1.
         -5    1    5    5    0  502  0.53449965910E+02 -0.54887785056E+02 -0.79230804752E+02  0.11031399832E+03  0.47000000000E+01 0.  1.
         11    1    6    6    0    0 -0.12609882174E+02 -0.62854994096E+01  0.30480612410E+02  0.33579522989E+02  0.00000000000E+00 0. -1.
        -12    1    6    6    0    0 -0.45913671106E+02 -0.52188708355E+01 -0.40099775716E+02  0.61182463335E+02  0.00000000000E+00 0.  1.
</event>
<event>
12    1  0.8135779E-002  0.1907006E+03  0.7818608E-02  0.1157929E+00
         21   -1    0    0  501  502  0.00000000000E+00  0.00000000000E+00  0.19874081056E+02  0.19874081056E+02  0.00000000000E+00 0. -1.
         21   -1    0    0  502  503 -0.00000000000E+00 -0.00000000000E+00 -0.18890389388E+04  0.18890389388E+04  0.00000000000E+00 0. -1.
         -6    2    1    2    0  503  0.75910639250E+02 -0.28479323218E+02 -0.11104136080E+04  0.11266699152E+04  0.17260712629E+03 0.  0.
        -24    2    3    3    0    0  0.62601157535E+02  0.30938741266E+01 -0.10640215441E+04  0.10688052223E+04  0.79210352525E+02 0.  0.
          6    2    1    2  501    0 -0.75910639250E+02  0.28479323218E+02 -0.75875124972E+03  0.78224310461E+03  0.17212588053E+03 0.  0.
         24    2    5    5    0    0 -0.33529562101E+01  0.76506565974E+01 -0.60952194398E+03  0.61494120260E+03  0.81030288202E+02 0.  0.
          5    1    5    5  501    0 -0.72557683040E+02  0.20828666621E+02 -0.14922930575E+03  0.16730190201E+03  0.47000000000E+01 0. -1.
        -11    1    6    6    0    0  0.16305307338E+02 -0.30401738947E+02 -0.17900324796E+03  0.18229726152E+03  0.00000000000E+00 0.  1.
         12    1    6    6    0    0 -0.19658263548E+02  0.38052395544E+02 -0.43051869602E+03  0.43264394108E+03  0.00000000000E+00 0. -1.
         -5    1    3    3    0  503  0.13309481715E+02 -0.31573197345E+02 -0.46392063927E+02  0.57864692944E+02  0.47000000000E+01 0.  1.
         13    1    4    4    0    0  0.47616754166E+02 -0.30327837460E+02 -0.42476233885E+03  0.42849758168E+03  0.00000000000E+00 0. -1.
        -14    1    4    4    0    0  0.14984403368E+02  0.33421711587E+02 -0.63925920525E+03  0.64030764062E+03  0.00000000000E+00 0.  1.
</event>
<event>
12    1  0.8135779E-002  0.2055388E+03  0.7818608E-02  0.1145218E+00
         21   -1    0    0  501  502  0.00000000000E+00  0.00000000000E+00  0.29332417875E+03  0.29332417875E+03  0.00000000000E+00 0. -1.
         21   -1    0    0  502  503 -0.00000000000E+00 -0.00000000000E+00 -0.22756206657E+03  0.22756206657E+03  0.00000000000E+00 0.  1.
         -6    2    1    2    0  503  0.97967550103E+02  0.53524870525E+02  0.19088899144E+03  0.28025595062E+03  0.17216921375E+03 0.  0.
        -24    2    3    3    0    0 -0.10686146081E+02  0.51505400088E+02  0.63359785143E+02  0.11263885001E+03  0.76850817842E+02 0.  0.
          6    2    1    2  501    0 -0.97967550103E+02 -0.53524870525E+02 -0.12512687926E+03  0.24063029470E+03  0.17257940253E+03 0.  0.
         24    2    5    5    0    0 -0.17415550357E+02 -0.86791543272E+02 -0.74674084087E+02  0.13981923023E+03  0.78339804255E+02 0.  0.
          5    1    5    5  501    0 -0.80551999746E+02  0.33266672748E+02 -0.50452795176E+02  0.10081106447E+03  0.47000000000E+01 0. -1.
        -11    1    6    6    0    0  0.13549131883E+02 -0.49495279473E+02 -0.75557537312E+02  0.91336209192E+02  0.00000000000E+00 0.  1.
         12    1    6    6    0    0 -0.30964682240E+02 -0.37296263799E+02  0.88345322523E+00  0.48483021040E+02  0.00000000000E+00 0. -1.
         -5    1    3    3    0  503  0.10865369618E+03  0.20194704369E+01  0.12752920630E+03  0.16761710060E+03  0.47000000000E+01 0.  1.
         13    1    4    4    0    0 -0.18829472559E+02  0.48894702632E+02  0.79010309345E+02  0.94804377352E+02  0.00000000000E+00 0. -1.
        -14    1    4    4    0    0  0.81433264786E+01  0.26106974553E+01 -0.15650524202E+02  0.17834472662E+02  0.00000000000E+00 0.  1.
</event>
<event>
12    1  0.8135779E-002  0.2191610E+03  0.7818608E-02  0.1134722E+00
         21   -1    0    0  501  502  0.00000000000E+00  0.00000000000E+00  0.66495690361E+02  0.66495690361E+02  0.00000000000E+00 0.  1.
         21   -1    0    0  502  503 -0.00000000000E+00 -0.00000000000E+00 -0.73022331040E+03  0.73022331040E+03  0.00000000000E+00 0. -1.
         -6    2    1    2    0  503 -0.44007331576E+02  0.12412180096E+03 -0.28080754905E+03  0.35551687273E+03  0.17377140297E+03 0.  0.
        -24    2    3    3    0    0 -0.64543258172E+02  0.10887450294E+03 -0.11860071702E+03  0.19123860048E+03  0.80539323748E+02 0.  0.
          6    2    1    2  501    0  0.44007331576E+02 -0.12412180096E+03 -0.38292007099E+03  0.44120212803E+03  0.17518182070E+03 0.  0.
         24    2    5    5    0    0 -0.10039967682E+02 -0.14001260559E+03 -0.26263902476E+03  0.30829897415E+03  0.79778878540E+02 0.  0.
          5    1    5    5  501    0  0.54047299258E+02  0.15890804627E+02 -0.12028104623E+03  0.13290315388E+03  0.47000000000E+01 0. -1.
        -11    1    6    6    0    0 -0.29754332752E+02 -0.27733426734E+02 -0.34790863603E+02  0.53524456710E+02  0.00000000000E+00 0.  1.
         12    1    6    6    0    0  0.19714365071E+02 -0.11227917885E+03 -0.22784816116E+03  0.25477451744E+03  0.00000000000E+00 0. -1.
         -5    1    3    3    0  503  0.20535926595E+02  0.15247298022E+02 -0.16220683203E+03  0.16427827225E+03  0.47000000000E+01 0.  1.
         13    1    4    4    0    0 -0.17046797239E+02  0.16809214438E+01 -0.55517603593E+02  0.58100112751E+02  0.00000000000E+00 0. -1.
        -14    1    4    4    0    0 -0.47496460933E+02  0.10719358149E+03 -0.63083113428E+02  0.13313848773E+03  0.00000000000E+00 0.  1.
</event>
<event>
12    1  0.8135779E-002  0.2445669E+03  0.7818608E-02  0.1116868E+00
         21   -1    0    0  503  502  0.00000000000E+00  0.00000000000E+00  0.31697089358E+03  0.31697089358E+03  0.00000000000E+00 0.  1.
         21   -1    0    0  501  503 -0.00000000000E+00 -0.00000000000E+00 -0.19617878796E+03  0.19617878796E+03  0.00000000000E+00 0.  1.
          6    2    1    2  501    0  0.99413056607E+02 -0.14375339275E+03  0.11169451038E+03  0.26841365610E+03  0.17035913060E+03 0.  0.
         24    2    3    3    0    0  0.57192151668E+02 -0.11548364363E+03  0.49958598036E+01  0.15014077009E+03  0.76875731349E+02 0.  0.
         -6    2    1    2    0  502 -0.99413056607E+02  0.14375339275E+03  0.90975952446E+01  0.24473602544E+03  0.17107005045E+03 0.  0.
        -24    2    5    5    0    0  0.15767690714E+01  0.99380069985E+02 -0.23198514756E+02  0.12970096390E+03  0.80033020924E+02 0.  0.
          5    1    3    3  501    0  0.42220904939E+02 -0.28269749121E+02  0.10669865058E+03  0.11827288601E+03  0.47000000000E+01 0. -1.
        -13    1    4    4    0    0 -0.98964086867E+01 -0.65801977793E+02  0.38090574157E+01  0.66650942264E+02  0.00000000000E+00 0.  1.
         14    1    4    4    0    0  0.67088560355E+02 -0.49681665833E+02  0.11868023878E+01  0.83489827826E+02  0.00000000000E+00 0. -1.
         -5    1    5    5    0  502 -0.10098982568E+03  0.44373322762E+02  0.32296110001E+02  0.11503506154E+03  0.47000000000E+01 0.  1.
         11    1    6    6    0    0 -0.23314637284E+02  0.97766761679E+02 -0.27920602263E+02  0.10431429447E+03  0.00000000000E+00 0. -1.
        -12    1    6    6    0    0  0.24891406355E+02  0.16133083059E+01  0.47220875070E+01  0.25386669424E+02  0.00000000000E+00 0.  1.
</event>
<event>
12    1  0.8135779E-002  0.1970694E+03  0.7818608E-02  0.1153334E+00
         21   -1    0    0  501  502  0.00000000000E+00  0.00000000000E+00  0.28342060169E+02  0.28342060169E+02  0.00000000000E+00 0. -1.
         21   -1    0    0  502  503 -0.00000000000E+00 -0.00000000000E+00 -0.17951560167E+04  0.17951560167E+04  0.00000000000E+00 0.  1.
         -6    2    1    2    0  503 -0.71587075335E+02  0.45940600244E+02 -0.13362522613E+04  0.13499796470E+04  0.17216182332E+03 0.  0.
        -24    2    3    3    0    0 -0.32519710889E+02 -0.22147922788E+01 -0.31023802382E+03  0.32208251874E+03  0.80169074796E+02 0.  0.
          6    2    1    2  501    0  0.71587075335E+02 -0.45940600244E+02 -0.43056169522E+03  0.47351842985E+03  0.17776693143E+03 0.  0.
         24    2    5    5    0    0  0.19179415309E+02  0.57444814993E+01 -0.36797751153E+03  0.37678797677E+03  0.78491282380E+02 0.  0.
          5    1    5    5  501    0  0.52407660026E+02 -0.51685081743E+02 -0.62584183695E+02  0.96730453080E+02  0.47000000000E+01 0. -1.
        -11    1    6    6    0    0  0.19886502811E+01  0.39081739142E+02 -0.12649152467E+03  0.13240635512E+03  0.00000000000E+00 0.  1.
         12    1    6    6    0    0  0.17190765028E+02 -0.33337257642E+02 -0.24148598686E+03  0.24438162165E+03  0.00000000000E+00 0. -1.
         -5    1    3    3    0  503 -0.39067364446E+02  0.48155392523E+02 -0.10260142375E+04  0.10278971283E+04  0.47000000000E+01 0.  1.
         11    1    4    4    0    0 -0.24239029140E+02  0.10804075332E+02 -0.25100928906E+02  0.36528279584E+02  0.00000000000E+00 0. -1.
        -12    1    4    4    0    0 -0.82806817482E+01 -0.13018867611E+02 -0.28513709492E+03  0.28555423916E+03  0.00000000000E+00 0.  1.
</event>
<event>
12    1  0.8135779E-002  0.1767956E+03  0.7818608E-02  0.1170998E+00
         21   -1    0    0  501  502  0.00000000000E+00  0.00000000000E+00  0.11751405767E+03  0.11751405767E+03  0.00000000000E+00 0. -1.
         21   -1    0    0  502  503 -0.00000000000E+00 -0.00000000000E+00 -0.34613164460E+03  0.34613164460E+03  0.00000000000E+00 0. -1.
         -6    2    1    2    0  503 -0.15991113783E+02 -0.33232028786E+02 -0.22604570812E+03  0.28683136038E+03  0.17267160647E+03 0.  0.
        -24    2    3    3    0    0 -0.57233938035E+02 -0.70177154863E+02 -0.15651771372E+03  0.19782492860E+03  0.80226871679E+02 0.  0.
          6    2    1    2  501    0  0.15991113783E+02  0.33232028786E+02 -0.25718788069E+01  0.17681434188E+03  0.17290637200E+03 0.  0.
         24    2    5    5    0    0  0.13401055005E+02 -0.34897689885E+02  0.39509546798E+02  0.96556611095E+02  0.79779306987E+02 0.  0.
          5    1    5    5  501    0  0.25900587785E+01  0.68129718671E+02 -0.42081425605E+02  0.80257730790E+02  0.47000000000E+01 0. -1.
        -13    1    6    6    0    0 -0.20641621346E+02  0.14538333490E+02  0.10513150491E+01  0.25269446685E+02  0.00000000000E+00 0.  1.
         14    1    6    6    0    0  0.34042676351E+02 -0.49436023375E+02  0.38458231749E+02  0.71287164409E+02  0.00000000000E+00 0. -1.
         -5    1    3    3    0  503  0.41242824252E+02  0.36945126077E+02 -0.69527994401E+02  0.89006431782E+02  0.47000000000E+01 0.  1.
         13    1    4    4    0    0 -0.31046764183E+02 -0.44738121589E+02 -0.15147894313E+03  0.16096978381E+03  0.00000000000E+00 0. -1.
        -14    1    4    4    0    0 -0.26187173852E+02 -0.25439033274E+02 -0.50387705937E+01  0.36855144788E+02  0.00000000000E+00 0.  1.
</event>
<event>
12    1  0.8135779E-002  0.2961872E+03  0.7818608E-02  0.1087809E+00
         21   -1    0    0  503  502  0.00000000000E+00  0.00000000000E+00  0.17575327389E+04  0.17575327389E+04  0.00000000000E+00 0. -1.
         21   -1    0    0  501  503 -0.00000000000E+00 -0.00000000000E+00 -0.62949611141E+02  0.62949611141E+02  0.00000000000E+00 0. -1.
          6    2    1    2  501    0  0.13378384538E+03  0.19297039255E+03  0.12690472571E+04  0.13020157442E+04  0.17212892750E+03 0.  0.
         24    2    3    3    0    0  0.10773511076E+03  0.13965443428E+03  0.11739441109E+04  0.11898202612E+04  0.80107823693E+02 0.  0.
         -6    2    1    2    0  502 -0.13378384538E+03 -0.19297039255E+03  0.42553587064E+03  0.51846660583E+03  0.18053020377E+03 0.  0.
        -24    2    5    5    0    0 -0.15995287403E+03 -0.19519096656E+03  0.40900314605E+03  0.48707918810E+03  0.79234630453E+02 0.  0.
          5    1    3    3  501    0  0.26048734618E+02  0.53315958271E+02  0.95103146275E+02  0.11219548303E+03  0.47000000000E+01 0. -1.
        -11    1    4    4    0    0  0.10581457837E+02 -0.58000910130E+01  0.19492414174E+03  0.19529728451E+03  0.00000000000E+00 0.  1.
         12    1    4    4    0    0  0.97153652921E+02  0.14545452530E+03  0.97901996912E+03  0.99452297668E+03  0.00000000000E+00 0. -1.
         -5    1    5    5    0  502  0.26169028652E+02  0.22205740070E+01  0.16532724589E+02  0.31387417732E+02  0.47000000000E+01 0.  1.
         11    1    6    6    0    0 -0.12654050514E+03 -0.96757847180E+02  0.27031415024E+03  0.31375837878E+03  0.00000000000E+00 0. -1.
        -12    1    6    6    0    0 -0.33412368891E+02 -0.98433119381E+02  0.13868899581E+03  0.17332080932E+03  0.00000000000E+00 0.  1.
</event>
<event>
12    1  0.8135779E-002  0.1891950E+03  0.7818608E-02  0.1159584E+00
         21   -1    0    0  501  502  0.00000000000E+00  0.00000000000E+00  0.16318078662E+03  0.16318078662E+03  0.00000000000E+00 0. -1.
         21   -1    0    0  502  503 -0.00000000000E+00 -0.00000000000E+00 -0.74041873987E+03  0.74041873987E+03  0.00000000000E+00 0. -1.
         -6    2    1    2    0  503 -0.44889499680E+02  0.61946037104E+02 -0.66874675896E+03  0.69499423022E+03  0.17303864807E+03 0.  0.
        -24    2    3    3    0    0 -0.52479751425E+02  0.10637115858E+03 -0.47854812531E+03  0.49947232970E+03  0.79970946061E+02 0.  0.
          6    2    1    2  501    0  0.44889499680E+02 -0.61946037104E+02  0.91508805716E+02  0.20860529627E+03  0.17114300866E+03 0.  0.
         24    2    5    5    0    0  0.52208454691E+02  0.18952948679E+02  0.22191010004E+02  0.10171628932E+03  0.82272872710E+02 0.  0.
          5    1    5    5  501    0 -0.73189550111E+01 -0.80898985783E+02  0.69317795713E+02  0.10688900694E+03  0.47000000000E+01 0. -1.
        -11    1    6    6    0    0 -0.15138498761E+02  0.23664924523E+02 -0.57087273242E+01  0.28666921095E+02  0.00000000000E+00 0.  1.
         12    1    6    6    0    0  0.67346953452E+02 -0.47119758439E+01  0.27899737328E+02  0.73049368229E+02  0.00000000000E+00 0. -1.
         -5    1    3    3    0  503  0.75902517453E+01 -0.44425121477E+02 -0.19019863365E+03  0.19552190052E+03  0.47000000000E+01 0.  1.
         11    1    4    4    0    0 -0.69866409410E+02  0.74150630634E+02 -0.40062888119E+03  0.41338012970E+03  0.00000000000E+00 0. -1.
        -12    1    4    4    0    0  0.17386657985E+02  0.32220527947E+02 -0.77919244116E+02  0.86092199999E+02  0.00000000000E+00 0.  1.
</event>
<event>
12    1  0.8135779E-002  0.2371862E+03  0.7818608E-02  0.1121753E+00
         21   -1    0    0  503  502  0.00000000000E+00  0.00000000000E+00  0.40112836299E+03  0.40112836299E+03  0.00000000000E+00 0.  1.
         21   -1    0    0  501  503 -0.00000000000E+00 -0.00000000000E+00 -0.14115922690E+03  0.14115922690E+03  0.00000000000E+00 0.  1.
          6    2    1    2  501    0 -0.16445584311E+03 -0.15424147970E+02  0.15468722655E+03  0.28317029883E+03  0.17021648394E+03 0.  0.
         24    2    3    3    0    0 -0.95329681680E+02 -0.73150966834E+02  0.10521466938E+03  0.18030905382E+03  0.83680440246E+02 0.  0.
         -6    2    1    2    0  502  0.16445584311E+03  0.15424147970E+02  0.10528190954E+03  0.25911729106E+03  0.16962859834E+03 0.  0.
        -24    2    5    5    0    0  0.41405104978E+02 -0.34523788837E+02  0.95417145543E+01  0.95335254553E+02  0.78048009136E+02 0.  0.
          5    1    3    3  501    0 -0.69126161431E+02  0.57726818865E+02  0.49472557176E+02  0.10286124500E+03  0.47000000000E+01 0. -1.
        -13    1    4    4    0    0 -0.69164291309E+02 -0.57054960607E+02  0.11700175598E+03  0.14740549048E+03  0.00000000000E+00 0.  1.
         14    1    4    4    0    0 -0.26165390372E+02 -0.16096006227E+02 -0.11787086603E+02  0.32903563339E+02  0.00000000000E+00 0. -1.
         -5    1    5    5    0  502  0.12305073813E+03  0.49947936807E+02  0.95740194988E+02  0.16378203651E+03  0.47000000000E+01 0.  1.
         11    1    6    6    0    0  0.19614407929E+02  0.44363800603E+00 -0.31545156595E+02  0.37148603173E+02  0.00000000000E+00 0. -1.
        -12    1    6    6    0    0  0.21790697049E+02 -0.34967426843E+02  0.41086871150E+02  0.58186651380E+02  0.00000000000E+00 0.  1.
</event>
<event>
12    1  0.8135779E-002  0.1971323E+03  0.7818608E-02  0.1152287E+00
         21   -1    0    0  503  502  0.00000000000E+00  0.00000000000E+00  0.14069605777E+04  0.14069605777E+04  0.00000000000E+00 0. -1.
         21   -1    0    0  501  503 -0.00000000000E+00 -0.00000000000E+00 -0.51832308484E+02  0.51832308484E+02  0.00000000000E+00 0. -1.
          6    2    1    2  501    0  0.88935774208E+02 -0.37215343730E+02  0.17789929254E+03  0.26517266938E+03  0.17138795919E+03 0.  0.
         24    2    3    3    0    0  0.10180968837E+03 -0.56631159736E+01  0.18933552764E+03  0.22892134919E+03  0.78484129372E+02 0.  0.
         -6    2    1    2    0  502 -0.88935774208E+02  0.37215343730E+02  0.11772289767E+04  0.11936202168E+04  0.17194942484E+03 0.  0.
        -24    2    5    5    0    0 -0.49829450834E+02  0.48497892560E+02  0.35929712869E+03  0.37466283184E+03  0.80266998991E+02 0.  0.
          5    1    3    3  501    0 -0.12873914159E+02 -0.31552227756E+02 -0.11436235094E+02  0.36251320187E+02  0.47000000000E+01 0. -1.
        -11    1    4    4    0    0  0.43435486903E+02 -0.41108869585E+02  0.77650984504E+02  0.98011509913E+02  0.00000000000E+00 0.  1.
         12    1    4    4    0    0  0.58374201465E+02  0.35445753611E+02  0.11168454313E+03  0.13090983928E+03  0.00000000000E+00 0. -1.
         -5    1    5    5    0  502 -0.39106323374E+02 -0.11282548830E+02  0.81793184801E+03  0.81895738499E+03  0.47000000000E+01 0.  1.
         13    1    6    6    0    0 -0.25092329413E+02  0.63728260561E+02  0.30971344724E+03  0.31719605230E+03  0.00000000000E+00 0. -1.
        -14    1    6    6    0    0 -0.24737121421E+02 -0.15230368000E+02  0.49583681442E+02  0.57466779542E+02  0.00000000000E+00 0.  1.
</event>
<event>
12    1  0.8135779E-002  0.2376882E+03  0.7818608E-02  0.1121408E+00
         21   -1    0    0  501  502  0.00000000000E+00  0.00000000000E+00  0.86924995048E+03  0.86924995048E+03  0.00000000000E+00 0.  1.
         21   -1    0    0  502  503 -0.00000000000E+00 -0.00000000000E+00 -0.65441056244E+02  0.65441056244E+02  0.00000000000E+00 0.  1.
         -6    2    1    2    0  503 -0.73102772609E+02 -0.14570622441E+03  0.44456879586E+03  0.50393687271E+03  0.17244314493E+03 0.  0.
        -24    2    3    3    0    0 -0.40067747771E+00 -0.13969860870E+03  0.35694549850E+03  0.38982456697E+03  0.70973532348E+02 0.  0.
          6    2    1    2  501    0  0.73102772609E+02  0.14570622441E+03  0.35924009838E+03  0.43075413402E+03  0.17297790753E+03 0.  0.
         24    2    5    5    0    0 -0.19774948087E+02  0.71980009058E+02  0.23549786018E+03  0.25930134942E+03  0.78776756637E+02 0.  0.
          5    1    5    5  501    0  0.92877720696E+02  0.73726215350E+02  0.12374223821E+03  0.17145278460E+03  0.47000000000E+01 0. -1.
        -13    1    6    6    0    0  0.17114756693E+02  0.53335984192E+02  0.18881986575E+03  0.19695325285E+03  0.00000000000E+00 0.  1.
         14    1    6    6    0    0 -0.36889704780E+02  0.18644024865E+02  0.46677994428E+02  0.62348096569E+02  0.00000000000E+00 0. -1.
         -5    1    3    3    0  503 -0.72702095131E+02 -0.60076157107E+01  0.87623297354E+02  0.11411230574E+03  0.47000000000E+01 0.  1.
         13    1    4    4    0    0  0.22614710797E+02 -0.16106437378E+02  0.38541697733E+02  0.47500578245E+02  0.00000000000E+00 0. -1.
        -14    1    4    4    0    0 -0.23015388275E+02 -0.12359217132E+03  0.31840380077E+03  0.34232398872E+03  0.00000000000E+00 0.  1.
</event>
<event>
12    1  0.8135779E-002  0.1933309E+03  0.7818608E-02  0.1155780E+00
         21   -1    0    0  501  502  0.00000000000E+00  0.00000000000E+00  0.57146845744E+02  0.57146845744E+02  0.00000000000E+00 0. -1.
         21   -1    0    0  502  503 -0.00000000000E+00 -0.00000000000E+00 -0.12067025923E+04  0.12067025923E+04  0.00000000000E+00 0. -1.
         -6    2    1    2    0  503 -0.84794436177E+02  0.18752920110E+01 -0.10051845490E+04  0.10236077518E+04  0.17373324068E+03 0.  0.
        -24    2    3    3    0    0  0.23980523925E+02 -0.77939911942E+01 -0.38214720736E+03  0.39105490339E+03  0.79067297572E+02 0.  0.
          6    2    1    2  501    0  0.84794436177E+02 -0.18752920110E+01 -0.14437119762E+03  0.24024168628E+03  0.17227713719E+03 0.  0.
         24    2    5    5    0    0 -0.22980273848E+02 -0.54291344080E+00 -0.55454544389E+02  0.10043673439E+03  0.80522936978E+02 0.  0.
          5    1    5    5  501    0  0.10777471003E+03 -0.13323785702E+01 -0.88916653231E+02  0.13980495190E+03  0.47000000000E+01 0. -1.
        -13    1    6    6    0    0 -0.28482037885E+02  0.21858788451E+02 -0.65953375784E+02  0.75092482260E+02  0.00000000000E+00 0.  1.
         14    1    6    6    0    0  0.55017640374E+01 -0.22401701892E+02  0.10498831395E+02  0.25344252126E+02  0.00000000000E+00 0. -1.
         -5    1    3    3    0  503 -0.10877496010E+03  0.96692832051E+01 -0.62303734160E+03  0.63255284840E+03  0.47000000000E+01 0.  1.
         13    1    4    4    0    0  0.13889907199E+02  0.59982239886E+01 -0.36946295474E+03  0.36977261004E+03  0.00000000000E+00 0. -1.
        -14    1    4    4    0    0  0.10090616726E+02 -0.13792215183E+02 -0.12684252621E+02  0.21282293347E+02  0.00000000000E+00 0.  1.
</event>
<event>
12    1  0.8135779E-002  0.3098254E+03  0.7818608E-02  0.1080611E+00
         21   -1    0    0  503  502  0.00000000000E+00  0.00000000000E+00  0.14066612912E+03  0.14066612912E+03  0.00000000000E+00 0.  1.
         21   -1    0    0  501  503 -0.00000000000E+00 -0.00000000000E+00 -0.70298105251E+03  0.70298105251E+03  0.00000000000E+00 0.  1.
          6    2    1    2  501    0 -0.25623891723E+03 -0.12988234776E+02 -0.20405677301E+03  0.37098645277E+03  0.17367989114E+03 0.  0.
         24    2    3    3    0    0 -0.26623056485E+03  0.11163853333E+02 -0.16381489607E+03  0.32277177615E+03  0.79642664579E+02 0.  0.
         -6    2    1    2    0  502  0.25623891723E+03  0.12988234776E+02 -0.35825815039E+03  0.47266072886E+03  0.17097422421E+03 0.  0.
        -24    2    5    5    0    0  0.41040976805E+02 -0.17010105987E+02 -0.90750422639E+02  0.12799780887E+03  0.78575405719E+02 0.  0.
          5    1    3    3  501    0  0.99916476260E+01 -0.24152088108E+02 -0.40241876936E+02  0.48214676620E+02  0.47000000000E+01 0. -1.
        -13    1    4    4    0    0 -0.46862425672E+02  0.15893357070E+02 -0.66119449948E+02  0.82586121112E+02  0.00000000000E+00 0.  1.
         14    1    4    4    0    0 -0.21936813918E+03 -0.47295037375E+01 -0.97695446123E+02  0.24018565504E+03  0.00000000000E+00 0. -1.
         -5    1    5    5    0  502  0.21519794042E+03  0.29998340763E+02 -0.26750772775E+03  0.34466291999E+03  0.47000000000E+01 0.  1.
         11    1    6    6    0    0  0.79803133706E+01  0.14046937022E+02  0.89461904738E+01  0.18467164514E+02  0.00000000000E+00 0. -1.
        -12    1    6    6    0    0  0.33060663434E+02 -0.31057043009E+02 -0.99696613113E+02  0.10953064436E+03  0.00000000000E+00 0.  1.
</event>
<event>
12    1  0.8135779E-002  0.3341538E+03  0.7818608E-02  0.1069388E+00
         21   -1    0    0  501  502  0.00000000000E+00  0.00000000000E+00  0.12630666530E+03  0.12630666530E+03  0.00000000000E+00 0.  1.
         21   -1    0    0  502  503 -0.00000000000E+00 -0.00000000000E+00 -0.88242070145E+03  0.88242070145E+03  0.00000000000E+00 0. -1.
         -6    2    1    2    0  503  0.16539657389E+03 -0.23275697379E+03 -0.38500476665E+03  0.50934692397E+03  0.17226079970E+03 0.  0.
        -24    2    3    3    0    0  0.16232717221E+03 -0.22012035443E+03 -0.26787222024E+03  0.39140105162E+03  0.81462724987E+02 0.  0.
          6    2    1    2  501    0 -0.16539657389E+03  0.23275697379E+03 -0.37110926951E+03  0.49938044278E+03  0.17357102643E+03 0.  0.
         24    2    5    5    0    0 -0.37997147728E+02  0.16272559009E+03 -0.17405897624E+03  0.25446021787E+03  0.80808875542E+02 0.  0.
          5    1    5    5  501    0 -0.12739942617E+03  0.70031383700E+02 -0.19705029327E+03  0.24492022491E+03  0.47000000000E+01 0. -1.
        -13    1    6    6    0    0 -0.30407950116E+02  0.51657664511E+02 -0.17669092889E+02  0.62492836202E+02  0.00000000000E+00 0.  1.
         14    1    6    6    0    0 -0.75891976114E+01  0.11106792558E+03 -0.15638988335E+03  0.19196738167E+03  0.00000000000E+00 0. -1.
         -5    1    3    3    0  503  0.30694016797E+01 -0.12636619361E+02 -0.11713254641E+03  0.11794587235E+03  0.47000000000E+01 0.  1.
         13    1    4    4    0    0  0.54755624691E+02 -0.64571195001E+02 -0.13827907489E+03  0.16213796659E+03  0.00000000000E+00 0. -1.
        -14    1    4    4    0    0  0.10757154752E+03 -0.15554915943E+03 -0.12959314535E+03  0.22926308503E+03  0.00000000000E+00 0.  1.
</event>
<event>
12    1  0.8135779E-002  0.2251279E+03  0.7818608E-02  0.1130368E+00
         21   -1    0    0  503  502  0.00000000000E+00  0.00000000000E+00  0.10943004468E+04  0.10943004468E+04  0.00000000000E+00 0.  1.
         21   -1    0    0  501  503 -0.00000000000E+00 -0.00000000000E+00 -0.46059223613E+02  0.46059223613E+02  0.00000000000E+00 0.  1.
          6    2    1    2  501    0 -0.41529815929E+02  0.13880673473E+03  0.53677510213E+03  0.58153934274E+03  0.17049475556E+03 0.  0.
         24    2    3    3    0    0 -0.80248540814E+02  0.14496448477E+03  0.44979222982E+03  0.48601359952E+03  0.80259820382E+02 0.  0.
         -6    2    1    2    0  502  0.41529815929E+02 -0.13880673473E+03  0.51146612106E+03  0.55882032767E+03  0.17230940315E+03 0.  0.
        -24    2    5    5    0    0  0.25378391423E+02 -0.15677404740E+03  0.49941392338E+03  0.53141524954E+03  0.88123412838E+02 0.  0.
          5    1    3    3  501    0  0.38718724885E+02 -0.61577500391E+01  0.86982872311E+02  0.95525743220E+02  0.47000000000E+01 0. -1.
        -13    1    4    4    0    0  0.29110467853E+01  0.71558316273E+02  0.20821260268E+03  0.22018527366E+03  0.00000000000E+00 0.  1.
         14    1    4    4    0    0 -0.83159587599E+02  0.73406168495E+02  0.24157962714E+03  0.26582832587E+03  0.00000000000E+00 0. -1.
         -5    1    5    5    0  502  0.16151424506E+02  0.17967312676E+02  0.12052197674E+02  0.27405078126E+02  0.47000000000E+01 0.  1.
         11    1    6    6    0    0  0.54670257045E+02 -0.13160378801E+03  0.40826513104E+03  0.43242202909E+03  0.00000000000E+00 0. -1.
        -12    1    6    6    0    0 -0.29291865622E+02 -0.25170259398E+02  0.91148792347E+02  0.98993220455E+02  0.00000000000E+00 0.  1.
</event>
<event>
12    1  0.8135779E-002  0.1884831E+03  0.7818608E-02  0.1160375E+00
         21   -1    0    0  503  502  0.00000000000E+00  0.00000000000E+00  0.22600318815E+03  0.22600318815E+03  0.00000000000E+00 0.  1.
         21   -1    0    0  501  503 -0.00000000000E+00 -0.00000000000E+00 -0.18627787941E+03  0.18627787941E+03  0.00000000000E+00 0.  1.
          6    2    1    2  501    0 -0.70091991426E+02 -0.36937153675E+02  0.10389998338E+03  0.21317241429E+03  0.16843405560E+03 0.  0.
         24    2    3    3    0    0 -0.95405853627E+02  0.15468435300E+02  0.55295498846E+02  0.13720121388E+03  0.80156294201E+02 0.  0.
         -6    2    1    2    0  502  0.70091991426E+02  0.36937153675E+02 -0.64174674645E+02  0.19910865326E+03  0.17102229783E+03 0.  0.
        -24    2    5    5    0    0  0.10085576054E+03  0.29245460583E+02 -0.88811080961E+02  0.15867829154E+03  0.79146766857E+02 0.  0.
          5    1    3    3  501    0  0.25313862201E+02 -0.52405588975E+02  0.48604484538E+02  0.75971200415E+02  0.47000000000E+01 0. -1.
        -13    1    4    4    0    0 -0.59863754573E+01  0.24434134470E+02 -0.89820269531E+01  0.26712177496E+02  0.00000000000E+00 0.  1.
         14    1    4    4    0    0 -0.89419478170E+02 -0.89656991697E+01  0.64277525799E+02  0.11048903638E+03  0.00000000000E+00 0. -1.
         -5    1    5    5    0  502 -0.30763769118E+02  0.76916930918E+01  0.24636406316E+02  0.40430361724E+02  0.47000000000E+01 0.  1.
         11    1    6    6    0    0  0.93423062320E+02 -0.15733278022E+01 -0.85763908446E+02  0.12682977539E+03  0.00000000000E+00 0. -1.
        -12    1    6    6    0    0  0.74326982243E+01  0.30818788385E+02 -0.30471725154E+01  0.31848516147E+02  0.00000000000E+00 0.  1.
</event>
<event>
12    1  0.8135779E-002  0.2264520E+03  0.7818608E-02  0.1129257E+00
         21   -1    0    0  503  502  0.00000000000E+00  0.00000000000E+00  0.13013762883E+03  0.13013762883E+03  0.00000000000E+00 0.  1.
         21   -1    0    0  501  503 -0.00000000000E+00 -0.00000000000E+00 -0.52531808619E+03  0.52531808619E+03  0.00000000000E+00 0.  1.
          6    2    1    2  501    0 -0.71190484101E+02  0.12875069110E+03 -0.36216251564E+03  0.42713251662E+03  0.17215014822E+03 0.  0.
         24    2    3    3    0    0 -0.56333301522E+01  0.12118337669E+03 -0.31310620149E+03  0.34476980273E+03  0.78189374383E+02 0.  0.
         -6    2    1    2    0  502  0.71190484101E+02 -0.12875069110E+03 -0.33017941717E+02  0.22832319840E+03  0.17145399665E+03 0.  0.
        -24    2    5    5    0    0  0.21546315933E+02 -0.77181284065E+02  0.44850937432E+02  0.12244780222E+03  0.80997921828E+02 0.  0.
          5    1    3    3  501    0 -0.65557153949E+02  0.75673144136E+01 -0.49056314149E+02  0.82362713889E+02  0.47000000000E+01 0. -1.
        -11    1    4    4    0    0  0.19407852593E+02  0.59970666092E+02 -0.23042808863E+03  0.23889380395E+03  0.00000000000E+00 0.  1.
         12    1    4    4    0    0 -0.25041182745E+02  0.61212710595E+02 -0.82678112860E+02  0.10587599878E+03  0.00000000000E+00 0. -1.
         -5    1    5    5    0  502  0.49644168168E+02 -0.51569407035E+02 -0.77868879149E+02  0.10587539617E+03  0.47000000000E+01 0.  1.
         13    1    6    6    0    0  0.47769926568E+02 -0.60083063906E+02  0.13117776551E+02  0.77871795371E+02  0.00000000000E+00 0. -1.
        -14    1    6    6    0    0 -0.26223610635E+02 -0.17098220158E+02  0.31733160881E+02  0.44576006852E+02  0.00000000000E+00 0.  1.
</event>
<event>
12    1  0.8135779E-002  0.1723377E+03  0.7818608E-02  0.1178111E+00
         21   -1    0    0  501  502  0.00000000000E+00  0.00000000000E+00  0.15179543061E+03  0.15179543061E+03  0.00000000000E+00 0. -1.
         21   -1    0    0  502  503 -0.00000000000E+00 -0.00000000000E+00 -0.28368863215E+03  0.28368863215E+03  0.00000000000E+00 0. -1.
         -6    2    1    2    0  503  0.40720168426E+01  0.11290165497E+02 -0.19347188397E+03  0.25247526292E+03  0.16176631089E+03 0.  0.
        -24    2    3    3    0    0 -0.13875551022E+02  0.38897547821E+02 -0.20000337745E+03  0.21857787131E+03  0.77906255786E+02 0.  0.
          6    2    1    2  501    0 -0.40720168426E+01 -0.11290165497E+02  0.61578682431E+02  0.18300879984E+03  0.17191927621E+03 0.  0.
         24    2    5    5    0    0  0.19565891300E+00  0.57388405257E+02  0.17527101655E+02  0.10116998933E+03  0.81453668475E+02 0.  0.
          5    1    5    5  501    0 -0.42676757556E+01 -0.68678570754E+02  0.44051580776E+02  0.81838810512E+02  0.47000000000E+01 0. -1.
        -11    1    6    6    0    0  0.29606934487E+02 -0.55906575273E+01  0.50155493941E+01  0.30544750073E+02  0.00000000000E+00 0.  1.
         12    1    6    6    0    0 -0.29411275574E+02  0.62979062785E+02  0.12511552261E+02  0.70625239257E+02  0.00000000000E+00 0. -1.
         -5    1    3    3    0  503  0.17947567864E+02 -0.27607382324E+02  0.65314934799E+01  0.33897391612E+02  0.47000000000E+01 0.  1.
         13    1    4    4    0    0  0.19663060913E+02  0.33234999063E+01 -0.98541785877E+01  0.22243795803E+02  0.00000000000E+00 0. -1.
        -14    1    4    4    0    0 -0.33538611935E+02  0.35574047914E+02 -0.19014919886E+03  0.19633407550E+03  0.00000000000E+00 0.  1.
</event>
<event>
12    1  0.8135779E-002  0.2607749E+03  0.7818608E-02  0.1107444E+00
         21   -1    0    0  503  502  0.00000000000E+00  0.00000000000E+00  0.10972111112E+04  0.10972111112E+04  0.00000000000E+00 0. -1.
         21   -1    0    0  501  503 -0.00000000000E+00 -0.00000000000E+00 -0.19043991040E+03  0.19043991040E+03  0.00000000000E+00 0. -1.
          6    2    1    2  501    0  0.18781571727E+03 -0.45955730261E+02 -0.79265301146E+02  0.26771399370E+03  0.16733535688E+03 0.  0.
         24    2    3    3    0    0  0.33603477019E+02 -0.36831447881E+02 -0.60369072820E+02  0.11200970662E+03  0.80099938843E+02 0.  0.
         -6    2    1    2    0  502 -0.18781571727E+03  0.45955730261E+02  0.98603650193E+03  0.10199370279E+04  0.17497681257E+03 0.  0.
        -24    2    5    5    0    0 -0.11959952651E+03  0.36531490556E+02  0.88730819277E+03  0.89947278421E+03  0.78082418304E+02 0.  0.
          5    1    3    3  501    0  0.15421224025E+03 -0.91242823799E+01 -0.18896228326E+02  0.15570428708E+03  0.47000000000E+01 0. -1.
        -11    1    4    4    0    0  0.42782886605E+02 -0.87715037138E+01 -0.68634615922E+02  0.81351245636E+02  0.00000000000E+00 0.  1.
         12    1    4    4    0    0 -0.91794095857E+01 -0.28059944167E+02  0.82655431029E+01  0.30658460982E+02  0.00000000000E+00 0. -1.
         -5    1    5    5    0  502 -0.68216190753E+02  0.94242397051E+01  0.98728309161E+02  0.12046424368E+03  0.47000000000E+01 0.  1.
         11    1    6    6    0    0 -0.72288124839E+02  0.54432584716E+02  0.43282524327E+03  0.44218341272E+03  0.00000000000E+00 0. -1.
        -12    1    6    6    0    0 -0.47311401674E+02 -0.17901094161E+02  0.45448294949E+03  0.45728937149E+03  0.00000000000E+00 0.  1.
</event>
<event>
12    1  0.8135779E-002  0.2752143E+03  0.7818608E-02  0.1099476E+00
         21   -1    0    0  501  502  0.00000000000E+00  0.00000000000E+00  0.65488120784E+02  0.65488120784E+02  0.00000000000E+00 0.  1.
         21   -1    0    0  502  503 -0.00000000000E+00 -0.00000000000E+00 -0.12914817856E+04  0.12914817856E+04  0.00000000000E+00 0. -1.
         -6    2    1    2    0  503 -0.11919730550E+03 -0.16391927638E+03 -0.85015530444E+03  0.89114013654E+03  0.17403785357E+03 0.  0.
        -24    2    3    3    0    0 -0.14111785231E+03 -0.10707670710E+03 -0.74259654916E+03  0.76743660429E+03  0.78292000408E+02 0.  0.
          6    2    1    2  501    0  0.11919730550E+03  0.16391927638E+03 -0.37583836038E+03  0.46582976985E+03  0.18618639730E+03 0.  0.
         24    2    5    5    0    0  0.64360852546E+02 -0.35087029291E+01 -0.14721749060E+03  0.17716256193E+03  0.74558389707E+02 0.  0.
          5    1    5    5  501    0  0.54836452953E+02  0.16742797931E+03 -0.22862086978E+03  0.28866720792E+03  0.47000000000E+01 0. -1.
        -13    1    6    6    0    0  0.35063945729E+02  0.19614122382E+02 -0.20582974490E+02  0.45142584394E+02  0.00000000000E+00 0.  1.
         14    1    6    6    0    0  0.29296906817E+02 -0.23122825311E+02 -0.12663451611E+03  0.13201997754E+03  0.00000000000E+00 0. -1.
         -5    1    3    3    0  503  0.21920546812E+02 -0.56842569277E+02 -0.10755875528E+03  0.12370353225E+03  0.47000000000E+01 0.  1.
         11    1    4    4    0    0 -0.20842900420E+01 -0.33776581578E+02 -0.18696465480E+03  0.19000258912E+03  0.00000000000E+00 0. -1.
        -12    1    4    4    0    0 -0.13903356227E+03 -0.73300125521E+02 -0.55563189437E+03  0.57743401517E+03  0.00000000000E+00 0.  1.
</event>
<event>
12    1  0.8135779E-002  0.1762745E+03  0.7818608E-02  0.1171995E+00
         21   -1    0    0  503  502  0.00000000000E+00  0.00000000000E+00  0.34494082867E+03  0.34494082867E+03  0.00000000000E+00 0.  1.
         21   -1    0    0  501  503 -0.00000000000E+00 -0.00000000000E+00 -0.21846478348E+03  0.21846478348E+03  0.00000000000E+00 0.  1.
          6    2    1    2  501    0 -0.25856922410E+02  0.22492024612E+02 -0.15378705733E+03  0.23231636656E+03  0.17072188952E+03 0.  0.
         24    2    3    3    0    0 -0.40876350570E+02  0.64883782159E+02 -0.15620766462E+03  0.18703288536E+03  0.68554244918E+02 0.  0.
         -6    2    1    2    0  502  0.25856922410E+02 -0.22492024612E+02  0.28026310252E+03  0.33108924560E+03  0.17291098955E+03 0.  0.
        -24    2    5    5    0    0 -0.18091282324E+02 -0.27718321932E+00  0.53606757283E+02  0.99097580414E+02  0.81358925084E+02 0.  0.
          5    1    3    3  501    0  0.15019428161E+02 -0.42391757546E+02  0.24206072869E+01  0.45283481202E+02  0.47000000000E+01 0. -1.
        -11    1    4    4    0    0  0.19445822601E+02  0.14480281681E+02 -0.35835684063E+02  0.43266786643E+02  0.00000000000E+00 0.  1.
         12    1    4    4    0    0 -0.60322173171E+02  0.50403500478E+02 -0.12037198055E+03  0.14376609871E+03  0.00000000000E+00 0. -1.
         -5    1    5    5    0  502  0.43948204733E+02 -0.22214841393E+02  0.22665634524E+03  0.23199166518E+03  0.47000000000E+01 0.  1.
         11    1    6    6    0    0  0.13818620437E+02  0.33814461544E+02  0.20880391847E+02  0.42075679959E+02  0.00000000000E+00 0. -1.
        -12    1    6    6    0    0 -0.31909902761E+02 -0.34091644763E+02  0.32726365437E+02  0.57021900456E+02  0.00000000000E+00 0.  1.
</event>
<event>
12    1  0.8135779E-002  0.2051827E+03  0.7818608E-02  0.1147470E+00
         21   -1    0    0  501  502  0.00000000000E+00  0.00000000000E+00  0.51026412260E+03  0.51026412260E+03  0.00000000000E+00 0.  1.
         21   -1    0    0  502  503 -0.00000000000E+00 -0.00000000000E+00 -0.10279121827E+03  0.10279121827E+03  0.00000000000E+00 0.  1.
         -6    2    1    2    0  503 -0.24707550387E+00  0.92675735497E+02  0.35602223574E+03  0.41091578938E+03  0.18306037425E+03 0.  0.
        -24    2    3    3    0    0 -0.56225106635E+01  0.33792107572E+02  0.55549169892E+02  0.10464412853E+03  0.81799536667E+02 0.  0.
          6    2    1    2  501    0  0.24707550387E+00 -0.92675735497E+02  0.51450668593E+02  0.20213955149E+03  0.17211732621E+03 0.  0.
         24    2    5    5    0    0 -0.59324377778E+02 -0.92274397371E+02  0.32121495595E+02  0.13933329347E+03  0.79674525290E+02 0.  0.
          5    1    5    5  501    0  0.59571453282E+02 -0.40133812548E+00  0.19329172998E+02  0.62806258026E+02  0.47000000000E+01 0. -1.
        -11    1    6    6    0    0 -0.16355495875E+02 -0.91053813054E+02  0.24190793464E+02  0.95621616831E+02  0.00000000000E+00 0.  1.
         12    1    6    6    0    0 -0.42968881903E+02 -0.12205843179E+01  0.79307021310E+01  0.43711676637E+02  0.00000000000E+00 0. -1.
         -5    1    3    3    0  503  0.53754351597E+01  0.58883627925E+02  0.30047306585E+03  0.30627166085E+03  0.47000000000E+01 0.  1.
         13    1    4    4    0    0 -0.13156758001E+01 -0.16131566843E+02  0.51942140350E+02  0.54405371019E+02  0.00000000000E+00 0. -1.
        -14    1    4    4    0    0 -0.43068348634E+01  0.49923674415E+02  0.36070295425E+01  0.50238757507E+02  0.00000000000E+00 0.  1.
</event>
<event>
12    1  0.8135779E-002  0.2221643E+03  0.7818608E-02  0.1132868E+00
         21   -1    0    0  501  502  0.00000000000E+00  0.00000000000E+00  0.22978959369E+03  0.22978959369E+03  0.00000000000E+00 0. -1.
         21   -1    0    0  502  503 -0.00000000000E+00 -0.00000000000E+00 -0.26058238636E+03  0.26058238636E+03  0.00000000000E+00 0.  1.
         -6    2    1    2    0  503  0.60735360316E+02 -0.12632880327E+03  0.90847533695E+02  0.23708685141E+03  0.16825323238E+03 0.  0.
        -24    2    3    3    0    0  0.40909666089E+02 -0.15804419207E+03  0.78576333225E+02  0.19744348628E+03  0.78473707106E+02 0.  0.
          6    2    1    2  501    0 -0.60735360316E+02  0.12632880327E+03 -0.12164032637E+03  0.25328512864E+03  0.17236367617E+03 0.  0.
         24    2    5    5    0    0 -0.71199321387E+02  0.11485427595E+03 -0.15199155245E+03  0.21886934472E+03  0.80879601697E+02 0.  0.
          5    1    5    5  501    0  0.10463961071E+02  0.11474527318E+02  0.30351226082E+02  0.34415783925E+02  0.47000000000E+01 0. -1.
        -11    1    6    6    0    0 -0.50883427959E+02  0.10404578234E+03 -0.73738088641E+02  0.13730241724E+03  0.00000000000E+00 0.  1.
         12    1    6    6    0    0 -0.20315893429E+02  0.10808493610E+02 -0.78253463807E+02  0.81566927475E+02  0.00000000000E+00 0. -1.
         -5    1    3    3    0  503  0.19825694227E+02  0.31715388796E+02  0.12271200470E+02  0.39643365133E+02  0.47000000000E+01 0.  1.
         13    1    4    4    0    0  0.30808668457E+02 -0.12524084097E+02  0.26612280689E+02  0.42593898835E+02  0.00000000000E+00 0. -1.
        -14    1    4    4    0    0  0.10100997632E+02 -0.14552010797E+03  0.51964052536E+02  0.15484958745E+03  0.00000000000E+00 0.  1.
</event>
<event>
12    1  0.8135779E-002  0.2405402E+03  0.7818608E-02  0.1119478E+00
         21   -1    0    0  503  502  0.00000000000E+00  0.00000000000E+00  0.32355353686E+03  0.32355353686E+03  0.00000000000E+00 0.  1.
         21   -1    0    0  501  503 -0.00000000000E+00 -0.00000000000E+00 -0.21223220048E+03  0.21223220048E+03  0.00000000000E+00 0.  1.
          6    2    1    2  501    0 -0.16131574809E+03 -0.47305034422E+02 -0.50963227196E+02  0.24562049280E+03  0.17167305873E+03 0.  0.
         24    2    3    3    0    0 -0.13867243786E+03  0.26267490537E+02 -0.25483153769E+02  0.16439882039E+03  0.80358913251E+02 0.  0.
         -6    2    1    2    0  502  0.16131574809E+03  0.47305034422E+02  0.16228456357E+03  0.29016524455E+03  0.17204375230E+03 0.  0.
        -24    2    5    5    0    0  0.44221212472E+02 -0.28930904844E+02  0.95801216119E+02  0.13535835130E+03  0.79696282031E+02 0.  0.
          5    1    3    3  501    0 -0.22643310228E+02 -0.73572524959E+02 -0.25480073427E+02  0.81221672408E+02  0.47000000000E+01 0. -1.
        -11    1    4    4    0    0 -0.10062568503E+03 -0.18601988839E+02 -0.63121979971E+01  0.10252514969E+03  0.00000000000E+00 0.  1.
         12    1    4    4    0    0 -0.38046752834E+02  0.44869479376E+02 -0.19170955772E+02  0.61873670700E+02  0.00000000000E+00 0. -1.
         -5    1    5    5    0  502  0.11709453562E+03  0.76235939266E+02  0.66483347454E+02  0.15480689324E+03  0.47000000000E+01 0.  1.
         11    1    6    6    0    0  0.28263116125E+02 -0.21755410559E+02 -0.22698245754E+01  0.35738686676E+02  0.00000000000E+00 0. -1.
        -12    1    6    6    0    0  0.15958096347E+02 -0.71754942845E+01  0.98071040695E+02  0.99619664626E+02  0.00000000000E+00 0.  1.
</event>
<event>
12    1  0.8135779E-002  0.1834098E+03  0.7818608E-02  0.1164610E+00
         21   -1    0    0  503  502  0.00000000000E+00  0.00000000000E+00  0.77255647110E+02  0.77255647110E+02  0.00000000000E+00 0.  1.
         21   -1    0    0  501  503 -0.00000000000E+00 -0.00000000000E+00 -0.43879066681E+03  0.43879066681E+03  0.00000000000E+00 0.  1.
          6    2    1    2  501    0  0.53657460450E+02  0.83190467011E+01 -0.15589144281E+03  0.24049513258E+03  0.17489264494E+03 0.  0.
         24    2    3    3    0    0 -0.33138464597E+02 -0.80642355810E+01 -0.11190178655E+03  0.14170685190E+03  0.79972697284E+02 0.  0.
         -6    2    1    2    0  502 -0.53657460450E+02 -0.83190467011E+01 -0.20564357689E+03  0.27555118134E+03  0.17518802248E+03 0.  0.
        -24    2    5    5    0    0  0.20923725273E+02 -0.21024844095E+02 -0.40143920150E+02  0.93518170778E+02  0.79083927521E+02 0.  0.
          5    1    3    3  501    0  0.86795925047E+02  0.16383282282E+02 -0.43989656264E+02  0.98788280688E+02  0.47000000000E+01 0. -1.
        -11    1    4    4    0    0 -0.20335060199E+02  0.33496142113E+02 -0.75218441081E+02  0.84813442852E+02  0.00000000000E+00 0.  1.
         12    1    4    4    0    0 -0.12803404398E+02 -0.41560377694E+02 -0.36683345464E+02  0.56893409044E+02  0.00000000000E+00 0. -1.
         -5    1    5    5    0  502 -0.74581185723E+02  0.12705797394E+02 -0.16549965674E+03  0.18203301056E+03  0.47000000000E+01 0.  1.
         13    1    6    6    0    0  0.30295870691E+02  0.23270545806E+02 -0.11311216166E+02  0.39840954986E+02  0.00000000000E+00 0. -1.
        -14    1    6    6    0    0 -0.93721454184E+01 -0.44295389901E+02 -0.28832703984E+02  0.53677215792E+02  0.00000000000E+00 0.  1.
</event>
<event>
12    1  0.8135779E-002  0.1899323E+03  0.7818608E-02  0.1158600E+00
         21   -1    0    0  503  502  0.00000000000E+00  0.00000000000E+00  0.48201355781E+02  0.48201355781E+02  0.00000000000E+00 0.  1.
         21   -1    0    0  501  503 -0.00000000000E+00 -0.00000000000E+00 -0.90800212412E+03  0.90800212412E+03  0.00000000000E+00 0.  1.
          6    2    1    2  501    0  0.71377016750E+02  0.34822149898E+02 -0.63150999963E+03  0.65945368834E+03  0.17253123426E+03 0.  0.
         24    2    3    3    0    0  0.10446148778E+03  0.54951767264E+02 -0.56308419374E+03  0.58068843819E+03  0.78761372904E+02 0.  0.
         -6    2    1    2    0  502 -0.71377016750E+02 -0.34822149898E+02 -0.22829076871E+03  0.29674979156E+03  0.17215255754E+03 0.  0.
        -24    2    5    5    0    0  0.70667219762E+01 -0.72431881520E+02 -0.62173508566E+02  0.10917328403E+03  0.52506616333E+02 0.  0.
          5    1    3    3  501    0 -0.33084471033E+02 -0.20129617366E+02 -0.68425805891E+02  0.78765250147E+02  0.47000000000E+01 0. -1.
        -13    1    4    4    0    0  0.10358790150E+03  0.22703475940E+02 -0.36878921274E+03  0.38373348119E+03  0.00000000000E+00 0.  1.
         14    1    4    4    0    0  0.87358628551E+00  0.32248291324E+02 -0.19429498100E+03  0.19695495700E+03  0.00000000000E+00 0. -1.
         -5    1    5    5    0  502 -0.78443738727E+02  0.37609731622E+02 -0.16611726014E+03  0.18757650753E+03  0.47000000000E+01 0.  1.
         11    1    6    6    0    0  0.29044446792E+02 -0.41549562268E+02 -0.26872749351E+02  0.57376743301E+02  0.00000000000E+00 0. -1.
        -12    1    6    6    0    0 -0.21977724816E+02 -0.30882319252E+02 -0.35300759215E+02  0.51796540730E+02  0.00000000000E+00 0.  1.
</event>
<event>
12    1  0.8135779E-002  0.1838658E+03  0.7818608E-02  0.1164411E+00
         21   -1    0    0  501  502  0.00000000000E+00  0.00000000000E+00  0.61377674124E+02  0.61377674124E+02  0.00000000000E+00 0. -1.
         21   -1    0    0  502  503 -0.00000000000E+00 -0.00000000000E+00 -0.57285549719E+03  0.57285549719E+03  0.00000000000E+00 0. -1.
         -6    2    1    2    0  503 -0.63904568997E+02 -0.12547382625E+01 -0.32223525737E+03  0.37037832041E+03  0.17105312283E+03 0.  0.
        -24    2    3    3    0    0 -0.63731188341E+02 -0.54463654523E+02 -0.27665875146E+03  0.30016061095E+03  0.80798351325E+02 0.  0.
          6    2    1    2  501    0  0.63904568997E+02  0.12547382625E+01 -0.18924256570E+03  0.26385485091E+03  0.17239856545E+03 0.  0.
         24    2    5    5    0    0 -0.10339450170E+02  0.12064832848E+02 -0.16303680291E+03  0.18424414478E+03  0.84335291316E+02 0.  0.
          5    1    5    5  501    0  0.74244019167E+02 -0.10810094585E+02 -0.26205762793E+02  0.79610706131E+02  0.47000000000E+01 0. -1.
        -11    1    6    6    0    0 -0.18340128629E+02  0.21998915006E+02 -0.16809867565E+03  0.17052119321E+03  0.00000000000E+00 0.  1.
         12    1    6    6    0    0  0.80006784587E+01 -0.99340821584E+01  0.50618727392E+01  0.13722951569E+02  0.00000000000E+00 0. -1.
         -5    1    3    3    0  503 -0.17338065599E+00  0.53208916260E+02 -0.45576505912E+02  0.70217709458E+02  0.47000000000E+01 0.  1.
         11    1    4    4    0    0 -0.24220510828E+02  0.11629144176E+02 -0.14639257067E+03  0.14883767966E+03  0.00000000000E+00 0. -1.
        -12    1    4    4    0    0 -0.39510677513E+02 -0.66092798699E+02 -0.13026618078E+03  0.15132293129E+03  0.00000000000E+00 0.  1.
</event>
<event>
12    1  0.8135779E-002  0.2288437E+03  0.7818608E-02  0.1127618E+00
         21   -1    0    0  503  502  0.00000000000E+00  0.00000000000E+00  0.28461282603E+03  0.28461282603E+03  0.00000000000E+00 0.  1.
         21   -1    0    0  501  503 -0.00000000000E+00 -0.00000000000E+00 -0.22618976738E+03  0.22618976738E+03  0.00000000000E+00 0. -1.
          6    2    1    2  501    0  0.14333832858E+03 -0.43705766918E+02 -0.82091144814E+02  0.24226272425E+03  0.17174458070E+03 0.  0.
         24    2    3    3    0    0  0.83284700862E+02  0.33835406664E+02 -0.79617671176E+02  0.14404215678E+03  0.79548684609E+02 0.  0.
         -6    2    1    2    0  502 -0.14333832858E+03  0.43705766918E+02  0.14051420346E+03  0.26853986916E+03  0.17295476128E+03 0.  0.
        -24    2    5    5    0    0 -0.59403242674E+02  0.34028728273E+02  0.15017202965E+03  0.18336882167E+03  0.79911117397E+02 0.  0.
          5    1    3    3  501    0  0.60053627720E+02 -0.77541173582E+02 -0.24734736381E+01  0.98220567472E+02  0.47000000000E+01 0. -1.
        -13    1    4    4    0    0  0.11632729573E+02  0.45834745172E+02 -0.28524406183E+02  0.55224867681E+02  0.00000000000E+00 0.  1.
         14    1    4    4    0    0  0.71651971290E+02 -0.11999338508E+02 -0.51093264993E+02  0.88817289094E+02  0.00000000000E+00 0. -1.
         -5    1    5    5    0  502 -0.83935085908E+02  0.96770386452E+01 -0.96578261877E+01  0.85171047487E+02  0.47000000000E+01 0.  1.
         13    1    6    6    0    0 -0.26247879680E+02  0.23645185330E+02  0.69652634854E+01  0.36007789052E+02  0.00000000000E+00 0. -1.
        -14    1    6    6    0    0 -0.33155362994E+02  0.10383542943E+02  0.14320676616E+03  0.14736103262E+03  0.00000000000E+00 0.  1.
</event>
<event>
12    1  0.8135779E-002  0.2700847E+03  0.7818608E-02  0.1102225E+00
         21   -1    0    0  501  502  0.00000000000E+00  0.00000000000E+00  0.11247051956E+03  0.11247051956E+03  0.00000000000E+00 0.  1.
         21   -1    0    0  502  503 -0.00000000000E+00 -0.00000000000E+00 -0.69415123320E+03  0.69415123320E+03  0.00000000000E+00 0.  1.
         -6    2    1    2    0  503 -0.18517087837E+03 -0.83952807531E+02 -0.40788656833E+03  0.48545177661E+03  0.16719942196E+03 0.  0.
        -24    2    3    3    0    0 -0.69417535197E+02 -0.46983670250E+01 -0.95197272905E+02  0.14270290606E+03  0.80378664971E+02 0.  0.
          6    2    1    2  501    0  0.18517087837E+03  0.83952807531E+02 -0.17379414531E+03  0.32116997615E+03  0.17779038374E+03 0.  0.
         24    2    5    5    0    0  0.94065443995E+02  0.97649955192E+02 -0.40612812654E+02  0.15916019437E+03  0.72792481865E+02 0.  0.
          5    1    5    5  501    0  0.91105434371E+02 -0.13697147661E+02 -0.13318133266E+03  0.16200978178E+03  0.47000000000E+01 0. -1.
        -13    1    6    6    0    0  0.78738803716E+02  0.10912451685E+03 -0.38060437962E+02  0.13984475795E+03  0.00000000000E+00 0.  1.
         14    1    6    6    0    0  0.15326640279E+02 -0.11474561656E+02 -0.25523746927E+01  0.19315436418E+02  0.00000000000E+00 0. -1.
         -5    1    3    3    0  503 -0.11575334317E+03 -0.79254440506E+02 -0.31268929542E+03  0.34274887056E+03  0.47000000000E+01 0.  1.
         13    1    4    4    0    0 -0.14566747569E+01  0.90401624611E+00 -0.69975696770E+02  0.69996694816E+02  0.00000000000E+00 0. -1.
        -14    1    4    4    0    0 -0.67960860440E+02 -0.56023832711E+01 -0.25221576136E+02  0.72706211240E+02  0.00000000000E+00 0.  1.
</event>
<event>
12    1  0.8135779E-002  0.2146143E+03  0.7818608E-02  0.1138157E+00
         21   -1    0    0  503  502  0.00000000000E+00  0.00000000000E+00  0.11544263498E+04  0.11544263498E+04  0.00000000000E+00 0.  1.
         21   -1    0    0  501  503 -0.00000000000E+00 -0.00000000000E+00 -0.40487831055E+02  0.40487831055E+02  0.00000000000E+00 0. -1.
          6    2    1    2  501    0  0.21770007643E+02  0.12545748438E+03  0.47553906915E+03  0.52172475938E+03  0.17275938365E+03 0.  0.
         24    2    3    3    0    0 -0.19112991820E+02  0.16207574057E+02  0.11114936015E+03  0.13909058346E+03  0.79774796983E+02 0.  0.
         -6    2    1    2    0  502 -0.21770007643E+02 -0.12545748438E+03  0.63839944962E+03  0.67318942150E+03  0.17151275850E+03 0.  0.
        -24    2    5    5    0    0 -0.41658546997E+02 -0.30983018828E+01  0.25294489581E+03  0.26826396343E+03  0.78989871175E+02 0.  0.
          5    1    3    3  501    0  0.40882999462E+02  0.10924991033E+03  0.36438970900E+03  0.38263417592E+03  0.47000000000E+01 0. -1.
        -13    1    4    4    0    0 -0.15532793494E+02 -0.27064149053E+02  0.79369411507E+02  0.85283288637E+02  0.00000000000E+00 0.  1.
         14    1    4    4    0    0 -0.35801983260E+01  0.43271723110E+02  0.31779948641E+02  0.53807294827E+02  0.00000000000E+00 0. -1.
         -5    1    5    5    0  502  0.19888539354E+02 -0.12235918250E+03  0.38545455381E+03  0.40492545807E+03  0.47000000000E+01 0.  1.
         11    1    6    6    0    0  0.97584722377E+01  0.83375467416E+01  0.34796940806E+01  0.13298523865E+02  0.00000000000E+00 0. -1.
        -12    1    6    6    0    0 -0.51417019234E+02 -0.11435848624E+02  0.24946520173E+03  0.25496543956E+03  0.00000000000E+00 0.  1.
</event>
<event>
12    1  0.8135779E-002  0.1873826E+03  0.7818608E-02  0.1160939E+00
         21   -1    0    0  501  502  0.00000000000E+00  0.00000000000E+00  0.13930206796E+04  0.13930206796E+04  0.00000000000E+00 0.  1.
         21   -1    0    0  502  503 -0.00000000000E+00 -0.00000000000E+00 -0.85706443138E+02  0.85706443138E+02  0.00000000000E+00 0.  1.
         -6    2    1    2    0  503  0.63357857509E+02  0.42453525368E+02  0.31956782401E+02  0.18967751556E+03  0.17070384894E+03 0.  0.
        -24    2    3    3    0    0  0.89094052188E+02  0.73905772217E+02  0.30283197553E+02  0.14873259604E+03  0.88343079905E+02 0.  0.
          6    2    1    2  501    0 -0.63357857509E+02 -0.42453525368E+02  0.12753574541E+04  0.12890496072E+04  0.17115996676E+03 0.  0.
         24    2    5    5    0    0  0.14957824874E+02  0.68367149011E+01  0.37968730017E+03  0.38859972603E+03  0.81097619970E+02 0.  0.
          5    1    5    5  501    0 -0.78315682384E+02 -0.49290240269E+02  0.89567015391E+03  0.90044988117E+03  0.47000000000E+01 0. -1.
        -13    1    6    6    0    0  0.30521600639E+02 -0.27094156591E+02  0.26125114329E+03  0.26441978235E+03  0.00000000000E+00 0.  1.
         14    1    6    6    0    0 -0.15563775764E+02  0.33930871492E+02  0.11843615688E+03  0.12417994368E+03  0.00000000000E+00 0. -1.
         -5    1    3    3    0  503 -0.25736194679E+02 -0.31452246849E+02  0.16735848481E+01  0.40944919522E+02  0.47000000000E+01 0.  1.
         13    1    4    4    0    0  0.55623631099E+02  0.21373590991E+02  0.55596074337E+02  0.81496884666E+02  0.00000000000E+00 0. -1.
        -14    1    4    4    0    0  0.33470421089E+02  0.52532181226E+02 -0.25312876785E+02  0.67235711370E+02  0.00000000000E+00 0.  1.
</event>
<event>
12    1  0.8135779E-002  0.1797578E+03  0.7818608E-02  0.1169342E+00
         21   -1    0    0  501  502  0.00000000000E+00  0.00000000000E+00  0.14796611180E+03  0.14796611180E+03  0.00000000000E+00 0.  1.
         21   -1    0    0  502  503 -0.00000000000E+00 -0.00000000000E+00 -0.23683772639E+03  0.23683772639E+03  0.00000000000E+00 0.  1.
         -6    2    1    2    0  503  0.16242620093E+02 -0.21635648631E+02  0.18470007495E+02  0.17543550019E+03  0.17235007847E+03 0.  0.
        -24    2    3    3    0    0  0.68719595369E+02  0.21655718866E+02  0.19118713646E+02  0.10724102641E+03  0.77095781898E+02 0.  0.
          6    2    1    2  501    0 -0.16242620093E+02  0.21635648631E+02 -0.10734162208E+03  0.20936833800E+03  0.17771030676E+03 0.  0.
         24    2    5    5    0    0 -0.42277617882E+01 -0.75153750285E+01 -0.14238940243E+03  0.16199138256E+03  0.76760089030E+02 0.  0.
          5    1    5    5  501    0 -0.12014858304E+02  0.29151023660E+02  0.35047780342E+02  0.47376955447E+02  0.47000000000E+01 0. -1.
        -13    1    6    6    0    0  0.22735093760E+02  0.21625036968E+02 -0.95658238162E+02  0.10067286248E+03  0.00000000000E+00 0.  1.
         14    1    6    6    0    0 -0.26962855549E+02 -0.29140411996E+02 -0.46731164264E+02  0.61318520075E+02  0.00000000000E+00 0. -1.
         -5    1    3    3    0  503 -0.52476975277E+02 -0.43291367497E+02 -0.64870615160E+00  0.68194473777E+02  0.47000000000E+01 0.  1.
         11    1    4    4    0    0  0.38229045150E+02  0.33053541869E+02  0.43412906731E+02  0.66623396746E+02  0.00000000000E+00 0. -1.
        -12    1    4    4    0    0  0.30490550219E+02 -0.11397823002E+02 -0.24294193084E+02  0.40617629664E+02  0.00000000000E+00 0.  1.
</event>
<event>
12    1  0.8135779E-002  0.3063631E+03  0.7818608E-02  0.1082700E+00
         21   -1    0    0  503  502  0.00000000000E+00  0.00000000000E+00  0.29549392439E+03  0.29549392439E+03  0.00000000000E+00 0. -1.
         21   -1    0    0  501  503 -0.00000000000E+00 -0.00000000000E+00 -0.69439790765E+03  0.69439790765E+03  0.00000000000E+00 0.  1.
          6    2    1    2  501    0  0.80430943851E+02 -0.23467089249E+03 -0.56573086540E+03  0.64105156532E+03  0.17133631498E+03 0.  0.
         24    2    3    3    0    0  0.66826512783E+02 -0.23047802860E+03 -0.39135817750E+03  0.46603560908E+03  0.80262453016E+02 0.  0.
         -6    2    1    2    0  502 -0.80430943851E+02  0.23467089249E+03  0.16682688213E+03  0.34884026671E+03  0.17977418772E+03 0.  0.
        -24    2    5    5    0    0 -0.16399565372E+02  0.23952348332E+02  0.21132038624E+02  0.84735363874E+02  0.76751925705E+02 0.  0.
          5    1    3    3  501    0  0.13604431068E+02 -0.41928638857E+01 -0.17437268790E+03  0.17501595624E+03  0.47000000000E+01 0. -1.
        -13    1    4    4    0    0  0.39781313451E+02 -0.75639295084E+02 -0.20587651171E+03  0.22291028226E+03  0.00000000000E+00 0.  1.
         14    1    4    4    0    0  0.27045199332E+02 -0.15483873352E+03 -0.18548166578E+03  0.24312532683E+03  0.00000000000E+00 0. -1.
         -5    1    5    5    0  502 -0.64031378479E+02  0.21071854415E+03  0.14569484351E+03  0.26410490284E+03  0.47000000000E+01 0.  1.
         13    1    6    6    0    0 -0.10432073723E+02  0.48164673234E+02  0.30659706626E+02  0.58040343902E+02  0.00000000000E+00 0. -1.
        -14    1    6    6    0    0 -0.59674916489E+01 -0.24212324902E+02 -0.95276680015E+01  0.26695019972E+02  0.00000000000E+00 0.  1.
</event>
<event>
12    1  0.8135779E-002  0.3487015E+03  0.7818608E-02  0.1063285E+00
         21   -1    0    0  501  502  0.00000000000E+00  0.00000000000E+00  0.59178408612E+03  0.59178408612E+03  0.00000000000E+00 0.  1.
         21   -1    0    0  502  503 -0.00000000000E+00 -0.00000000000E+00 -0.21709046245E+03  0.21709046245E+03  0.00000000000E+00 0.  1.
         -6    2    1    2    0  503  0.16807594714E+03  0.25110828352E+03  0.90360001403E+02  0.35894308801E+03  0.17137770133E+03 0.  0.
        -24    2    3    3    0    0  0.18920504005E+03  0.24761419318E+03  0.96666316489E+02  0.33612846891E+03  0.80787592043E+02 0.  0.
          6    2    1    2  501    0 -0.16807594714E+03 -0.25110828352E+03  0.28433362227E+03  0.44993146056E+03  0.17403395182E+03 0.  0.
         24    2    5    5    0    0 -0.98622095299E+02 -0.97146508420E+02  0.21290675106E+03  0.26648677228E+03  0.80759849996E+02 0.  0.
          5    1    5    5  501    0 -0.69453851844E+02 -0.15396177510E+03  0.71426871213E+02  0.18344468829E+03  0.47000000000E+01 0. -1.
        -11    1    6    6    0    0 -0.76922971007E+01 -0.86194941962E+01 -0.63266243606E+01  0.13171685188E+02  0.00000000000E+00 0.  1.
         12    1    6    6    0    0 -0.90929798198E+02 -0.88527014224E+02  0.21923337542E+03  0.25331508709E+03  0.00000000000E+00 0. -1.
         -5    1    3    3    0  503 -0.21129092907E+02  0.34940903457E+01 -0.63063150865E+01  0.22814619094E+02  0.47000000000E+01 0.  1.
         13    1    4    4    0    0  0.46640829022E+02  0.46273883303E+02 -0.11594531117E+02  0.66716357512E+02  0.00000000000E+00 0. -1.
        -14    1    4    4    0    0  0.14256421103E+03  0.20134030987E+03  0.10826084761E+03  0.26941211140E+03  0.00000000000E+00 0.  1.
</event>
<event>
12    1  0.8135779E-002  0.2299470E+03  0.7818608E-02  0.1126892E+00
         21   -1    0    0  503  502  0.00000000000E+00  0.00000000000E+00  0.75581459142E+03  0.75581459142E+03  0.00000000000E+00 0. -1.
         21   -1    0    0  501  503 -0.00000000000E+00 -0.00000000000E+00 -0.13671781286E+03  0.13671781286E+03  0.00000000000E+00 0. -1.
          6    2    1    2  501    0  0.13660872404E+03 -0.63706926806E+02 -0.35770766391E+01  0.22875656725E+03  0.17203562298E+03 0.  0.
         24    2    3    3    0    0  0.16281666378E+02 -0.21345114162E+02  0.41950624399E+02  0.93228025835E+02  0.78809284700E+02 0.  0.
         -6    2    1    2    0  502 -0.13660872404E+03  0.63706926806E+02  0.62267385520E+03  0.66377583703E+03  0.17365228439E+03 0.  0.
        -24    2    5    5    0    0 -0.97078055808E+02  0.28966675267E+02  0.19459228138E+03  0.23244593701E+03  0.76822786110E+02 0.  0.
          5    1    3    3  501    0  0.12032705766E+03 -0.42361812644E+02 -0.45527701038E+02  0.13552854141E+03  0.47000000000E+01 0. -1.
        -11    1    4    4    0    0  0.22431362709E+02  0.98405650262E+01 -0.14484450515E+02  0.28457021273E+02  0.00000000000E+00 0.  1.
         12    1    4    4    0    0 -0.61496963314E+01 -0.31185679188E+02  0.56435074914E+02  0.64771004562E+02  0.00000000000E+00 0. -1.
         -5    1    5    5    0  502 -0.39530668232E+02  0.34740251538E+02  0.42808157382E+03  0.43132990002E+03  0.47000000000E+01 0.  1.
         13    1    6    6    0    0 -0.48827415723E+02  0.42495908517E+02  0.15694076698E+03  0.16976578898E+03  0.00000000000E+00 0. -1.
        -14    1    6    6    0    0 -0.48250640085E+02 -0.13529233250E+02  0.37651514393E+02  0.62680148030E+02  0.00000000000E+00 0.  1.
</event>
<event>
12    1  0.8135779E-002  0.1878829E+03  0.7818608E-02  0.1161165E+00
         21   -1    0    0  503  502  0.00000000000E+00  0.00000000000E+00  0.20768975369E+03  0.20768975369E+03  0.00000000000E+00 0. -1.
         21   -1    0    0  501  503 -0.00000000000E+00 -0.00000000000E+00 -0.16804867568E+03  0.16804867568E+03  0.00000000000E+00 0. -1.
          6    2    1    2  501    0  0.69137748230E+02  0.87669669295E+01  0.42645326572E+01  0.18455395966E+03  0.17083644180E+03 0.  0.
         24    2    3    3    0    0 -0.11085825426E+02  0.47146382105E+02  0.17754490589E+02  0.94482486684E+02  0.79158331735E+02 0.  0.
         -6    2    1    2    0  502 -0.69137748230E+02 -0.87669669295E+01  0.35376545352E+02  0.19118446971E+03  0.17447955055E+03 0.  0.
        -24    2    5    5    0    0 -0.66142176444E+02 -0.69276529102E+02  0.39269209198E+02  0.13029421272E+03  0.79123233561E+02 0.  0.
          5    1    3    3  501    0  0.80223573656E+02 -0.38379415175E+02 -0.13489957932E+02  0.90071472977E+02  0.47000000000E+01 0. -1.
        -13    1    4    4    0    0 -0.12291002423E+02 -0.19504466556E+02 -0.58158750242E+01  0.23776403397E+02  0.00000000000E+00 0.  1.
         14    1    4    4    0    0  0.12051769968E+01  0.66650848660E+02  0.23570365614E+02  0.70706083288E+02  0.00000000000E+00 0. -1.
         -5    1    5    5    0  502 -0.29955717852E+01  0.60509562172E+02 -0.38926638455E+01  0.60890256991E+02  0.47000000000E+01 0.  1.
         11    1    6    6    0    0 -0.67250111100E+02 -0.24175494069E+02  0.15362061974E+01  0.71480010394E+02  0.00000000000E+00 0. -1.
        -12    1    6    6    0    0  0.11079346557E+01 -0.45101035033E+02  0.37733003001E+02  0.58814202330E+02  0.00000000000E+00 0.  1.
</event>
<event>
12    1  0.8135779E-002  0.2054974E+03  0.7818608E-02  0.1145359E+00
         21   -1    0    0  501  502  0.00000000000E+00  0.00000000000E+00  0.42687712862E+03  0.42687712862E+03  0.00000000000E+00 0.  1.
         21   -1    0    0  502  503 -0.00000000000E+00 -0.00000000000E+00 -0.98577893854E+02  0.98577893854E+02  0.00000000000E+00 0.  1.
         -6    2    1    2    0  503  0.92687395254E+02  0.62516240769E+02  0.15749893039E+03  0.25891137128E+03  0.17242375562E+03 0.  0.
        -24    2    3    3    0    0  0.26975400287E+02  0.26439829284E+01  0.16537513495E+02  0.92193152130E+02  0.86553018900E+02 0.  0.
          6    2    1    2  501    0 -0.92687395254E+02 -0.62516240769E+02  0.17080030437E+03  0.26654365120E+03  0.17138710693E+03 0.  0.
         24    2    5    5    0    0 -0.63914103499E+02 -0.10657818129E+03  0.14760249090E+03  0.20884109085E+03  0.79901092325E+02 0.  0.
          5    1    5    5  501    0 -0.28773291756E+02  0.44061940517E+02  0.23197813467E+02  0.57702560344E+02  0.47000000000E+01 0. -1.
        -11    1    6    6    0    0 -0.59753870726E+02 -0.47277864292E+02  0.40359395653E+02  0.86224140102E+02  0.00000000000E+00 0.  1.
         12    1    6    6    0    0 -0.41602327729E+01 -0.59300316994E+02  0.10724309525E+03  0.12261695075E+03  0.00000000000E+00 0. -1.
         -5    1    3    3    0  503  0.65711994968E+02  0.59872257841E+02  0.14096141690E+03  0.16671821915E+03  0.47000000000E+01 0.  1.
         11    1    4    4    0    0 -0.89040626159E+01  0.32111402460E+02  0.28940516185E+02  0.44135903481E+02  0.00000000000E+00 0. -1.
        -12    1    4    4    0    0  0.35879462902E+02 -0.29467419532E+02 -0.12403002689E+02  0.48057248649E+02  0.00000000000E+00 0.  1.
</event>
<event>
12    1  0.8135779E-002  0.2446176E+03  0.7818608E-02  0.1117229E+00
         21   -1    0    0  503  502  0.00000000000E+00  0.00000000000E+00  0.16442727742E+03  0.16442727742E+03  0.00000000000E+00 0.  1.
         21   -1    0    0  501  503 -0.00000000000E+00 -0.00000000000E+00 -0.35983447306E+03  0.35983447306E+03  0.00000000000E+00 0. -1.
          6    2    1    2  501    0 -0.81090796387E+02 -0.14922374468E+03 -0.10478021516E+03  0.26611398262E+03  0.17605202362E+03 0.  0.
         24    2    3    3    0    0 -0.10540520313E+03 -0.10864327714E+03 -0.25762880463E+02  0.17389796501E+03  0.81628167393E+02 0.  0.
         -6    2    1    2    0  502  0.81090796387E+02  0.14922374468E+03 -0.90626980483E+02  0.25814776787E+03  0.17199877101E+03 0.  0.
        -24    2    5    5    0    0  0.66124780793E+02  0.13209928674E+03 -0.12948310655E+03  0.21288059195E+03  0.82033915894E+02 0.  0.
          5    1    3    3  501    0  0.24314406739E+02 -0.40580467547E+02 -0.79017334692E+02  0.92216017607E+02  0.47000000000E+01 0. -1.
        -11    1    4    4    0    0 -0.72977341011E+01 -0.73952515231E+00  0.19795654370E+02  0.21110939164E+02  0.00000000000E+00 0.  1.
         12    1    4    4    0    0 -0.98107469024E+02 -0.10790375198E+03 -0.45558534833E+02  0.15278702585E+03  0.00000000000E+00 0. -1.
         -5    1    5    5    0  502  0.14966015594E+02  0.17124457941E+02  0.38856126064E+02  0.45267175914E+02  0.47000000000E+01 0.  1.
         11    1    6    6    0    0  0.32789867272E+02  0.18954202469E+02 -0.20005207784E+00  0.37874492839E+02  0.00000000000E+00 0. -1.
        -12    1    6    6    0    0  0.33334913521E+02  0.11314508427E+03 -0.12928305447E+03  0.17500609911E+03  0.00000000000E+00 0.  1.
</event>
<event>
12    1  0.8135779E-002  0.1751435E+03  0.7818608E-02  0.1172850E+00
         21   -1    0    0  501  502  0.00000000000E+00  0.00000000000E+00  0.52649022207E+02  0.52649022207E+02  0.00000000000E+00 0. -1.
         21   -1    0    0  502  503 -0.00000000000E+00 -0.00000000000E+00 -0.60178684298E+03  0.60178684298E+03  0.00000000000E+00 0. -1.
         -6    2    1    2    0  503 -0.22539211039E+02 -0.22004334035E+02 -0.33878471709E+03  0.38137951521E+03  0.17228767609E+03 0.  0.
        -24    2    3    3    0    0 -0.73753485423E+02 -0.35132839083E+02 -0.17370958250E+03  0.20798069858E+03  0.80044106195E+02 0.  0.
          6    2    1    2  501    0  0.22539211039E+02  0.22004334035E+02 -0.21035310368E+03  0.27305634998E+03  0.17122831333E+03 0.  0.
         24    2    5    5    0    0  0.63932241203E+02  0.33950949177E+02 -0.21094607299E+03  0.22971415147E+03  0.55048590003E+02 0.  0.
          5    1    5    5  501    0 -0.41393030164E+02 -0.11946615142E+02  0.59296930319E+00  0.43342198515E+02  0.47000000000E+01 0. -1.
        -11    1    6    6    0    0  0.22594897600E+01  0.72768619019E+01  0.70571318176E+00  0.76521921180E+01  0.00000000000E+00 0.  1.
         12    1    6    6    0    0  0.61672751443E+02  0.26674087275E+02 -0.21165178617E+03  0.22206195935E+03  0.00000000000E+00 0. -1.
         -5    1    3    3    0  503  0.51214274384E+02  0.13128505048E+02 -0.16507513459E+03  0.17339881662E+03  0.47000000000E+01 0.  1.
         13    1    4    4    0    0 -0.74189210872E+02 -0.38832731223E+02 -0.18120093944E+03  0.19961412895E+03  0.00000000000E+00 0. -1.
        -14    1    4    4    0    0  0.43572544881E+00  0.36998921404E+01  0.74913569411E+01  0.83665696278E+01  0.00000000000E+00 0.  1.
</event>
<event>
12    1  0.8135779E-002  0.1768510E+03  0.7818608E-02  0.1171138E+00
         21   -1    0    0  501  502  0.00000000000E+00  0.00000000000E+00  0.63440758559E+03  0.63440758559E+03  0.00000000000E+00 0.  1.
         21   -1    0    0  502  503 -0.00000000000E+00 -0.00000000000E+00 -0.68642510479E+02  0.68642510479E+02  0.00000000000E+00 0.  1.
         -6    2    1    2    0  503  0.20611572498E+01 -0.39869195898E+02  0.94341342709E+02  0.19954577004E+03  0.17124375681E+03 0.  0.
        -24    2    3    3    0    0 -0.17305543156E+02  0.16194465507E+02  0.12078342149E+03  0.13443450569E+03  0.54057921482E+02 0.  0.
          6    2    1    2  501    0 -0.20611572498E+01  0.39869195898E+02  0.47142373241E+03  0.50350432603E+03  0.17228601135E+03 0.  0.
         24    2    5    5    0    0  0.48591434997E+02  0.71489178879E+02  0.31599660140E+03  0.33693544695E+03  0.78738891698E+02 0.  0.
          5    1    5    5  501    0 -0.50652592247E+02 -0.31619982981E+02  0.15542713101E+03  0.16656887908E+03  0.47000000000E+01 0. -1.
        -13    1    6    6    0    0  0.33249705210E+02  0.78443540830E+02  0.30533842890E+03  0.31700234724E+03  0.00000000000E+00 0.  1.
         14    1    6    6    0    0  0.15341729787E+02 -0.69543619512E+01  0.10658172498E+02  0.19933099709E+02  0.00000000000E+00 0. -1.
         -5    1    3    3    0  503  0.19366700406E+02 -0.56063661405E+02 -0.26442078786E+02  0.65111264350E+02  0.47000000000E+01 0.  1.
         13    1    4    4    0    0  0.15750709489E+02 -0.63974741674E+01  0.53531929449E+02  0.56166538042E+02  0.00000000000E+00 0. -1.
        -14    1    4    4    0    0 -0.33056252645E+02  0.22591939674E+02  0.67251492046E+02  0.78267967647E+02  0.00000000000E+00 0.  1.
</event>
<event>
12    1  0.8135779E-002  0.2143387E+03  0.7818608E-02  0.1138368E+00
         21   -1    0    0  501  502  0.00000000000E+00  0.00000000000E+00  0.16898373243E+04  0.16898373243E+04  0.00000000000E+00 0. -1.
         21   -1    0    0  502  503 -0.00000000000E+00 -0.00000000000E+00 -0.30526127017E+02  0.30526127017E+02  0.00000000000E+00 0. -1.
         -6    2    1    2    0  503 -0.11616691074E+03 -0.49850572369E+02  0.54153316700E+03  0.58240814369E+03  0.17309316613E+03 0.  0.
        -24    2    3    3    0    0 -0.11945832052E+03 -0.18821390242E+02  0.52914085109E+03  0.54850677181E+03  0.79025966358E+02 0.  0.
          6    2    1    2  501    0  0.11616691074E+03  0.49850572369E+02  0.11177780303E+04  0.11379553076E+04  0.17185670325E+03 0.  0.
         24    2    5    5    0    0  0.95550704853E+02 -0.27193398867E+02  0.80646869694E+03  0.81655774622E+03  0.80655908848E+02 0.  0.
          5    1    5    5  501    0  0.20616205888E+02  0.77043971236E+02  0.31130933337E+03  0.32139756143E+03  0.47000000000E+01 0. -1.
        -11    1    6    6    0    0  0.30213631682E+02  0.93359396885E+01  0.50300564247E+03  0.50399870998E+03  0.00000000000E+00 0.  1.
         12    1    6    6    0    0  0.65337073171E+02 -0.36529338555E+02  0.30346305447E+03  0.31255903624E+03  0.00000000000E+00 0. -1.
         -5    1    3    3    0  503  0.32914097806E+01 -0.31029182127E+02  0.12392315912E+02  0.33901371882E+02  0.47000000000E+01 0.  1.
         11    1    4    4    0    0 -0.10722658335E+03 -0.88533410393E+01  0.29799899599E+03  0.31682696134E+03  0.00000000000E+00 0. -1.
        -12    1    4    4    0    0 -0.12231737176E+02 -0.99680492030E+01  0.23114185510E+03  0.23167981047E+03  0.00000000000E+00 0.  1.
</event>
<event>
12    1  0.8135779E-002  0.2068442E+03  0.7818608E-02  0.1144236E+00
         21   -1    0    0  501  502  0.00000000000E+00  0.00000000000E+00  0.50784850911E+02  0.50784850911E+02  0.00000000000E+00 0.  1.
         21   -1    0    0  502  503 -0.00000000000E+00 -0.00000000000E+00 -0.88917495550E+03  0.88917495550E+03  0.00000000000E+00 0.  1.
         -6    2    1    2    0  503 -0.11288655294E+03 -0.23425182029E+02 -0.53095549713E+03  0.56982301178E+03  0.17173354892E+03 0.  0.
        -24    2    3    3    0    0 -0.36976201183E+02 -0.46587895112E+02 -0.43006204047E+03  0.44136884727E+03  0.79469675126E+02 0.  0.
          6    2    1    2  501    0  0.11288655294E+03  0.23425182029E+02 -0.30743460745E+03  0.37013679463E+03  0.17085987210E+03 0.  0.
         24    2    5    5    0    0  0.10543299571E+03  0.71658110880E+02 -0.26773346254E+03  0.30704763671E+03  0.79662053716E+02 0.  0.
          5    1    5    5  501    0  0.74535572286E+01 -0.48232928851E+02 -0.39701144906E+02  0.63089157926E+02  0.47000000000E+01 0. -1.
        -13    1    6    6    0    0  0.41483400631E+02  0.66736365197E+02 -0.19406749917E+03  0.20937241748E+03  0.00000000000E+00 0.  1.
         14    1    6    6    0    0  0.63949595077E+02  0.49217456830E+01 -0.73665963379E+02  0.97675219230E+02  0.00000000000E+00 0. -1.
         -5    1    3    3    0  503 -0.75910351754E+02  0.23162713083E+02 -0.10089345667E+03  0.12845416451E+03  0.47000000000E+01 0.  1.
         11    1    4    4    0    0 -0.20728948413E+02  0.14445496191E+02 -0.49228748688E+02  0.55333817507E+02  0.00000000000E+00 0. -1.
        -12    1    4    4    0    0 -0.16247252769E+02 -0.61033391303E+02 -0.38083329178E+03  0.38603502976E+03  0.00000000000E+00 0.  1.
</event>
<event>
12    1  0.8135779E-002  0.2146364E+03  0.7818608E-02  0.1140239E+00
         21   -1    0    0  501  502  0.00000000000E+00  0.00000000000E+00  0.34802754129E+03  0.34802754129E+03  0.00000000000E+00 0. -1.
         21   -1    0    0  502  503 -0.00000000000E+00 -0.00000000000E+00 -0.17145366995E+03  0.17145366995E+03  0.00000000000E+00 0. -1.
         -6    2    1    2    0  503  0.72259856046E+02  0.79360691910E+02 -0.44601380573E+02  0.21922151948E+03  0.18587411126E+03 0.  0.
        -24    2    3    3    0    0  0.99447702019E+02  0.33414168627E+02  0.14875187202E+02  0.13916020494E+03  0.90210527899E+02 0.  0.
          6    2    1    2  501    0 -0.72259856046E+02 -0.79360691910E+02  0.22117525191E+03  0.30025969176E+03  0.17238846894E+03 0.  0.
         24    2    5    5    0    0 -0.35598139119E+02 -0.12004391144E+03  0.15813435778E+03  0.21662088395E+03  0.78995975026E+02 0.  0.
          5    1    5    5  501    0 -0.36661716927E+02  0.40683219528E+02  0.63040894131E+02  0.83638807811E+02  0.47000000000E+01 0. -1.
        -11    1    6    6    0    0  0.13951065141E+02 -0.36596299342E+01  0.43799581788E+02  0.46113213667E+02  0.00000000000E+00 0.  1.
         12    1    6    6    0    0 -0.49549204260E+02 -0.11638428150E+03  0.11433477599E+03  0.17050767028E+03  0.00000000000E+00 0. -1.
         -5    1    3    3    0  503 -0.27187845973E+02  0.45946523284E+02 -0.59476567775E+02  0.80061314533E+02  0.47000000000E+01 0.  1.
         11    1    4    4    0    0  0.45167465857E+02  0.34191706486E+02  0.49116647383E+02  0.74977448706E+02  0.00000000000E+00 0. -1.
        -12    1    4    4    0    0  0.54280236163E+02 -0.77753785900E+00 -0.34241460181E+02  0.64182756238E+02  0.00000000000E+00 0.  1.
</event>
<event>
12    1  0.8135779E-002  0.1941425E+03  0.7818608E-02  0.1154961E+00
         21   -1    0    0  503  502  0.00000000000E+00  0.00000000000E+00  0.16397264870E+02  0.16397264870E+02  0.00000000000E+00 0. -1.
         21   -1    0    0  501  503 -0.00000000000E+00 -0.00000000000E+00 -0.25029101783E+04  0.25029101783E+04  0.00000000000E+00 0. -1.
          6    2    1    2  501    0 -0.44193264731E+02  0.80163917435E+02 -0.16092667666E+04  0.16208353433E+04  0.17025975917E+03 0.  0.
         24    2    3    3    0    0 -0.17937334216E+02 -0.10246744747E+02 -0.10735055941E+04  0.10768449154E+04  0.82182524776E+02 0.  0.
         -6    2    1    2    0  502  0.44193264731E+02 -0.80163917435E+02 -0.87724614681E+03  0.89847209988E+03  0.17120751698E+03 0.  0.
        -24    2    5    5    0    0  0.17159842618E+02 -0.74434101299E+02 -0.28211384124E+03  0.30268003226E+03  0.78689814320E+02 0.  0.
          5    1    3    3  501    0 -0.26255930515E+02  0.90410662182E+02 -0.53576117245E+03  0.54399042789E+03  0.47000000000E+01 0. -1.
        -13    1    4    4    0    0  0.28809922847E+02  0.86416689123E+01 -0.25105802625E+03  0.25285336194E+03  0.00000000000E+00 0.  1.
         14    1    4    4    0    0 -0.46747257063E+02 -0.18888413660E+02 -0.82244756788E+03  0.82399155343E+03  0.00000000000E+00 0. -1.
         -5    1    5    5    0  502  0.27033422113E+02 -0.57298161358E+01 -0.59513230557E+03  0.59579206762E+03  0.47000000000E+01 0.  1.
         11    1    6    6    0    0 -0.11763908886E+02  0.81003384879E+01 -0.11661525421E+02  0.18438986172E+02  0.00000000000E+00 0. -1.
        -12    1    6    6    0    0  0.28923751505E+02 -0.82534439787E+02 -0.27045231582E+03  0.28424104609E+03  0.00000000000E+00 0.  1.
</event>
<event>
12    1  0.8135779E-002  0.1888543E+03  0.7818608E-02  0.1159947E+00
         21   -1    0    0  503  502  0.00000000000E+00  0.00000000000E+00  0.11712955558E+03  0.11712955558E+03  0.00000000000E+00 0.  1.
         21   -1    0    0  501  503 -0.00000000000E+00 -0.00000000000E+00 -0.37526318282E+03  0.37526318282E+03  0.00000000000E+00 0.  1.
          6    2    1    2  501    0 -0.65015974726E+02  0.42052446344E+02 -0.23887272472E+03  0.30450962435E+03  0.17225111755E+03 0.  0.
         24    2    3    3    0    0  0.37358688493E+01  0.25804979979E+01 -0.20163189025E+03  0.21679519878E+03  0.79524357045E+02 0.  0.
         -6    2    1    2    0  502  0.65015974726E+02 -0.42052446344E+02 -0.19260902533E+02  0.18788311405E+03  0.17009878590E+03 0.  0.
        -24    2    5    5    0    0  0.39231327592E+02 -0.26696313844E+02 -0.78414227593E+02  0.12138601111E+03  0.79586320224E+02 0.  0.
          5    1    3    3  501    0 -0.68751843576E+02  0.39471948346E+02 -0.37240834464E+02  0.87714425569E+02  0.47000000000E+01 0. -1.
        -13    1    4    4    0    0 -0.22789171818E+02  0.29228297590E+02 -0.13795043493E+03  0.14284243847E+03  0.00000000000E+00 0.  1.
         14    1    4    4    0    0  0.26525040667E+02 -0.26647799592E+02 -0.63681455323E+02  0.73952760311E+02  0.00000000000E+00 0. -1.
         -5    1    5    5    0  502  0.25784647134E+02 -0.15356132501E+02  0.59153325060E+02  0.66497102936E+02  0.47000000000E+01 0.  1.
         13    1    6    6    0    0  0.41969178617E+02  0.16872354135E+02 -0.56984389014E+02  0.72755129572E+02  0.00000000000E+00 0. -1.
        -14    1    6    6    0    0 -0.27378510246E+01 -0.43568667978E+02 -0.21429838579E+02  0.48630881538E+02  0.00000000000E+00 0.  1.
</event>
<event>
12    1  0.8135779E-002  0.2055045E+03  0.7818608E-02  0.1145215E+00
         21   -1    0    0  501  502  0.00000000000E+00  0.00000000000E+00  0.37860458377E+03  0.37860458377E+03  0.00000000000E+00 0.  1.
         21   -1    0    0  502  503 -0.00000000000E+00 -0.00000000000E+00 -0.12144181017E+03  0.12144181017E+03  0.00000000000E+00 0.  1.
         -6    2    1    2    0  503  0.46094313027E+02 -0.10103415214E+03  0.56896965825E+02  0.21323548967E+03  0.17291478752E+03 0.  0.
        -24    2    3    3    0    0 -0.27318583202E+02 -0.89859851647E+02  0.61080638472E+01  0.12314708371E+03  0.79415350259E+02 0.  0.
          6    2    1    2  501    0 -0.46094313027E+02  0.10103415214E+03  0.20026580777E+03  0.28681090427E+03  0.17268907161E+03 0.  0.
         24    2    5    5    0    0  0.43920626403E+02  0.63084185803E+02  0.96978990902E+02  0.14456764150E+03  0.74741169174E+02 0.  0.
          5    1    5    5  501    0 -0.90014939430E+02  0.37949966339E+02  0.10328681687E+03  0.14224326278E+03  0.47000000000E+01 0. -1.
        -11    1    6    6    0    0 -0.57750084243E+01  0.38478899715E+02  0.75807733961E+02  0.85210263313E+02  0.00000000000E+00 0.  1.
         12    1    6    6    0    0  0.49695634828E+02  0.24605286088E+02  0.21171256941E+02  0.59357378184E+02  0.00000000000E+00 0. -1.
         -5    1    3    3    0  503  0.73412896228E+02 -0.11174300495E+02  0.50788901978E+02  0.90088405960E+02  0.47000000000E+01 0.  1.
         11    1    4    4    0    0 -0.30213518981E+02 -0.13633700528E+01 -0.12403521335E+02  0.32688879587E+02  0.00000000000E+00 0. -1.
        -12    1    4    4    0    0  0.28949357796E+01 -0.88496481594E+02  0.18511585182E+02  0.90458204126E+02  0.00000000000E+00 0.  1.
</event>
<event>
12    1  0.8135779E-002  0.1895252E+03  0.7818608E-02  0.1159234E+00
         21   -1    0    0  503  502  0.00000000000E+00  0.00000000000E+00  0.34831160392E+03  0.34831160392E+03  0.00000000000E+00 0.  1.
         21   -1    0    0  501  503 -0.00000000000E+00 -0.00000000000E+00 -0.12452712607E+03  0.12452712607E+03  0.00000000000E+00 0.  1.
          6    2    1    2  501    0 -0.78104778989E+02 -0.11850240236E+02  0.12385538143E+02  0.18992947919E+03  0.17227600186E+03 0.  0.
         24    2    3    3    0    0  0.27850924007E+02 -0.12628612626E+02 -0.23457373663E+01  0.82848587625E+02  0.76962524405E+02 0.  0.
         -6    2    1    2    0  502  0.78104778989E+02  0.11850240236E+02  0.21139893971E+03  0.28290925080E+03  0.17060875647E+03 0.  0.
        -24    2    5    5    0    0  0.11253855587E+03 -0.20425759800E+02  0.17044458367E+03  0.22024527034E+03  0.79840370632E+02 0.  0.
          5    1    3    3  501    0 -0.10595570300E+03  0.77837238955E+00  0.14731275509E+02  0.10708089157E+03  0.47000000000E+01 0. -1.
        -13    1    4    4    0    0 -0.20896278335E+02 -0.19409252191E+02 -0.14728358581E+02  0.32098256422E+02  0.00000000000E+00 0.  1.
         14    1    4    4    0    0  0.48747202341E+02  0.67806395652E+01  0.12382621215E+02  0.50750331203E+02  0.00000000000E+00 0. -1.
         -5    1    5    5    0  502 -0.34433776881E+02  0.32276000037E+02  0.40954356031E+02  0.62663980456E+02  0.47000000000E+01 0.  1.
         11    1    6    6    0    0  0.45571282921E+02 -0.25681733682E+02  0.20943469710E+02  0.56346447940E+02  0.00000000000E+00 0. -1.
        -12    1    6    6    0    0  0.66967272949E+02  0.52559738817E+01  0.14950111396E+03  0.16389882240E+03  0.00000000000E+00 0.  1.
</event>
<event>
12    1  0.8135779E-002  0.1917360E+03  0.7818608E-02  0.1157572E+00
         21   -1    0    0  501  502  0.00000000000E+00  0.00000000000E+00  0.29238148145E+03  0.29238148145E+03  0.00000000000E+00 0.  1.
         21   -1    0    0  502  503 -0.00000000000E+00 -0.00000000000E+00 -0.12901039464E+03  0.12901039464E+03  0.00000000000E+00 0.  1.
         -6    2    1    2    0  503 -0.74605500436E+02 -0.11206728032E+02  0.38711839379E+02  0.19269422197E+03  0.17303434695E+03 0.  0.
        -24    2    3    3    0    0 -0.57661217031E+02 -0.27690607004E+02 -0.43177886053E+02  0.10733120810E+03  0.74592712262E+02 0.  0.
          6    2    1    2  501    0  0.74605500436E+02  0.11206728032E+02  0.12465924743E+03  0.22869765412E+03  0.17627001328E+03 0.  0.
         24    2    5    5    0    0  0.89516533707E+02  0.60795083800E+02  0.10889766042E+03  0.17436661726E+03  0.82678683766E+02 0.  0.
          5    1    5    5  501    0 -0.14911033271E+02 -0.49588355768E+02  0.15761587011E+02  0.54331036858E+02  0.47000000000E+01 0. -1.
        -11    1    6    6    0    0  0.39987726669E+02  0.40679682183E+02  0.10654870291E+03  0.12085727499E+03  0.00000000000E+00 0.  1.
         12    1    6    6    0    0  0.49528807038E+02  0.20115401617E+02  0.23489575109E+01  0.53509342271E+02  0.00000000000E+00 0. -1.
         -5    1    3    3    0  503 -0.16944283405E+02  0.16483878972E+02  0.81889725432E+02  0.85363013873E+02  0.47000000000E+01 0.  1.
         11    1    4    4    0    0 -0.73182101209E+01 -0.40587425096E+02 -0.36238883482E+02  0.54901292801E+02  0.00000000000E+00 0. -1.
        -12    1    4    4    0    0 -0.50343006910E+02  0.12896818091E+02 -0.69390025716E+01  0.52429915299E+02  0.00000000000E+00 0.  1.
</event>
<event>
12    1  0.8135779E-002  0.1998619E+03  0.7818608E-02  0.1149866E+00
         21   -1    0    0  503  502  0.00000000000E+00  0.00000000000E+00  0.20299140481E+03  0.20299140481E+03  0.00000000000E+00 0. -1.
         21   -1    0    0  501  503 -0.00000000000E+00 -0.00000000000E+00 -0.29383362437E+03  0.29383362437E+03  0.00000000000E+00 0.  1.
          6    2    1    2  501    0  0.96995705174E+02 -0.29864423525E+02 -0.18822660750E+03  0.27454334332E+03  0.17217648206E+03 0.  0.
         24    2    3    3    0    0  0.94793206456E+02  0.17353412128E+02 -0.18926024821E+03  0.22702983558E+03  0.80226004433E+02 0.  0.
         -6    2    1    2    0  502 -0.96995705174E+02  0.29864423525E+02  0.97384387939E+02  0.22228168586E+03  0.17212024355E+03 0.  0.
        -24    2    5    5    0    0 -0.12181928697E+03  0.54770194481E+02  0.10320855679E+03  0.18633007140E+03  0.78912460564E+02 0.  0.
          5    1    3    3  501    0  0.22024987181E+01 -0.47217835653E+02  0.10336407124E+01  0.47513507737E+02  0.47000000000E+01 0. -1.
        -11    1    4    4    0    0  0.10300039238E+03  0.87013620500E+01 -0.12754148076E+03  0.16416949731E+03  0.00000000000E+00 0.  1.
         12    1    4    4    0    0 -0.82071859277E+01  0.86520500782E+01 -0.61718767456E+02  0.62860338273E+02  0.00000000000E+00 0. -1.
         -5    1    5    5    0  502  0.24823581792E+02 -0.24905770956E+02 -0.58241688459E+01  0.35951614465E+02  0.47000000000E+01 0.  1.
         11    1    6    6    0    0 -0.36112933485E+02  0.35304760274E+02  0.81369586024E+02  0.95768364258E+02  0.00000000000E+00 0. -1.
        -12    1    6    6    0    0 -0.85706353480E+02  0.19465434207E+02  0.21838970761E+02  0.90561707137E+02  0.00000000000E+00 0.  1.
</event>
<event>
12    1  0.8135779E-002  0.1981918E+03  0.7818608E-02  0.1151715E+00
         21   -1    0    0  503  502  0.00000000000E+00  0.00000000000E+00  0.17552947122E+03  0.17552947122E+03  0.00000000000E+00 0.  1.
         21   -1    0    0  501  503 -0.00000000000E+00 -0.00000000000E+00 -0.42303607312E+03  0.42303607312E+03  0.00000000000E+00 0. -1.
          6    2    1    2  501    0  0.91433493120E+02  0.30982187970E+02 -0.33067812358E+03  0.38552304374E+03  0.17308961901E+03 0.  0.
         24    2    3    3    0    0  0.92667195229E+02  0.65439181965E+02 -0.14563320558E+03  0.19723465288E+03  0.69447693426E+02 0.  0.
         -6    2    1    2    0  502 -0.91433493120E+02 -0.30982187970E+02  0.83171521686E+02  0.21304250060E+03  0.17073261377E+03 0.  0.
        -24    2    5    5    0    0 -0.60662855990E+02 -0.85529884074E+02  0.52776601496E+02  0.14326983809E+03  0.82131197937E+02 0.  0.
          5    1    3    3  501    0 -0.12337021086E+01 -0.34456993995E+02 -0.18504491800E+03  0.18828839086E+03  0.47000000000E+01 0. -1.
        -13    1    4    4    0    0  0.80301954380E+02  0.79246351549E+02 -0.13473812924E+03  0.17573489006E+03  0.00000000000E+00 0.  1.
         14    1    4    4    0    0  0.12365240849E+02 -0.13807169584E+02 -0.10895076335E+02  0.21499762825E+02  0.00000000000E+00 0. -1.
         -5    1    5    5    0  502 -0.30770637130E+02  0.54547696105E+02  0.30394920190E+02  0.69772662505E+02  0.47000000000E+01 0.  1.
         13    1    6    6    0    0  0.12006598976E+02  0.46591144952E+01 -0.50258063097E+01  0.13824778331E+02  0.00000000000E+00 0. -1.
        -14    1    6    6    0    0 -0.72669454966E+02 -0.90188998570E+02  0.57802407805E+02  0.12944505976E+03  0.00000000000E+00 0.  1.
</event>
<event>
12    1  0.8135779E-002  0.1921758E+03  0.7818608E-02  0.1157394E+00
         21   -1    0    0  503  502  0.00000000000E+00  0.00000000000E+00  0.13900475324E+03  0.13900475324E+03  0.00000000000E+00 0.  1.
         21   -1    0    0  501  503 -0.00000000000E+00 -0.00000000000E+00 -0.29066164803E+03  0.29066164803E+03  0.00000000000E+00 0.  1.
          6    2    1    2  501    0 -0.56517614201E+02 -0.63019632950E+02 -0.14596825298E+03  0.24132608884E+03  0.17252778159E+03 0.  0.
         24    2    3    3    0    0 -0.96098415567E+01 -0.85372448541E+01 -0.14890431051E+03  0.16921936113E+03  0.79356568013E+02 0.  0.
         -6    2    1    2    0  502  0.56517614201E+02  0.63019632950E+02 -0.56886418067E+01  0.18834031244E+03  0.16814873711E+03 0.  0.
        -24    2    5    5    0    0  0.84186185138E+02  0.37893933822E+02  0.40380244213E+02  0.12883163380E+03  0.80273045011E+02 0.  0.
          5    1    3    3  501    0 -0.46907772644E+02 -0.54482388096E+02  0.29360575283E+01  0.72106727708E+02  0.47000000000E+01 0. -1.
        -13    1    4    4    0    0  0.30468410654E+02 -0.43668933119E+00 -0.27254985800E+02  0.40882135418E+02  0.00000000000E+00 0.  1.
         14    1    4    4    0    0 -0.40078252211E+02 -0.81005555229E+01 -0.12164932471E+03  0.12833722571E+03  0.00000000000E+00 0. -1.
         -5    1    5    5    0  502 -0.27668570938E+02  0.25125699127E+02 -0.46068886020E+02  0.59508678640E+02  0.47000000000E+01 0.  1.
         11    1    6    6    0    0  0.29887857628E+02  0.14624241826E+02 -0.24323850258E+02  0.41216527922E+02  0.00000000000E+00 0. -1.
        -12    1    6    6    0    0  0.54298327510E+02  0.23269691997E+02  0.64704094471E+02  0.87615105874E+02  0.00000000000E+00 0.  1.
</event>
<event>
12    1  0.8135779E-002  0.2360231E+03  0.7818608E-02  0.1122513E+00
         21   -1    0    0  503  502  0.00000000000E+00  0.00000000000E+00  0.86129371988E+02  0.86129371988E+02  0.00000000000E+00 0. -1.
         21   -1    0    0  501  503 -0.00000000000E+00 -0.00000000000E+00 -0.81023786151E+03  0.81023786151E+03  0.00000000000E+00 0.  1.
          6    2    1    2  501    0  0.14504055073E+03  0.70227110181E+02 -0.56393007537E+03  0.61132972399E+03  0.17244794337E+03 0.  0.
         24    2    3    3    0    0  0.73040152399E+02 -0.22636808085E+02 -0.35070051168E+03  0.36782058349E+03  0.80335818956E+02 0.  0.
         -6    2    1    2    0  502 -0.14504055073E+03 -0.70227110181E+02 -0.16017841415E+03  0.28503750951E+03  0.17210650512E+03 0.  0.
        -24    2    5    5    0    0 -0.94177081557E+02 -0.60572805868E+02 -0.18231078633E+03  0.22853768662E+03  0.80335943981E+02 0.  0.
          5    1    3    3  501    0  0.72000398326E+02  0.92863918266E+02 -0.21322956369E+03  0.24350914050E+03  0.47000000000E+01 0. -1.
        -11    1    4    4    0    0  0.45127183748E+02 -0.36098813042E+02 -0.10229760209E+03  0.11749206956E+03  0.00000000000E+00 0.  1.
         12    1    4    4    0    0  0.27912968652E+02  0.13462004957E+02 -0.24840290959E+03  0.25032851393E+03  0.00000000000E+00 0. -1.
         -5    1    5    5    0  502 -0.50863469168E+02 -0.96543043126E+01  0.22132372173E+02  0.56499822881E+02  0.47000000000E+01 0.  1.
         13    1    6    6    0    0 -0.34170903043E+01 -0.46602864787E+01  0.83176069096E+01  0.10128048228E+02  0.00000000000E+00 0. -1.
        -14    1    6    6    0    0 -0.90759991253E+02 -0.55912519390E+02 -0.19062839324E+03  0.21840963840E+03  0.00000000000E+00 0.  1.
</event>
<event>
12    1  0.8135779E-002  0.1931627E+03  0.7818608E-02  0.1156189E+00
         21   -1    0    0  503  502  0.00000000000E+00  0.00000000000E+00  0.50539135379E+02  0.50539135379E+02  0.00000000000E+00 0.  1.
         21   -1    0    0  501  503 -0.00000000000E+00 -0.00000000000E+00 -0.14931435837E+04  0.14931435837E+04  0.00000000000E+00 0. -1.
          6    2    1    2  501    0 -0.12289086794E+02 -0.81711848560E+02 -0.12712406703E+04  0.12854630963E+04  0.17185657471E+03 0.  0.
         24    2    3    3    0    0 -0.13432773794E+02 -0.19420561529E+02 -0.27406378472E+03  0.28633080095E+03  0.79478121892E+02 0.  0.
         -6    2    1    2    0  502  0.12289086794E+02  0.81711848560E+02 -0.17136377802E+03  0.25821962278E+03  0.17459662460E+03 0.  0.
        -24    2    5    5    0    0 -0.15104756235E+00 -0.15589113302E+02 -0.13063387754E+03  0.15190288414E+03  0.75935716104E+02 0.  0.
          5    1    3    3  501    0  0.11436869997E+01 -0.62291287032E+02 -0.99717688556E+03  0.99913229532E+03  0.47000000000E+01 0. -1.
        -13    1    4    4    0    0  0.80490739812E+01 -0.46886946002E+02 -0.17294523511E+03  0.17936897068E+03  0.00000000000E+00 0.  1.
         14    1    4    4    0    0 -0.21481847775E+02  0.27466384473E+02 -0.10111854961E+03  0.10696183027E+03  0.00000000000E+00 0. -1.
         -5    1    5    5    0  502  0.12440134356E+02  0.97300961863E+02 -0.40729900484E+02  0.10631673864E+03  0.47000000000E+01 0.  1.
         13    1    6    6    0    0  0.91714588039E+01  0.41293056090E+01  0.71900381620E+01  0.12363796754E+02  0.00000000000E+00 0. -1.
        -14    1    6    6    0    0 -0.93225063663E+01 -0.19718418911E+02 -0.13782391570E+03  0.13953908739E+03  0.00000000000E+00 0.  1.
</event>
<event>
12    1  0.8135779E-002  0.2131422E+03  0.7818608E-02  0.1139184E+00
         21   -1    0    0  503  502  0.00000000000E+00  0.00000000000E+00  0.12658283420E+04  0.12658283420E+04  0.00000000000E+00 0. -1.
         21   -1    0    0  501  503 -0.00000000000E+00 -0.00000000000E+00 -0.36451977395E+02  0.36451977395E+02  0.00000000000E+00 0.  1.
          6    2    1    2  501    0 -0.88826053179E+02  0.89939849515E+02  0.52938989999E+03  0.57068666016E+03  0.17161105329E+03 0.  0.
         24    2    3    3    0    0 -0.82296576784E+02  0.94732308697E+01  0.18772116046E+03  0.21957823196E+03  0.78185019099E+02 0.  0.
         -6    2    1    2    0  502  0.88826053179E+02 -0.89939849515E+02  0.69998646459E+03  0.73159365922E+03  0.17108181476E+03 0.  0.
        -24    2    5    5    0    0  0.72467511613E+02  0.12492346882E+02  0.42914669813E+03  0.44153120761E+03  0.73316572477E+02 0.  0.
          5    1    3    3  501    0 -0.65294763949E+01  0.80466618645E+02  0.34166873953E+03  0.35110842820E+03  0.47000000000E+01 0. -1.
        -11    1    4    4    0    0 -0.72531175819E+01  0.92593173613E+01 -0.49858613979E+01  0.12775033719E+02  0.00000000000E+00 0.  1.
         12    1    4    4    0    0 -0.75043459202E+02  0.21391350840E+00  0.19270702186E+03  0.20680319824E+03  0.00000000000E+00 0. -1.
         -5    1    5    5    0  502  0.16358541566E+02 -0.10243219640E+03  0.27083976646E+03  0.29006245161E+03  0.47000000000E+01 0.  1.
         13    1    6    6    0    0  0.15519947494E+02 -0.24314183190E+02  0.21445472904E+03  0.21638594936E+03  0.00000000000E+00 0. -1.
        -14    1    6    6    0    0  0.56947564120E+02  0.36806530073E+02  0.21469196910E+03  0.22514525825E+03  0.00000000000E+00 0.  1.
</event>
<event>
12    1  0.8135779E-002  0.1808471E+03  0.7818608E-02  0.1167641E+00
         21   -1    0    0  501  502  0.00000000000E+00  0.00000000000E+00  0.10997628297E+04  0.10997628297E+04  0.00000000000E+00 0. -1.
         21   -1    0    0  502  503 -0.00000000000E+00 -0.00000000000E+00 -0.45264557998E+02  0.45264557998E+02  0.00000000000E+00 0. -1.
         -6    2    1    2    0  503  0.56708951982E+02  0.46726524363E+01  0.18977768529E+03  0.26214734622E+03  0.17166223341E+03 0.  0.
        -24    2    3    3    0    0  0.72917361120E+01  0.95266369413E+01  0.16597009006E+02  0.81927316731E+02  0.79326529559E+02 0.  0.
          6    2    1    2  501    0 -0.56708951982E+02 -0.46726524363E+01  0.86472058639E+03  0.88288004145E+03  0.16881272512E+03 0.  0.
         24    2    5    5    0    0 -0.42430976743E+02  0.53042071453E+02  0.69650519935E+03  0.70440495533E+03  0.80330562335E+02 0.  0.
          5    1    5    5  501    0 -0.14277975239E+02 -0.57714723889E+02  0.16821538704E+03  0.17847508612E+03  0.47000000000E+01 0. -1.
        -11    1    6    6    0    0 -0.14044320967E+02  0.72241907826E+01  0.18772501338E+02  0.24532400828E+02  0.00000000000E+00 0.  1.
         12    1    6    6    0    0 -0.28386655776E+02  0.45817880670E+02  0.67773269801E+03  0.67987255450E+03  0.00000000000E+00 0. -1.
         -5    1    3    3    0  503  0.49417215870E+02 -0.48539845050E+01  0.17318067629E+03  0.18022002949E+03  0.47000000000E+01 0.  1.
         13    1    4    4    0    0  0.57795635737E+00  0.36831698021E+02 -0.14872914886E+02  0.39725452922E+02  0.00000000000E+00 0. -1.
        -14    1    4    4    0    0  0.67137797546E+01 -0.27305061080E+02  0.31469923892E+02  0.42201863809E+02  0.00000000000E+00 0.  1.
</event>
<event>
12    1  0.8135779E-002  0.1804623E+03  0.7818608E-02  0.1167439E+00
         21   -1    0    0  503  502  0.00000000000E+00  0.00000000000E+00  0.73529951685E+03  0.73529951685E+03  0.00000000000E+00 0.  1.
         21   -1    0    0  501  503 -0.00000000000E+00 -0.00000000000E+00 -0.67893922098E+02  0.67893922098E+02  0.00000000000E+00 0.  1.
          6    2    1    2  501    0  0.12069396721E+02  0.52784210546E+02  0.96698100152E+02  0.20473679144E+03  0.17214757615E+03 0.  0.
         24    2    3    3    0    0  0.12143321154E+02  0.99456521709E+02  0.92365907295E+02  0.15762874553E+03  0.79223106657E+02 0.  0.
         -6    2    1    2    0  502 -0.12069396721E+02 -0.52784210546E+02  0.57070749460E+03  0.59845664751E+03  0.17178903148E+03 0.  0.
        -24    2    5    5    0    0 -0.33588811315E+02 -0.92834194765E+02  0.48636159476E+03  0.50252225712E+03  0.78959623082E+02 0.  0.
          5    1    3    3  501    0 -0.73924432209E-01 -0.46672311163E+02  0.43321928575E+01  0.47108045905E+02  0.47000000000E+01 0. -1.
        -11    1    4    4    0    0  0.31395477443E+02  0.51871676067E+02  0.86962401041E+02  0.10601323491E+03  0.00000000000E+00 0.  1.
         12    1    4    4    0    0 -0.19252156290E+02  0.47584845642E+02  0.54035062537E+01  0.51615510618E+02  0.00000000000E+00 0. -1.
         -5    1    5    5    0  502  0.21519414594E+02  0.40049984219E+02  0.84345899839E+02  0.95934390393E+02  0.47000000000E+01 0.  1.
         11    1    6    6    0    0 -0.46750229193E+02 -0.17472270492E+02  0.19419394651E+03  0.20050474565E+03  0.00000000000E+00 0. -1.
        -12    1    6    6    0    0  0.13161417878E+02 -0.75361924274E+02  0.29216764825E+03  0.30201751147E+03  0.00000000000E+00 0.  1.
</event>
<event>
12    1  0.8135779E-002  0.1774088E+03  0.7818608E-02  0.1170705E+00
         21   -1    0    0  501  502  0.00000000000E+00  0.00000000000E+00  0.50791050392E+03  0.50791050392E+03  0.00000000000E+00 0. -1.
         21   -1    0    0  502  503 -0.00000000000E+00 -0.00000000000E+00 -0.34296026052E+03  0.34296026052E+03  0.00000000000E+00 0. -1.
         -6    2    1    2    0  503 -0.47345278474E+02  0.21077502083E+01 -0.30290578489E+03  0.35103531185E+03  0.17096156774E+03 0.  0.
        -24    2    3    3    0    0 -0.51526864159E+02  0.41278168218E+02 -0.29217209063E+03  0.30993653452E+03  0.79606657926E+02 0.  0.
          6    2    1    2  501    0  0.47345278474E+02 -0.21077502083E+01  0.46785602829E+03  0.49983545259E+03  0.16941132918E+03 0.  0.
         24    2    5    5    0    0 -0.99669387447E+00  0.51561002199E+02  0.34168925209E+03  0.35437952561E+03  0.78573359575E+02 0.  0.
          5    1    5    5  501    0  0.48341972348E+02 -0.53668752407E+02  0.12616677620E+03  0.14545592698E+03  0.47000000000E+01 0. -1.
        -11    1    6    6    0    0  0.65806440411E+01  0.37673999824E+02  0.53540357314E+02  0.65796694446E+02  0.00000000000E+00 0.  1.
         12    1    6    6    0    0 -0.75773379156E+01  0.13887002375E+02  0.28814889477E+03  0.28858283117E+03  0.00000000000E+00 0. -1.
         -5    1    3    3    0  503  0.41815856854E+01 -0.39170418010E+02 -0.10733694265E+02  0.41098777335E+02  0.47000000000E+01 0.  1.
         13    1    4    4    0    0 -0.67096085668E+02  0.25331153949E+02 -0.15280231915E+03  0.16879603316E+03  0.00000000000E+00 0. -1.
        -14    1    4    4    0    0  0.15569221509E+02  0.15947014269E+02 -0.13936977148E+03  0.14114050136E+03  0.00000000000E+00 0.  1.
</event>
<event>
12    1  0.8135779E-002  0.2007637E+03  0.7818608E-02  0.1149218E+00
         21   -1    0    0  501  502  0.00000000000E+00  0.00000000000E+00  0.35032785882E+03  0.35032785882E+03  0.00000000000E+00 0. -1.
         21   -1    0    0  502  503 -0.00000000000E+00 -0.00000000000E+00 -0.14060644794E+03  0.14060644794E+03  0.00000000000E+00 0. -1.
         -6    2    1    2    0  503 -0.81458228604E+01  0.10493743227E+03 -0.33783270033E+00  0.20076396098E+03  0.17096150086E+03 0.  0.
        -24    2    3    3    0    0 -0.28268081104E+02  0.24170997903E+02  0.54198402566E+02  0.10114261210E+03  0.76870277689E+02 0.  0.
          6    2    1    2  501    0  0.81458228604E+01 -0.10493743227E+03  0.21005924358E+03  0.29017034578E+03  0.17028131030E+03 0.  0.
         24    2    5    5    0    0 -0.22517494748E+01 -0.87985888182E+02  0.48017023733E+02  0.12684479552E+03  0.77700583564E+02 0.  0.
          5    1    5    5  501    0  0.10397572335E+02 -0.16951544089E+02  0.16204221984E+03  0.16332555026E+03  0.47000000000E+01 0. -1.
        -13    1    6    6    0    0  0.12112372268E+02 -0.11265250810E+01  0.35987261786E+02  0.37987651040E+02  0.00000000000E+00 0.  1.
         14    1    6    6    0    0 -0.14364121742E+02 -0.86859363101E+02  0.12029761948E+02  0.88857144475E+02  0.00000000000E+00 0. -1.
         -5    1    3    3    0  503  0.20122258244E+02  0.80766434368E+02 -0.54536235266E+02  0.99621348889E+02  0.47000000000E+01 0.  1.
         11    1    4    4    0    0 -0.24321988104E+01  0.38079297039E+02  0.60122773704E+02  0.71208822290E+02  0.00000000000E+00 0. -1.
        -12    1    4    4    0    0 -0.25835882294E+02 -0.13908299136E+02 -0.59243711384E+01  0.29933789806E+02  0.00000000000E+00 0.  1.
</event>
<event>
12    1  0.8135779E-002  0.2294240E+03  0.7818608E-02  0.1127565E+00
         21   -1    0    0  501  502  0.00000000000E+00  0.00000000000E+00  0.57511610205E+02  0.57511610205E+02  0.00000000000E+00 0. -1.
         21   -1    0    0  502  503 -0.00000000000E+00 -0.00000000000E+00 -0.16979472286E+04  0.16979472286E+04  0.00000000000E+00 0. -1.
         -6    2    1    2    0  503  0.10591490565E+03 -0.10539202585E+03 -0.14177632008E+04  0.14357427849E+04  0.17023338205E+03 0.  0.
        -24    2    3    3    0    0  0.45002014267E+02 -0.98501857683E+02 -0.12577033012E+04  0.12642810800E+04  0.69722724231E+02 0.  0.
          6    2    1    2  501    0 -0.10591490565E+03  0.10539202585E+03 -0.22267241759E+03  0.31971605395E+03  0.17409739586E+03 0.  0.
         24    2    5    5    0    0  0.11341114794E+02  0.64658064493E+02 -0.11688747966E+03  0.15655731826E+03  0.80859290204E+02 0.  0.
          5    1    5    5  501    0 -0.11725602044E+03  0.40733961354E+02 -0.10578493793E+03  0.16315873569E+03  0.47000000000E+01 0. -1.
        -13    1    6    6    0    0  0.24816625099E+02  0.12501124998E+02  0.72837340148E-01  0.27787556798E+02  0.00000000000E+00 0.  1.
         14    1    6    6    0    0 -0.13475510305E+02  0.52156939494E+02 -0.11696031700E+03  0.12876976147E+03  0.00000000000E+00 0. -1.
         -5    1    3    3    0  503  0.60912891378E+02 -0.68901681638E+01 -0.16005989962E+03  0.17146170482E+03  0.47000000000E+01 0.  1.
         13    1    4    4    0    0  0.36128658483E+02 -0.85668493002E+02 -0.67546903445E+03  0.68183780121E+03  0.00000000000E+00 0. -1.
        -14    1    4    4    0    0  0.88733557839E+01 -0.12833364681E+02 -0.58223426673E+03  0.58244327882E+03  0.00000000000E+00 0.  1.
</event>
<event>
12    1  0.8135779E-002  0.1874473E+03  0.7818608E-02  0.1161126E+00
         21   -1    0    0  501  502  0.00000000000E+00  0.00000000000E+00  0.28471166131E+03  0.28471166131E+03  0.00000000000E+00 0.  1.
         21   -1    0    0  502  503 -0.00000000000E+00 -0.00000000000E+00 -0.14366669094E+03  0.14366669094E+03  0.00000000000E+00 0.  1.
         -6    2    1    2    0  503  0.14580653137E+02  0.74709313838E+02 -0.11574202332E+02  0.18780429195E+03  0.17129627228E+03 0.  0.
        -24    2    3    3    0    0  0.17770665139E+02 -0.26691968408E+02  0.40137665072E+01  0.85054737258E+02  0.78676173594E+02 0.  0.
          6    2    1    2  501    0 -0.14580653137E+02 -0.74709313838E+02  0.15261917270E+03  0.24057406031E+03  0.16967377404E+03 0.  0.
         24    2    5    5    0    0  0.55179692963E+02 -0.30526254411E+02  0.67024423120E+02  0.12154801364E+03  0.79404002430E+02 0.  0.
          5    1    5    5  501    0 -0.69760346100E+02 -0.44183059427E+02  0.85594749583E+02  0.11902604666E+03  0.47000000000E+01 0. -1.
        -11    1    6    6    0    0  0.17992335698E+02 -0.37357075433E+02  0.72326004147E+02  0.83368615826E+02  0.00000000000E+00 0.  1.
         12    1    6    6    0    0  0.37187357265E+02  0.68308210222E+01 -0.53015810276E+01  0.38179397816E+02  0.00000000000E+00 0. -1.
         -5    1    3    3    0  503 -0.31900120020E+01  0.10140128225E+03 -0.15587968839E+02  0.10274955470E+03  0.47000000000E+01 0.  1.
         11    1    4    4    0    0 -0.11217783763E+02 -0.47603493246E+02  0.58953473592E+01  0.49261408448E+02  0.00000000000E+00 0. -1.
        -12    1    4    4    0    0  0.28988448902E+02  0.20911524838E+02 -0.18815808521E+01  0.35793328810E+02  0.00000000000E+00 0.  1.
</event>
<event>
12    1  0.8135779E-002  0.2032763E+03  0.7818608E-02  0.1148412E+00
         21   -1    0    0  503  502  0.00000000000E+00  0.00000000000E+00  0.23687201166E+03  0.23687201166E+03  0.00000000000E+00 0. -1.
         21   -1    0    0  501  503 -0.00000000000E+00 -0.00000000000E+00 -0.67292565254E+03  0.67292565254E+03  0.00000000000E+00 0.  1.
          6    2    1    2  501    0  0.10535449517E+03  0.21584596989E+02 -0.61085016474E+03  0.64170235354E+03  0.16455552951E+03 0.  0.
         24    2    3    3    0    0  0.13504019367E+03  0.17633478615E+02 -0.42127137759E+03  0.44971522228E+03  0.78913966431E+02 0.  0.
         -6    2    1    2    0  502 -0.10535449517E+03 -0.21584596989E+02  0.17479652387E+03  0.26809531066E+03  0.17249871409E+03 0.  0.
        -24    2    5    5    0    0 -0.76765257383E+02 -0.23286253321E+02  0.19984999741E+03  0.22975464441E+03  0.80075094921E+02 0.  0.
          5    1    3    3  501    0 -0.29685698497E+02  0.39511183739E+01 -0.18957878715E+03  0.19198713126E+03  0.47000000000E+01 0. -1.
        -11    1    4    4    0    0  0.93561484232E+02 -0.47503061994E+01 -0.36233517242E+03  0.37425004197E+03  0.00000000000E+00 0.  1.
         12    1    4    4    0    0  0.41478709439E+02  0.22383784814E+02 -0.58936205166E+02  0.75465180306E+02  0.00000000000E+00 0. -1.
         -5    1    5    5    0  502 -0.28589237790E+02  0.17016563321E+01 -0.25053473548E+02  0.38340666250E+02  0.47000000000E+01 0.  1.
         11    1    6    6    0    0 -0.82253141857E+02 -0.42581895087E+02  0.15399114139E+03  0.17969994091E+03  0.00000000000E+00 0. -1.
        -12    1    6    6    0    0  0.54878844742E+01  0.19295641766E+02  0.45858856021E+02  0.50054703502E+02  0.00000000000E+00 0.  1.
</event>
<event>
12    1  0.8135779E-002  0.2441522E+03  0.7818608E-02  0.1118086E+00
         21   -1    0    0  501  502  0.00000000000E+00  0.00000000000E+00  0.48432830994E+03  0.48432830994E+03  0.00000000000E+00 0.  1.
         21   -1    0    0  502  503 -0.00000000000E+00 -0.00000000000E+00 -0.12076724072E+03  0.12076724072E+03  0.00000000000E+00 0.  1.
         -6    2    1    2    0  503  0.14389279790E+03  0.79777242440E+02  0.20886015365E+03  0.32129871577E+03  0.18039056314E+03 0.  0.
        -24    2    3    3    0    0  0.41377899759E+02 -0.15922220839E+02  0.13492316817E+03  0.16269083628E+03  0.79362454567E+02 0.  0.
          6    2    1    2  501    0 -0.14389279790E+03 -0.79777242440E+02  0.15470091557E+03  0.28379683489E+03  0.17186833483E+03 0.  0.
         24    2    5    5    0    0 -0.52709016943E+02 -0.95159128400E+02  0.12436915177E+03  0.18636383113E+03  0.86199138387E+02 0.  0.
          5    1    5    5  501    0 -0.91183780959E+02  0.15381885960E+02  0.30331763802E+02  0.97433003756E+02  0.47000000000E+01 0. -1.
        -11    1    6    6    0    0 -0.58934457053E+02 -0.38968392535E+02  0.30871621812E+02  0.77102936897E+02  0.00000000000E+00 0.  1.
         12    1    6    6    0    0  0.62254401104E+01 -0.56190735865E+02  0.93497529955E+02  0.10926089424E+03  0.00000000000E+00 0. -1.
         -5    1    3    3    0  503  0.10251489814E+03  0.95699463279E+02  0.73936985482E+02  0.15860787949E+03  0.47000000000E+01 0.  1.
         11    1    4    4    0    0 -0.23358192822E+02 -0.53312684898E+00  0.25172852416E+02  0.34344750617E+02  0.00000000000E+00 0. -1.
        -12    1    4    4    0    0  0.64736092581E+02 -0.15389093990E+02  0.10975031576E+03  0.12834608566E+03  0.00000000000E+00 0.  1.
</event>
<event>
12    1  0.8135779E-002  0.2791988E+03  0.7818608E-02  0.1096387E+00
         21   -1    0    0  501  502  0.00000000000E+00  0.00000000000E+00  0.52760403744E+02  0.52760403744E+02  0.00000000000E+00 0. -1.
         21   -1    0    0  502  503 -0.00000000000E+00 -0.00000000000E+00 -0.18254284225E+04  0.18254284225E+04  0.00000000000E+00 0.  1.
         -6    2    1    2    0  503  0.18256125199E+03 -0.11919633361E+03 -0.13045979912E+04  0.13341393895E+04  0.17440073188E+03 0.  0.
        -24    2    3    3    0    0  0.12169388083E+03 -0.12395468109E+03 -0.69972885229E+03  0.72617866383E+03  0.86837903479E+02 0.  0.
          6    2    1    2  501    0 -0.18256125199E+03  0.11919633361E+03 -0.46807002758E+03  0.54404943677E+03  0.17135886980E+03 0.  0.
         24    2    5    5    0    0 -0.17160809615E+03  0.69259798605E+02 -0.44387392049E+03  0.48729407800E+03  0.78646060251E+02 0.  0.
          5    1    5    5  501    0 -0.10953155841E+02  0.49936535005E+02 -0.24196107086E+02  0.56755358772E+02  0.47000000000E+01 0. -1.
        -11    1    6    6    0    0 -0.10266829573E+02 -0.85481963853E+01 -0.86680718139E+02  0.87704198006E+02  0.00000000000E+00 0.  1.
         12    1    6    6    0    0 -0.16134126658E+03  0.77807994990E+02 -0.35719320235E+03  0.39958987999E+03  0.00000000000E+00 0. -1.
         -5    1    3    3    0  503  0.60867371159E+02  0.47583474794E+01 -0.60486913888E+03  0.60796072563E+03  0.47000000000E+01 0.  1.
         11    1    4    4    0    0  0.13301119391E+03 -0.95976472636E+02 -0.59139228917E+03  0.61371679193E+03  0.00000000000E+00 0. -1.
        -12    1    4    4    0    0 -0.11317313073E+02 -0.27978208453E+02 -0.10833656312E+03  0.11246187190E+03  0.00000000000E+00 0.  1.
</event>
<event>
12    1  0.8135779E-002  0.2217049E+03  0.7818608E-02  0.1132654E+00
         21   -1    0    0  503  502  0.00000000000E+00  0.00000000000E+00  0.85107052684E+03  0.85107052684E+03  0.00000000000E+00 0.  1.
         21   -1    0    0  501  503 -0.00000000000E+00 -0.00000000000E+00 -0.71470274234E+02  0.71470274234E+02  0.00000000000E+00 0. -1.
          6    2    1    2  501    0  0.39701562232E+02 -0.13372656743E+03  0.18722432287E+03  0.29003601374E+03  0.17207246528E+03 0.  0.
         24    2    3    3    0    0  0.21682861276E+01 -0.11241706567E+03  0.52045659078E+02  0.14805642779E+03  0.81053421032E+02 0.  0.
         -6    2    1    2    0  502 -0.39701562232E+02  0.13372656743E+03  0.59237592973E+03  0.63250478734E+03  0.17231963034E+03 0.  0.
        -24    2    5    5    0    0 -0.76096709711E+02  0.36747008849E+02  0.22681053940E+03  0.25251822685E+03  0.71981818682E+02 0.  0.
          5    1    3    3  501    0  0.37533276104E+02 -0.21309501754E+02  0.13517866380E+03  0.14197958595E+03  0.47000000000E+01 0. -1.
        -13    1    4    4    0    0  0.28316560878E+02 -0.74464684528E+02  0.61946619247E+02  0.10091679988E+03  0.00000000000E+00 0.  1.
         14    1    4    4    0    0 -0.26148274750E+02 -0.37952381146E+02 -0.99009601689E+01  0.47139627908E+02  0.00000000000E+00 0. -1.
         -5    1    5    5    0  502  0.36395147479E+02  0.96979558579E+02  0.36556539034E+03  0.37998656049E+03  0.47000000000E+01 0.  1.
         13    1    6    6    0    0 -0.52519198130E+02  0.43795669743E+02  0.87506359277E+02  0.11105714644E+03  0.00000000000E+00 0. -1.
        -14    1    6    6    0    0 -0.23577511581E+02 -0.70486608937E+01  0.13930418012E+03  0.14146108041E+03  0.00000000000E+00 0.  1.
</event>
<event>
12    1  0.8135779E-002  0.1850170E+03  0.7818608E-02  0.1163165E+00
         21   -1    0    0  501  502  0.00000000000E+00  0.00000000000E+00  0.15008875386E+03  0.15008875386E+03  0.00000000000E+00 0. -1.
         21   -1    0    0  502  503 -0.00000000000E+00 -0.00000000000E+00 -0.29643327183E+03  0.29643327183E+03  0.00000000000E+00 0.  1.
         -6    2    1    2    0  503 -0.68271991201E+01  0.65581036906E+02 -0.18101226754E+03  0.25883728731E+03  0.17286936471E+03 0.  0.
        -24    2    3    3    0    0  0.27125805990E+02  0.65259201971E+02 -0.41191312649E+02  0.11487583567E+03  0.80654575751E+02 0.  0.
          6    2    1    2  501    0  0.68271991201E+01 -0.65581036906E+02  0.34667749566E+02  0.18768473838E+03  0.17226788764E+03 0.  0.
         24    2    5    5    0    0 -0.45278877990E+02 -0.74614420791E+02  0.54001738010E+02  0.13118218618E+03  0.81701222024E+02 0.  0.
          5    1    5    5  501    0  0.52106077111E+02  0.90333838848E+01 -0.19333988444E+02  0.56502552203E+02  0.47000000000E+01 0. -1.
        -11    1    6    6    0    0 -0.43076720962E+02 -0.62740387768E+02  0.26523978998E+00  0.76105390730E+02  0.00000000000E+00 0.  1.
         12    1    6    6    0    0 -0.22021570283E+01 -0.11874033023E+02  0.53736498220E+02  0.55076795448E+02  0.00000000000E+00 0. -1.
         -5    1    3    3    0  503 -0.33953005110E+02  0.32183493521E+00 -0.13982095489E+03  0.14396145165E+03  0.47000000000E+01 0.  1.
         11    1    4    4    0    0 -0.10484598580E+02  0.22685785221E+02  0.19535412371E+02  0.31720718702E+02  0.00000000000E+00 0. -1.
        -12    1    4    4    0    0  0.37610404569E+02  0.42573416750E+02 -0.60726725019E+02  0.83155116964E+02  0.00000000000E+00 0.  1.
</event>
<event>
12    1  0.8135779E-002  0.2861521E+03  0.7818608E-02  0.1092523E+00
         21   -1    0    0  501  502  0.00000000000E+00  0.00000000000E+00  0.55108322366E+02  0.55108322366E+02  0.00000000000E+00 0. -1.
         21   -1    0    0  502  503 -0.00000000000E+00 -0.00000000000E+00 -0.21842713749E+04  0.21842713749E+04  0.00000000000E+00 0.  1.
         -6    2    1    2    0  503 -0.10058779447E+03 -0.20484355211E+03 -0.43023938182E+03  0.51670974673E+03  0.17263907861E+03 0.  0.
        -24    2    3    3    0    0 -0.44999877282E+02 -0.14362839711E+03 -0.16042418846E+03  0.23446935220E+03  0.81153259121E+02 0.  0.
          6    2    1    2  501    0  0.10058779447E+03  0.20484355211E+03 -0.16989236707E+04  0.17226699505E+04  0.17079617770E+03 0.  0.
         24    2    5    5    0    0  0.11909207317E+03  0.14295832519E+03 -0.14966602761E+04  0.15102911370E+04  0.79795562412E+02 0.  0.
          5    1    5    5  501    0 -0.18504278700E+02  0.61885226921E+02 -0.20226339462E+03  0.21237881355E+03  0.47000000000E+01 0. -1.
        -11    1    6    6    0    0 -0.81983404036E+01  0.44694417376E+01 -0.18233597863E+03  0.18257491010E+03  0.00000000000E+00 0.  1.
         12    1    6    6    0    0  0.12729041358E+03  0.13848888345E+03 -0.13143242974E+04  0.13277162269E+04  0.00000000000E+00 0. -1.
         -5    1    3    3    0  503 -0.55587917190E+02 -0.61215155002E+02 -0.26981519336E+03  0.28224039453E+03  0.47000000000E+01 0.  1.
         13    1    4    4    0    0 -0.10976351821E+02 -0.87364953420E+02 -0.14041877635E+03  0.16574241502E+03  0.00000000000E+00 0. -1.
        -14    1    4    4    0    0 -0.34023525461E+02 -0.56263443688E+02 -0.20005412116E+02  0.68726937182E+02  0.00000000000E+00 0.  1.
</event>
<event>
12    1  0.8135779E-002  0.2345946E+03  0.7818608E-02  0.1123694E+00
         21   -1    0    0  503  502  0.00000000000E+00  0.00000000000E+00  0.24569240653E+03  0.24569240653E+03  0.00000000000E+00 0. -1.
         21   -1    0    0  501  503 -0.00000000000E+00 -0.00000000000E+00 -0.24115806731E+03  0.24115806731E+03  0.00000000000E+00 0.  1.
          6    2    1    2  501    0  0.40638483006E+02 -0.15240083766E+03  0.69734282481E+02  0.24336403852E+03  0.17171395828E+03 0.  0.
         24    2    3    3    0    0 -0.10051983181E+02 -0.67858851124E+02  0.95936980414E+02  0.14125849396E+03  0.77744400851E+02 0.  0.
         -6    2    1    2    0  502 -0.40638483006E+02  0.15240083766E+03 -0.65199943263E+02  0.24348643532E+03  0.17365802591E+03 0.  0.
        -24    2    5    5    0    0 -0.48816100747E+01  0.14063006458E+02  0.12557522630E+02  0.80746695227E+02  0.78362868425E+02 0.  0.
          5    1    3    3  501    0  0.50690466187E+02 -0.84541986540E+02 -0.26202697933E+02  0.10210554456E+03  0.47000000000E+01 0. -1.
        -11    1    4    4    0    0 -0.11845056797E+02  0.15931354949E+02  0.17271186960E+02  0.26313634109E+02  0.00000000000E+00 0.  1.
         12    1    4    4    0    0  0.17930736163E+01 -0.83790206073E+02  0.78665793454E+02  0.11494485985E+03  0.00000000000E+00 0. -1.
         -5    1    5    5    0  502 -0.35756872931E+02  0.13833783121E+03 -0.77757465893E+02  0.16273974010E+03  0.47000000000E+01 0.  1.
         11    1    6    6    0    0  0.16236367655E+02 -0.23413980136E+02 -0.12332941931E+02  0.31047311592E+02  0.00000000000E+00 0. -1.
        -12    1    6    6    0    0 -0.21117977730E+02  0.37476986594E+02  0.24890464560E+02  0.49699383634E+02  0.00000000000E+00 0.  1.
</event>
<event>
12    1  0.8135779E-002  0.2151596E+03  0.7818608E-02  0.1138289E+00
         21   -1    0    0  503  502  0.00000000000E+00  0.00000000000E+00  0.77744191624E+03  0.77744191624E+03  0.00000000000E+00 0. -1.
         21   -1    0    0  501  503 -0.00000000000E+00 -0.00000000000E+00 -0.12762641863E+03  0.12762641863E+03  0.00000000000E+00 0. -1.
          6    2    1    2  501    0  0.11855417911E+03  0.51777389524E+02 -0.68204781537E+01  0.21526770166E+03  0.17192345100E+03 0.  0.
         24    2    3    3    0    0  0.12880810695E+02  0.22287514384E+02  0.44107775938E+02  0.94221055308E+02  0.79179939274E+02 0.  0.
         -6    2    1    2    0  502 -0.11855417911E+03 -0.51777389524E+02  0.65663597576E+03  0.68980063321E+03  0.16708715532E+03 0.  0.
        -24    2    5    5    0    0 -0.10547888334E+03 -0.45952513051E+02  0.27957082061E+03  0.31243461226E+03  0.78855024661E+02 0.  0.
          5    1    3    3  501    0  0.10567336841E+03  0.29489875140E+02 -0.50928254092E+02  0.12104664635E+03  0.47000000000E+01 0. -1.
        -11    1    4    4    0    0  0.23967531033E+02  0.47139764906E+02  0.40830970165E+02  0.66811436924E+02  0.00000000000E+00 0.  1.
         12    1    4    4    0    0 -0.11086720337E+02 -0.24852250523E+02  0.32768057735E+01  0.27409618384E+02  0.00000000000E+00 0. -1.
         -5    1    5    5    0  502 -0.13075295768E+02 -0.58248764727E+01  0.37706515514E+03  0.37736602095E+03  0.47000000000E+01 0.  1.
         11    1    6    6    0    0 -0.92068811798E+02 -0.21651803422E+02  0.26439208580E+03  0.28080000309E+03  0.00000000000E+00 0. -1.
        -12    1    6    6    0    0 -0.13410071544E+02 -0.24300709629E+02  0.15178734808E+02  0.31634609175E+02  0.00000000000E+00 0.  1.
</event>
<event>
12    1  0.8135779E-002  0.1940453E+03  0.7818608E-02  0.1154895E+00
         21   -1    0    0  503  502  0.00000000000E+00  0.00000000000E+00  0.35527890638E+03  0.35527890638E+03  0.00000000000E+00 0. -1.
         21   -1    0    0  501  503 -0.00000000000E+00 -0.00000000000E+00 -0.20354590638E+03  0.20354590638E+03  0.00000000000E+00 0. -1.
          6    2    1    2  501    0  0.57164006365E+02  0.69148059711E+02  0.26940754682E+03  0.33201506425E+03  0.17205928868E+03 0.  0.
         24    2    3    3    0    0  0.93539465619E+02  0.30213034346E+02  0.12262241696E+03  0.17578742718E+03  0.78755973368E+02 0.  0.
         -6    2    1    2    0  502 -0.57164006365E+02 -0.69148059711E+02 -0.11767454682E+03  0.22680974850E+03  0.17189003828E+03 0.  0.
        -24    2    5    5    0    0 -0.31172214173E+02 -0.45433550816E+02 -0.14993158287E+03  0.17884562057E+03  0.80438560255E+02 0.  0.
          5    1    3    3  501    0 -0.36375459254E+02  0.38935025365E+02  0.14678512986E+03  0.15622763707E+03  0.47000000000E+01 0. -1.
        -13    1    4    4    0    0  0.45266659087E+02  0.52516462883E+02  0.48707170961E+02  0.84731563196E+02  0.00000000000E+00 0.  1.
         14    1    4    4    0    0  0.48272806532E+02 -0.22303428537E+02  0.73915245998E+02  0.91055863984E+02  0.00000000000E+00 0. -1.
         -5    1    5    5    0  502 -0.25991792192E+02 -0.23714508895E+02  0.32257036052E+02  0.47964127933E+02  0.47000000000E+01 0.  1.
         13    1    6    6    0    0 -0.47391997105E+02 -0.45099281106E+02 -0.64440245504E+02  0.91828600047E+02  0.00000000000E+00 0. -1.
        -14    1    6    6    0    0  0.16219782932E+02 -0.33426971035E+00 -0.85491337370E+02  0.87017020519E+02  0.00000000000E+00 0.  1.
</event>
<event>
12    1  0.8135779E-002  0.2691148E+03  0.7818608E-02  0.1101996E+00
         21   -1    0    0  501  502  0.00000000000E+00  0.00000000000E+00  0.46992895494E+03  0.46992895494E+03  0.00000000000E+00 0. -1.
         21   -1    0    0  502  503 -0.00000000000E+00 -0.00000000000E+00 -0.16165965234E+03  0.16165965234E+03  0.00000000000E+00 0.  1.
         -6    2    1    2    0  503  0.17517718865E+03  0.10872898012E+03  0.22561809696E+03  0.35006774895E+03  0.17068938057E+03 0.  0.
        -24    2    3    3    0    0  0.19769225645E+03  0.89888359829E+02  0.17334608757E+03  0.28993165151E+03  0.82760805804E+02 0.  0.
          6    2    1    2  501    0 -0.17517718865E+03 -0.10872898012E+03  0.82651205643E+02  0.28152085833E+03  0.17295587108E+03 0.  0.
         24    2    5    5    0    0 -0.13775805435E+03 -0.76839421180E+02 -0.94171125599E+01  0.17704214855E+03  0.79835218848E+02 0.  0.
          5    1    5    5  501    0 -0.37419134298E+02 -0.31889558937E+02  0.92068318203E+02  0.10447870978E+03  0.47000000000E+01 0. -1.
        -11    1    6    6    0    0 -0.50933268596E+02 -0.11784552368E+02  0.31562811603E+02  0.61067868807E+02  0.00000000000E+00 0.  1.
         12    1    6    6    0    0 -0.86824785759E+02 -0.65054868812E+02 -0.40979924163E+02  0.11597427975E+03  0.00000000000E+00 0. -1.
         -5    1    3    3    0  503 -0.22515067797E+02  0.18840620288E+02  0.52272009384E+02  0.60136097443E+02  0.47000000000E+01 0.  1.
         11    1    4    4    0    0  0.12004600384E+03  0.85670818841E+02  0.14594048407E+03  0.20748290804E+03  0.00000000000E+00 0. -1.
        -12    1    4    4    0    0  0.77646252610E+02  0.42175409888E+01  0.27405603507E+02  0.82448743471E+02  0.00000000000E+00 0.  1.
</event>
<event>
12    1  0.8135779E-002  0.1821535E+03  0.7818608E-02  0.1166924E+00
         21   -1    0    0  503  502  0.00000000000E+00  0.00000000000E+00  0.12680878122E+03  0.12680878122E+03  0.00000000000E+00 0.  1.
         21   -1    0    0  501  503 -0.00000000000E+00 -0.00000000000E+00 -0.38055928425E+03  0.38055928425E+03  0.00000000000E+00 0.  1.
          6    2    1    2  501    0 -0.32550320157E+01 -0.62108032026E+02  0.17881133054E+02  0.18302905721E+03  0.17120717855E+03 0.  0.
         24    2    3    3    0    0 -0.30415544155E+02 -0.84363254730E+01 -0.43602088004E+02  0.96886025128E+02  0.80557326626E+02 0.  0.
         -6    2    1    2    0  502  0.32550320157E+01  0.62108032026E+02 -0.27163163608E+03  0.32433900827E+03  0.16596398310E+03 0.  0.
        -24    2    5    5    0    0  0.23786846101E+02 -0.24920718069E+02 -0.15229060956E+03  0.17514138984E+03  0.79342425212E+02 0.  0.
          5    1    3    3  501    0  0.27160512139E+02 -0.53671706553E+02  0.61483221057E+02  0.86143032077E+02  0.47000000000E+01 0. -1.
        -11    1    4    4    0    0 -0.78919971595E+00 -0.41753866195E+02 -0.18018047353E+02  0.45482504426E+02  0.00000000000E+00 0.  1.
         12    1    4    4    0    0 -0.29626344439E+02  0.33317540722E+02 -0.25584040651E+02  0.51403520702E+02  0.00000000000E+00 0. -1.
         -5    1    5    5    0  502 -0.20531814085E+02  0.87028750094E+02 -0.11934102653E+03  0.14919761843E+03  0.47000000000E+01 0.  1.
         11    1    6    6    0    0  0.13679205396E+02 -0.39903571056E+02 -0.30592879886E+02  0.52108923833E+02  0.00000000000E+00 0. -1.
        -12    1    6    6    0    0  0.10107640705E+02  0.14982852987E+02 -0.12169772967E+03  0.12303246600E+03  0.00000000000E+00 0.  1.
</event>
<event>
12    1  0.8135779E-002  0.1915622E+03  0.7818608E-02  0.1157282E+00
         21   -1    0    0  501  502  0.00000000000E+00  0.00000000000E+00  0.69079166606E+02  0.69079166606E+02  0.00000000000E+00 0. -1.
         21   -1    0    0  502  503 -0.00000000000E+00 -0.00000000000E+00 -0.76213648758E+03  0.76213648758E+03  0.00000000000E+00 0. -1.
         -6    2    1    2    0  503 -0.59756164607E+02  0.56542796282E+02 -0.57603147673E+03  0.60673597948E+03  0.17189647926E+03 0.  0.
        -24    2    3    3    0    0  0.31026392594E+02  0.18086111946E+02 -0.21061647883E+03  0.22822494931E+03  0.80234542758E+02 0.  0.
          6    2    1    2  501    0  0.59756164607E+02 -0.56542796282E+02 -0.11702584424E+03  0.22447967471E+03  0.17299765639E+03 0.  0.
         24    2    5    5    0    0  0.55755126619E+02  0.74346400554E+01 -0.49946570762E+01  0.95320092940E+02  0.76792353147E+02 0.  0.
          5    1    5    5  501    0  0.40010379886E+01 -0.63977436337E+02 -0.11203118716E+03  0.12915958177E+03  0.47000000000E+01 0. -1.
        -11    1    6    6    0    0  0.23855635749E+02  0.85072799335E+01 -0.40380659907E+02  0.47666160569E+02  0.00000000000E+00 0.  1.
         12    1    6    6    0    0  0.31899490870E+02 -0.10726398781E+01  0.35386002831E+02  0.47653932371E+02  0.00000000000E+00 0. -1.
         -5    1    3    3    0  503 -0.90782557201E+02  0.38456684336E+02 -0.36541499791E+03  0.37851103017E+03  0.47000000000E+01 0.  1.
         11    1    4    4    0    0 -0.16776694375E+02  0.31106574442E+02 -0.11813479111E+03  0.12330817215E+03  0.00000000000E+00 0. -1.
        -12    1    4    4    0    0  0.47803086969E+02 -0.13020462496E+02 -0.92481687718E+02  0.10491677716E+03  0.00000000000E+00 0.  1.
</event>
<event>
12    1  0.8135779E-002  0.3022218E+03  0.7818608E-02  0.1084144E+00
         21   -1    0    0  503  502  0.00000000000E+00  0.00000000000E+00  0.39648931251E+03  0.39648931251E+03  0.00000000000E+00 0.  1.
         21   -1    0    0  501  503 -0.00000000000E+00 -0.00000000000E+00 -0.35338901404E+03  0.35338901404E+03  0.00000000000E+00 0. -1.
          6    2    1    2  501    0  0.88628257647E+02 -0.23141024222E+03 -0.19971750785E+03  0.36225003045E+03  0.17300963373E+03 0.  0.
         24    2    3    3    0    0  0.51452344890E+02 -0.23869191488E+03 -0.18595804098E+03  0.32167313832E+03  0.96291437254E+02 0.  0.
         -6    2    1    2    0  502 -0.88628257647E+02  0.23141024222E+03  0.24281780632E+03  0.38762829610E+03  0.17288591792E+03 0.  0.
        -24    2    5    5    0    0 -0.15212534951E+02  0.45222086441E+02  0.24647367303E+02  0.91526407974E+02  0.74115668519E+02 0.  0.
          5    1    3    3  501    0  0.37175912757E+02  0.72816726640E+01 -0.13759466865E+02  0.40576892124E+02  0.47000000000E+01 0. -1.
        -11    1    4    4    0    0  0.30092155070E+02 -0.18693896458E+02 -0.45270263154E+01  0.35714052259E+02  0.00000000000E+00 0.  1.
         12    1    4    4    0    0  0.21360189820E+02 -0.21999801842E+03 -0.18143101467E+03  0.28595908606E+03  0.00000000000E+00 0. -1.
         -5    1    5    5    0  502 -0.73415722695E+02  0.18618815578E+03  0.21817043901E+03  0.29610188812E+03  0.47000000000E+01 0.  1.
         11    1    6    6    0    0 -0.30072263704E+02  0.59770668650E+02  0.22630084640E+02  0.70632815363E+02  0.00000000000E+00 0. -1.
        -12    1    6    6    0    0  0.14859728752E+02 -0.14548582209E+02  0.20172826622E+01  0.20893592612E+02  0.00000000000E+00 0.  1.
</event>
<event>
12    1  0.8135779E-002  0.1924163E+03  0.7818608E-02  0.1156462E+00
         21   -1    0    0  501  502  0.00000000000E+00  0.00000000000E+00  0.18450898602E+04  0.18450898602E+04  0.00000000000E+00 0. -1.
         21   -1    0    0  502  503 -0.00000000000E+00 -0.00000000000E+00 -0.36134578642E+02  0.36134578642E+02  0.00000000000E+00 0. -1.
         -6    2    1    2    0  503 -0.55685235282E+02 -0.57327719599E+02  0.27670621559E+03  0.33703166622E+03  0.17503342946E+03 0.  0.
        -24    2    3    3    0    0 -0.65073822809E+02 -0.47133353209E+02  0.79290007101E+02  0.13907379178E+03  0.81230898880E+02 0.  0.
          6    2    1    2  501    0  0.55685235282E+02  0.57327719599E+02  0.15322490660E+04  0.15441927726E+04  0.17423204639E+03 0.  0.
         24    2    5    5    0    0 -0.32498098745E+01 -0.29602501665E+02  0.73189770025E+03  0.73696628549E+03  0.80982670672E+02 0.  0.
          5    1    5    5  501    0  0.58935045156E+02  0.86930221264E+02  0.80035136574E+03  0.80722648716E+03  0.47000000000E+01 0. -1.
        -13    1    6    6    0    0  0.13614795610E+02 -0.53794847439E+02  0.53539544126E+03  0.53826343624E+03  0.00000000000E+00 0.  1.
         14    1    6    6    0    0 -0.16864605484E+02  0.24192345774E+02  0.19650225898E+03  0.19870284924E+03  0.00000000000E+00 0. -1.
         -5    1    3    3    0  503  0.93885875271E+01 -0.10194366390E+02  0.19741620849E+03  0.19795787445E+03  0.47000000000E+01 0.  1.
         11    1    4    4    0    0 -0.58658608360E+00 -0.23380481585E+02 -0.10802792541E+02  0.25762207380E+02  0.00000000000E+00 0. -1.
        -12    1    4    4    0    0 -0.64487236725E+02 -0.23752871624E+02  0.90092799642E+02  0.11331158440E+03  0.00000000000E+00 0.  1.
</event>
<event>
12    1  0.8135779E-002  0.2151340E+03  0.7818608E-02  0.1141012E+00
         21   -1    0    0  501  502  0.00000000000E+00  0.00000000000E+00  0.11831892831E+04  0.11831892831E+04  0.00000000000E+00 0. -1.
         21   -1    0    0  502  503 -0.00000000000E+00 -0.00000000000E+00 -0.36053809825E+02  0.36053809825E+02  0.00000000000E+00 0.  1.
         -6    2    1    2    0  503 -0.67188917861E+02 -0.70907625201E+02  0.59538218154E+03  0.63305812651E+03  0.19167787419E+03 0.  0.
        -24    2    3    3    0    0 -0.56482363379E+02  0.69240507242E+01  0.49981902542E+03  0.50925664473E+03  0.79278447067E+02 0.  0.
          6    2    1    2  501    0  0.67188917861E+02  0.70907625201E+02  0.55175329173E+03  0.58618496640E+03  0.17215945490E+03 0.  0.
         24    2    5    5    0    0  0.48741274335E+02  0.75816026489E+02  0.19968870717E+03  0.23357190701E+03  0.80972058618E+02 0.  0.
          5    1    5    5  501    0  0.18447643526E+02 -0.49084012877E+01  0.35206458456E+03  0.35261305940E+03  0.47000000000E+01 0. -1.
        -13    1    6    6    0    0 -0.17581768491E+02  0.37885153889E+02  0.47287194502E+02  0.63091063015E+02  0.00000000000E+00 0.  1.
         14    1    6    6    0    0  0.66323042826E+02  0.37930872600E+02  0.15240151266E+03  0.17048084399E+03  0.00000000000E+00 0. -1.
         -5    1    3    3    0  503 -0.10706554482E+02 -0.77831675925E+02  0.95563156110E+02  0.12380148178E+03  0.47000000000E+01 0.  1.
         13    1    4    4    0    0 -0.36007099830E+02 -0.35262749077E+02  0.27866317103E+03  0.28318392539E+03  0.00000000000E+00 0. -1.
        -14    1    4    4    0    0 -0.20475263549E+02  0.42186799801E+02  0.22115585439E+03  0.22607271933E+03  0.00000000000E+00 0.  1.
</event>
<event>
12    1  0.8135779E-002  0.2522228E+03  0.7818608E-02  0.1112026E+00
         21   -1    0    0  501  502  0.00000000000E+00  0.00000000000E+00  0.42350539763E+03  0.42350539763E+03  0.00000000000E+00 0. -1.
         21   -1    0    0  502  503 -0.00000000000E+00 -0.00000000000E+00 -0.18374369522E+03  0.18374369522E+03  0.00000000000E+00 0. -1.
         -6    2    1    2    0  503  0.11390067355E+03 -0.14418149975E+03 -0.10541754411E+02  0.25244295918E+03  0.17278498415E+03 0.  0.
        -24    2    3    3    0    0  0.20191806260E+02 -0.68017704580E+02 -0.57085838967E+02  0.12294115490E+03  0.82593083136E+02 0.  0.
          6    2    1    2  501    0 -0.11390067355E+03  0.14418149975E+03  0.25030345683E+03  0.35480613367E+03  0.17167965425E+03 0.  0.
         24    2    5    5    0    0 -0.77945688819E+02  0.54558107001E+02  0.21608921747E+03  0.25224972173E+03  0.88787694875E+02 0.  0.
          5    1    5    5  501    0 -0.35954984733E+02  0.89623392750E+02  0.34214239357E+02  0.10255641194E+03  0.47000000000E+01 0. -1.
        -13    1    6    6    0    0 -0.72826068451E+02  0.74325412709E+02  0.14627938785E+03  0.17951479753E+03  0.00000000000E+00 0.  1.
         14    1    6    6    0    0 -0.51196203674E+01 -0.19767305708E+02  0.69809829618E+02  0.72734924204E+02  0.00000000000E+00 0. -1.
         -5    1    3    3    0  503  0.93708867292E+02 -0.76163795171E+02  0.46544084556E+02  0.12950180428E+03  0.47000000000E+01 0.  1.
         11    1    4    4    0    0  0.16100189565E+02 -0.85874138135E+02 -0.34684809796E+02  0.94003296405E+02  0.00000000000E+00 0. -1.
        -12    1    4    4    0    0  0.40916166950E+01  0.17856433555E+02 -0.22401029171E+02  0.28937858497E+02  0.00000000000E+00 0.  1.
</event>
<event>
12    1  0.8135779E-002  0.3192856E+03  0.7818608E-02  0.1076036E+00
         21   -1    0    0  503  502  0.00000000000E+00  0.00000000000E+00  0.20135929824E+03  0.20135929824E+03  0.00000000000E+00 0. -1.
         21   -1    0    0  501  503 -0.00000000000E+00 -0.00000000000E+00 -0.14633937016E+04  0.14633937016E+04  0.00000000000E+00 0.  1.
          6    2    1    2  501    0 -0.23892330980E+03  0.12234186072E+03 -0.13046331870E+04  0.13431347721E+04  0.17289125027E+03 0.  0.
         24    2    3    3    0    0 -0.15406245249E+03  0.59102194612E+02 -0.10714405130E+04  0.10870068086E+04  0.79816792002E+02 0.  0.
         -6    2    1    2    0  502  0.23892330980E+03 -0.12234186072E+03  0.42598783618E+02  0.32161822781E+03  0.17196438365E+03 0.  0.
        -24    2    5    5    0    0  0.68282853328E+02  0.51561344258E+01  0.23539720849E+02  0.10770412817E+03  0.79730339186E+02 0.  0.
          5    1    3    3  501    0 -0.84860857309E+02  0.63239666105E+02 -0.23319267397E+03  0.25612796346E+03  0.47000000000E+01 0. -1.
        -13    1    4    4    0    0 -0.18017477618E+02  0.41958652898E+02 -0.30449242726E+03  0.30789737951E+03  0.00000000000E+00 0.  1.
         14    1    4    4    0    0 -0.13604497488E+03  0.17143541714E+02 -0.76694808579E+03  0.77910942910E+03  0.00000000000E+00 0. -1.
         -5    1    5    5    0  502  0.17064045648E+03 -0.12749799514E+03  0.19059062770E+02  0.21391409964E+03  0.47000000000E+01 0.  1.
         13    1    6    6    0    0 -0.50265666300E+00 -0.18778027764E+02  0.29127571679E+02  0.34659521380E+02  0.00000000000E+00 0. -1.
        -14    1    6    6    0    0  0.68785509991E+02  0.23934162189E+02 -0.55878508301E+01  0.73044606791E+02  0.00000000000E+00 0.  1.
</event>
<event>
12    1  0.8135779E-002  0.1910310E+03  0.7818608E-02  0.1157539E+00
         21   -1    0    0  503  502  0.00000000000E+00  0.00000000000E+00  0.52009965864E+03  0.52009965864E+03  0.00000000000E+00 0. -1.
         21   -1    0    0  501  503 -0.00000000000E+00 -0.00000000000E+00 -0.79444286425E+02  0.79444286425E+02  0.00000000000E+00 0. -1.
          6    2    1    2  501    0 -0.72874864020E+01  0.80824953222E+02  0.11783175132E+03  0.22443338592E+03  0.17291686608E+03 0.  0.
         24    2    3    3    0    0 -0.40781848151E+02  0.73539221434E+02  0.14112138974E+03  0.18272665487E+03  0.80016295409E+02 0.  0.
         -6    2    1    2    0  502  0.72874864020E+01 -0.80824953222E+02  0.32282362089E+03  0.37511055915E+03  0.17293658045E+03 0.  0.
        -24    2    5    5    0    0  0.65618797534E+02 -0.82501963574E+02  0.23132215849E+03  0.26648292986E+03  0.79942543848E+02 0.  0.
          5    1    3    3  501    0  0.33494361749E+02  0.72857317884E+01 -0.23289638420E+02  0.41706731044E+02  0.47000000000E+01 0. -1.
        -13    1    4    4    0    0  0.23624487423E+01  0.70296797772E+02  0.68419898192E+02  0.98124937757E+02  0.00000000000E+00 0.  1.
         14    1    4    4    0    0 -0.43144296894E+02  0.32424236614E+01  0.72701491550E+02  0.84601717118E+02  0.00000000000E+00 0. -1.
         -5    1    5    5    0  502 -0.58331311132E+02  0.16770103520E+01  0.91501462408E+02  0.10862762929E+03  0.47000000000E+01 0.  1.
         11    1    6    6    0    0  0.36821346794E+02 -0.20269027632E+02  0.16788724741E+03  0.17306869418E+03  0.00000000000E+00 0. -1.
        -12    1    6    6    0    0  0.28797450740E+02 -0.62232935942E+02  0.63434911072E+02  0.93414235681E+02  0.00000000000E+00 0.  1.
</event>
<event>
12    1  0.8135779E-002  0.2296083E+03  0.7818608E-02  0.1127017E+00
         21   -1    0    0  503  502  0.00000000000E+00  0.00000000000E+00  0.10179725684E+03  0.10179725684E+03  0.00000000000E+00 0.  1.
         21   -1    0    0  501  503 -0.00000000000E+00 -0.00000000000E+00 -0.51943825739E+03  0.51943825739E+03  0.00000000000E+00 0.  1.
          6    2    1    2  501    0  0.14389057266E+03 -0.47096221078E+02 -0.18560500693E+03  0.29479922387E+03  0.17185695464E+03 0.  0.
         24    2    3    3    0    0  0.14938514477E+03 -0.85575039086E+02 -0.15025154833E+03  0.24204728748E+03  0.79827018040E+02 0.  0.
         -6    2    1    2    0  502 -0.14389057266E+03  0.47096221078E+02 -0.23203599362E+03  0.32643629036E+03  0.17261922949E+03 0.  0.
        -24    2    5    5    0    0 -0.83342307897E+02  0.47139605187E+01 -0.22327377316E+03  0.25186273685E+03  0.81335716157E+02 0.  0.
          5    1    3    3  501    0 -0.54945721135E+01  0.38478818007E+02 -0.35353458601E+02  0.52751936391E+02  0.47000000000E+01 0. -1.
        -11    1    4    4    0    0  0.59819606142E+02  0.48849606508E+01 -0.30712746241E+02  0.67420478352E+02  0.00000000000E+00 0.  1.
         12    1    4    4    0    0  0.89565538629E+02 -0.90459999736E+02 -0.11953880208E+03  0.17462680913E+03  0.00000000000E+00 0. -1.
         -5    1    5    5    0  502 -0.60548264760E+02  0.42382260560E+02 -0.87622204577E+01  0.74573553509E+02  0.47000000000E+01 0.  1.
         11    1    6    6    0    0 -0.51941217949E+02  0.98820536771E+01 -0.41202608722E+02  0.67031336496E+02  0.00000000000E+00 0. -1.
        -12    1    6    6    0    0 -0.31401089948E+02 -0.51680931584E+01 -0.18207116444E+03  0.18483140035E+03  0.00000000000E+00 0.  1.
</event>
<event>
12    1  0.8135779E-002  0.2049089E+03  0.7818608E-02  0.1145843E+00
         21   -1    0    0  501  502  0.00000000000E+00  0.00000000000E+00  0.38478138370E+03  0.38478138370E+03  0.00000000000E+00 0.  1.
         21   -1    0    0  502  503 -0.00000000000E+00 -0.00000000000E+00 -0.17620207554E+03  0.17620207554E+03  0.00000000000E+00 0. -1.
         -6    2    1    2    0  503 -0.10947450834E+03  0.24793092013E+01 -0.69519681438E+02  0.21554649503E+03  0.17215252092E+03 0.  0.
        -24    2    3    3    0    0 -0.72098286807E+02 -0.17116020009E+02 -0.11272287195E+03  0.15496956432E+03  0.76275808104E+02 0.  0.
          6    2    1    2  501    0  0.10947450834E+03 -0.24793092013E+01  0.27809898959E+03  0.34543696421E+03  0.17319593899E+03 0.  0.
         24    2    5    5    0    0 -0.65787277660E+01  0.17755704204E+02  0.73435370535E+02  0.10924404234E+03  0.78631815761E+02 0.  0.
          5    1    5    5  501    0  0.11605323611E+03 -0.20235013406E+02  0.20466361906E+03  0.23619292188E+03  0.47000000000E+01 0. -1.
        -11    1    6    6    0    0 -0.42882158470E+01 -0.22031961215E+02  0.64647464550E+02  0.68433111744E+02  0.00000000000E+00 0.  1.
         12    1    6    6    0    0 -0.22905119190E+01  0.39787665419E+02  0.87879059843E+01  0.40810930594E+02  0.00000000000E+00 0. -1.
         -5    1    3    3    0  503 -0.37376221537E+02  0.19595329210E+02  0.43203190515E+02  0.60576930707E+02  0.47000000000E+01 0.  1.
         13    1    4    4    0    0 -0.61866689231E+02 -0.33954632115E+02 -0.43281665370E+02  0.82787117570E+02  0.00000000000E+00 0. -1.
        -14    1    4    4    0    0 -0.10231597577E+02  0.16838612106E+02 -0.69441206584E+02  0.72182446747E+02  0.00000000000E+00 0.  1.
</event>
<event>
12    1  0.8135779E-002  0.2036611E+03  0.7818608E-02  0.1146772E+00
         21   -1    0    0  503  502  0.00000000000E+00  0.00000000000E+00  0.66450457586E+03  0.66450457586E+03  0.00000000000E+00 0.  1.
         21   -1    0    0  501  503 -0.00000000000E+00 -0.00000000000E+00 -0.10835956320E+03  0.10835956320E+03  0.00000000000E+00 0.  1.
          6    2    1    2  501    0 -0.10708455351E+03 -0.19635669654E+02  0.25944040632E+02  0.20489327692E+03  0.17162604860E+03 0.  0.
         24    2    3    3    0    0 -0.11813758020E+03  0.77513799027E+01  0.65375816828E+02  0.15540413814E+03  0.76549833303E+02 0.  0.
         -6    2    1    2    0  502  0.10708455351E+03  0.19635669654E+02  0.53020097203E+03  0.56797086214E+03  0.17211963392E+03 0.  0.
        -24    2    5    5    0    0  0.29346081027E+02 -0.57225698721E+01  0.42969335642E+03  0.43831677925E+03  0.81186686989E+02 0.  0.
          5    1    3    3  501    0  0.11053026699E+02 -0.27387049557E+02 -0.39431776196E+02  0.49489138774E+02  0.47000000000E+01 0. -1.
        -11    1    4    4    0    0 -0.29034922716E+02 -0.17939846591E+02 -0.10366992425E+02  0.35669866341E+02  0.00000000000E+00 0.  1.
         12    1    4    4    0    0 -0.89102657488E+02  0.25691226493E+02  0.75742809253E+02  0.11973427180E+03  0.00000000000E+00 0. -1.
         -5    1    5    5    0  502  0.77738472479E+02  0.25358239526E+02  0.10050761562E+03  0.12965408290E+03  0.47000000000E+01 0.  1.
         11    1    6    6    0    0 -0.92496613938E+01 -0.29532067693E+02  0.81411670907E+02  0.87095117073E+02  0.00000000000E+00 0. -1.
        -12    1    6    6    0    0  0.38595742421E+02  0.23809497821E+02  0.34828168551E+03  0.35122166217E+03  0.00000000000E+00 0.  1.
</event>
<event>
12    1  0.8135779E-002  0.1817310E+03  0.7818608E-02  0.1168226E+00
         21   -1    0    0  501  502  0.00000000000E+00  0.00000000000E+00  0.12825366906E+02  0.12825366906E+02  0.00000000000E+00 0. -1.
         21   -1    0    0  502  503 -0.00000000000E+00 -0.00000000000E+00 -0.25357551642E+04  0.25357551642E+04  0.00000000000E+00 0. -1.
         -6    2    1    2    0  503  0.14794355313E+02 -0.12593028812E+02 -0.14583707760E+04  0.14686212493E+04  0.17212087657E+03 0.  0.
        -24    2    3    3    0    0  0.63862940711E+02 -0.29350729904E+02 -0.78289981159E+03  0.79114677714E+03  0.89672556759E+02 0.  0.
          6    2    1    2  501    0 -0.14794355313E+02  0.12593028812E+02 -0.10645590213E+04  0.10799592818E+04  0.18068946652E+03 0.  0.
         24    2    5    5    0    0 -0.18169434972E+02 -0.62080479730E+02 -0.64916045012E+03  0.65786262589E+03  0.84792866504E+02 0.  0.
          5    1    5    5  501    0  0.33750796590E+01  0.74673508542E+02 -0.41539857115E+03  0.42209665594E+03  0.47000000000E+01 0. -1.
        -13    1    6    6    0    0 -0.47776288036E+02 -0.28359667734E+02 -0.24511077454E+03  0.25132874139E+03  0.00000000000E+00 0.  1.
         14    1    6    6    0    0  0.29606853064E+02 -0.33720811995E+02 -0.40404967558E+03  0.40653388450E+03  0.00000000000E+00 0. -1.
         -5    1    3    3    0  503 -0.49068585398E+02  0.16757701092E+02 -0.67547096443E+03  0.67747447214E+03  0.47000000000E+01 0.  1.
         13    1    4    4    0    0  0.74924439475E+02 -0.32527657036E+02 -0.76794306052E+03  0.77227473370E+03  0.00000000000E+00 0. -1.
        -14    1    4    4    0    0 -0.11061498764E+02  0.31769271319E+01 -0.14956751071E+02  0.18872043437E+02  0.00000000000E+00 0.  1.
</event>
<event>
12    1  0.8135779E-002  0.1746330E+03  0.7818608E-02  0.1174043E+00
         21   -1    0    0  501  502  0.00000000000E+00  0.00000000000E+00  0.84454297726E+03  0.84454297726E+03  0.00000000000E+00 0.  1.
         21   -1    0    0  502  503 -0.00000000000E+00 -0.00000000000E+00 -0.74108288653E+02  0.74108288653E+02  0.00000000000E+00 0.  1.
         -6    2    1    2    0  503  0.21547746760E+02  0.11361993340E+02  0.55013406379E+02  0.18309332651E+03  0.17292568070E+03 0.  0.
        -24    2    3    3    0    0  0.43116734928E+02  0.56351546949E+02 -0.93786516319E+01  0.10149854530E+03  0.71968367483E+02 0.  0.
          6    2    1    2  501    0 -0.21547746760E+02 -0.11361993340E+02  0.71542128223E+03  0.73555793941E+03  0.16918767945E+03 0.  0.
         24    2    5    5    0    0 -0.40420108764E+02 -0.60724365632E+02  0.34260500318E+03  0.35898539956E+03  0.78556318125E+02 0.  0.
          5    1    5    5  501    0  0.18872362004E+02  0.49362372292E+02  0.37281627904E+03  0.37657253985E+03  0.47000000000E+01 0. -1.
        -13    1    6    6    0    0 -0.22794588094E+02 -0.49615190739E+02  0.33031263469E+03  0.33479500748E+03  0.00000000000E+00 0.  1.
         14    1    6    6    0    0 -0.17625520670E+02 -0.11109174894E+02  0.12292368490E+02  0.24190392076E+02  0.00000000000E+00 0. -1.
         -5    1    3    3    0  503 -0.21568988168E+02 -0.44989553608E+02  0.64392058011E+02  0.81594781202E+02  0.47000000000E+01 0.  1.
         13    1    4    4    0    0  0.47254630162E+02  0.68174082865E+02  0.41600617553E+01  0.83054269969E+02  0.00000000000E+00 0. -1.
        -14    1    4    4    0    0 -0.41378952344E+01 -0.11822535917E+02 -0.13538713387E+02  0.18444275336E+02  0.00000000000E+00 0.  1.
</event>
<event>
12    1  0.8135779E-002  0.2337947E+03  0.7818608E-02  0.1124784E+00
         21   -1    0    0  503  502  0.00000000000E+00  0.00000000000E+00  0.11701503800E+03  0.11701503800E+03  0.00000000000E+00 0.  1.
         21   -1    0    0  501  503 -0.00000000000E+00 -0.00000000000E+00 -0.54917388390E+03  0.54917388390E+03  0.00000000000E+00 0. -1.
          6    2    1    2  501    0  0.14225950188E+03  0.50271375184E+02 -0.35345441009E+03  0.42378059894E+03  0.17859171031E+03 0.  0.
         24    2    3    3    0    0  0.17109330603E+03  0.17905318341E+02 -0.29719308894E+03  0.35260211796E+03  0.80068730996E+02 0.  0.
         -6    2    1    2    0  502 -0.14225950188E+03 -0.50271375184E+02 -0.78704435817E+02  0.24240832296E+03  0.17263380255E+03 0.  0.
        -24    2    5    5    0    0 -0.14102967558E+03 -0.75505730090E+02 -0.10358356049E+03  0.20664037663E+03  0.79876195311E+02 0.  0.
          5    1    3    3  501    0 -0.28833804151E+02  0.32366056843E+02 -0.56261321146E+02  0.71178480979E+02  0.47000000000E+01 0. -1.
        -13    1    4    4    0    0 -0.27449391380E+01 -0.83779884826E+01 -0.20336799810E+01  0.90477199421E+01  0.00000000000E+00 0.  1.
         14    1    4    4    0    0  0.17383824517E+03  0.26283306823E+02 -0.29515940896E+03  0.34355439802E+03  0.00000000000E+00 0. -1.
         -5    1    5    5    0  502 -0.12298262968E+01  0.25234354905E+02  0.24879124673E+02  0.35767946330E+02  0.47000000000E+01 0.  1.
         11    1    6    6    0    0 -0.36234926891E+02 -0.61693723864E+02 -0.55329919177E+02  0.90446036106E+02  0.00000000000E+00 0. -1.
        -12    1    6    6    0    0 -0.10479474869E+03 -0.13812006225E+02 -0.48253641312E+02  0.11619434052E+03  0.00000000000E+00 0.  1.
</event>
<event>
12    1  0.8135779E-002  0.2408213E+03  0.7818608E-02  0.1119426E+00
         21   -1    0    0  501  502  0.00000000000E+00  0.00000000000E+00  0.23293345311E+04  0.23293345311E+04  0.00000000000E+00 0. -1.
         21   -1    0    0  502  503 -0.00000000000E+00 -0.00000000000E+00 -0.62357451535E+02  0.62357451535E+02  0.00000000000E+00 0.  1.
         -6    2    1    2    0  503 -0.16630170228E+03 -0.19701333217E+02  0.20424322844E+03  0.31494794084E+03  0.17155905795E+03 0.  0.
        -24    2    3    3    0    0 -0.17619069674E+03 -0.50394332073E+02  0.14313445365E+03  0.24569315944E+03  0.79340446518E+02 0.  0.
          6    2    1    2  501    0  0.16630170228E+03  0.19701333217E+02  0.20627338512E+04  0.20767440418E+04  0.17306205778E+03 0.  0.
         24    2    5    5    0    0  0.15288180603E+03  0.65554866579E+02  0.13725247186E+04  0.13848673355E+04  0.79769333271E+02 0.  0.
          5    1    5    5  501    0  0.13419896249E+02 -0.45853533362E+02  0.69020913252E+03  0.69187670632E+03  0.47000000000E+01 0. -1.
        -13    1    6    6    0    0  0.78117911535E+01  0.33165165541E+02  0.33908683668E+03  0.34079441764E+03  0.00000000000E+00 0.  1.
         14    1    6    6    0    0  0.14507001488E+03  0.32389701038E+02  0.10334378820E+04  0.10440729179E+04  0.00000000000E+00 0. -1.
         -5    1    3    3    0  503  0.98889944533E+01  0.30692998857E+02  0.61108774793E+02  0.69254781400E+02  0.47000000000E+01 0.  1.
         11    1    4    4    0    0 -0.94716203887E+02  0.12349532033E+02  0.83169941651E+02  0.12665271183E+03  0.00000000000E+00 0. -1.
        -12    1    4    4    0    0 -0.81474492850E+02 -0.62743864106E+02  0.59964512000E+02  0.11904044761E+03  0.00000000000E+00 0.  1.
</event>
<event>
12    1  0.8135779E-002  0.3023912E+03  0.7818608E-02  0.1084069E+00
         21   -1    0    0  503  502  0.00000000000E+00  0.00000000000E+00  0.15754816657E+04  0.15754816657E+04  0.00000000000E+00 0. -1.
         21   -1    0    0  501  503 -0.00000000000E+00 -0.00000000000E+00 -0.10284485244E+03  0.10284485244E+03  0.00000000000E+00 0. -1.
          6    2    1    2  501    0  0.20527182939E+03 -0.13926941563E+03  0.18216616424E+03  0.35290019133E+03  0.17268914147E+03 0.  0.
         24    2    3    3    0    0  0.31938876793E+02 -0.75721797962E+02  0.43930524540E+02  0.12221903855E+03  0.79080464470E+02 0.  0.
         -6    2    1    2    0  502 -0.20527182939E+03  0.13926941563E+03  0.12904706490E+04  0.13254263268E+04  0.17293917358E+03 0.  0.
        -24    2    5    5    0    0 -0.44039233749E+02  0.27175240374E+02  0.27828172931E+03  0.29435428607E+03  0.80782281849E+02 0.  0.
          5    1    3    3  501    0  0.17333295259E+03 -0.63547617668E+02  0.13823563969E+03  0.23068115278E+03  0.47000000000E+01 0. -1.
        -11    1    4    4    0    0 -0.14898446841E+02  0.26290162389E+01  0.24649689893E+02  0.28922009897E+02  0.00000000000E+00 0.  1.
         12    1    4    4    0    0  0.46837323633E+02 -0.78350814201E+02  0.19280834647E+02  0.93297028655E+02  0.00000000000E+00 0. -1.
         -5    1    5    5    0  502 -0.16123259564E+03  0.11209417526E+03  0.10121889197E+04  0.10310720408E+04  0.47000000000E+01 0.  1.
         13    1    6    6    0    0 -0.65112968957E+02  0.12024740851E+02  0.15816836087E+03  0.17146872455E+03  0.00000000000E+00 0. -1.
        -14    1    6    6    0    0  0.21073735208E+02  0.15150499523E+02  0.12011336844E+03  0.12288556152E+03  0.00000000000E+00 0.  1.
</event>
<event>
12    1  0.8135779E-002  0.1974484E+03  0.7818608E-02  0.1151949E+00
         21   -1    0    0  503  502  0.00000000000E+00  0.00000000000E+00  0.45460707838E+02  0.45460707838E+02  0.00000000000E+00 0. -1.
         21   -1    0    0  501  503 -0.00000000000E+00 -0.00000000000E+00 -0.10671303116E+04  0.10671303116E+04  0.00000000000E+00 0. -1.
          6    2    1    2  501    0 -0.69197842751E+02  0.67434158093E+02 -0.75762993105E+03  0.78288990882E+03  0.17198194612E+03 0.  0.
         24    2    3    3    0    0 -0.25333593784E+02  0.20839909507E+02 -0.15446094338E+03  0.17631756027E+03  0.78444924804E+02 0.  0.
         -6    2    1    2    0  502  0.69197842751E+02 -0.67434158093E+02 -0.26403967268E+03  0.32970111059E+03  0.17219223691E+03 0.  0.
        -24    2    5    5    0    0 -0.12806936083E+02 -0.27375602552E+02 -0.55549273069E+02  0.10206146476E+03  0.80108548999E+02 0.  0.
          5    1    3    3  501    0 -0.43864248967E+02  0.46594248585E+02 -0.60316898767E+03  0.60657234855E+03  0.47000000000E+01 0. -1.
        -13    1    4    4    0    0 -0.35770564405E+02 -0.21081270745E+02 -0.68235607862E+02  0.79875224159E+02  0.00000000000E+00 0.  1.
         14    1    4    4    0    0  0.10436970620E+02  0.41921180253E+02 -0.86225335516E+02  0.96442336110E+02  0.00000000000E+00 0. -1.
         -5    1    5    5    0  502  0.82004778833E+02 -0.40058555541E+02 -0.20849039961E+03  0.22763964583E+03  0.47000000000E+01 0.  1.
         13    1    6    6    0    0  0.15872840545E+02 -0.15780133762E+02  0.13682190142E+02  0.26232842309E+02  0.00000000000E+00 0. -1.
        -14    1    6    6    0    0 -0.28679776628E+02 -0.11595468789E+02 -0.69231463211E+02  0.75828622447E+02  0.00000000000E+00 0.  1.
</event>
<event>
12    1  0.8135779E-002  0.2260799E+03  0.7818608E-02  0.1129484E+00
         21   -1    0    0  503  502  0.00000000000E+00  0.00000000000E+00  0.37761118108E+03  0.37761118108E+03  0.00000000000E+00 0. -1.
         21   -1    0    0  501  503 -0.00000000000E+00 -0.00000000000E+00 -0.14450959274E+03  0.14450959274E+03  0.00000000000E+00 0. -1.
          6    2    1    2  501    0  0.93108448233E+02 -0.11311576848E+03  0.50134846362E+02  0.23127895258E+03  0.17179083466E+03 0.  0.
         24    2    3    3    0    0  0.61996214760E+02 -0.46050099246E+02  0.93909626465E+02  0.14523189316E+03  0.79430111180E+02 0.  0.
         -6    2    1    2    0  502 -0.93108448233E+02  0.11311576848E+03  0.18296674198E+03  0.29084182124E+03  0.17218529583E+03 0.  0.
        -24    2    5    5    0    0 -0.33492131528E+01  0.10103302004E+03  0.14251047768E+03  0.19153667327E+03  0.78474024951E+02 0.  0.
          5    1    3    3  501    0  0.31112233473E+02 -0.67065669237E+02 -0.43774780103E+02  0.86047059421E+02  0.47000000000E+01 0. -1.
        -11    1    4    4    0    0  0.53713973471E+02 -0.68383923406E+02  0.74412465573E+02  0.11444984473E+03  0.00000000000E+00 0.  1.
         12    1    4    4    0    0  0.82822412886E+01  0.22333824160E+02  0.19497160893E+02  0.30782048425E+02  0.00000000000E+00 0. -1.
         -5    1    5    5    0  502 -0.89759235080E+02  0.12082748442E+02  0.40456264297E+02  0.99305147968E+02  0.47000000000E+01 0.  1.
         11    1    6    6    0    0 -0.30138836606E+02  0.65998912017E+02  0.12408316119E+03  0.14373877957E+03  0.00000000000E+00 0. -1.
        -12    1    6    6    0    0  0.26789623453E+02  0.35034108025E+02  0.18427316487E+02  0.47797893706E+02  0.00000000000E+00 0.  1.
</event>
<event>
12    1  0.8135779E-002  0.1953255E+03  0.7818608E-02  0.1154287E+00
         21   -1    0    0  501  502  0.00000000000E+00  0.00000000000E+00  0.14377065614E+03  0.14377065614E+03  0.00000000000E+00 0.  1.
         21   -1    0    0  502  503 -0.00000000000E+00 -0.00000000000E+00 -0.31834585705E+03  0.31834585705E+03  0.00000000000E+00 0.  1.
         -6    2    1    2    0  503  0.52834671436E+02  0.71107011067E+02 -0.18494508295E+03  0.26899209606E+03  0.17408145940E+03 0.  0.
        -24    2    3    3    0    0  0.61582073930E+02  0.40331313877E+02 -0.20410593256E+03  0.23140368368E+03  0.80432993266E+02 0.  0.
          6    2    1    2  501    0 -0.52834671436E+02 -0.71107011067E+02  0.10369882038E+02  0.19312441713E+03  0.17129447308E+03 0.  0.
         24    2    5    5    0    0 -0.90360444497E+02 -0.14008436922E+02  0.27158472870E+02  0.12260932941E+03  0.77033880701E+02 0.  0.
          5    1    5    5  501    0  0.37525773061E+02 -0.57098574145E+02 -0.16788590833E+02  0.70515087714E+02  0.47000000000E+01 0. -1.
        -11    1    6    6    0    0 -0.20709335493E+02 -0.34695184450E+02 -0.90829205780E+01  0.41414150321E+02  0.00000000000E+00 0.  1.
         12    1    6    6    0    0 -0.69651109004E+02  0.20686747528E+02  0.36241393448E+02  0.81195179093E+02  0.00000000000E+00 0. -1.
         -5    1    3    3    0  503 -0.87474024941E+01  0.30775697189E+02  0.19160849605E+02  0.37588412383E+02  0.47000000000E+01 0.  1.
         11    1    4    4    0    0  0.59843473863E+02 -0.60205817753E+01 -0.13909397973E+03  0.15154083267E+03  0.00000000000E+00 0. -1.
        -12    1    4    4    0    0  0.17386000670E+01  0.46351895653E+02 -0.65011952830E+02  0.79862851011E+02  0.00000000000E+00 0.  1.
</event>
<event>
12    1  0.8135779E-002  0.1889518E+03  0.7818608E-02  0.1159412E+00
         21   -1    0    0  501  502  0.00000000000E+00  0.00000000000E+00  0.44834905936E+03  0.44834905936E+03  0.00000000000E+00 0. -1.
         21   -1    0    0  502  503 -0.00000000000E+00 -0.00000000000E+00 -0.23542447280E+03  0.23542447280E+03  0.00000000000E+00 0.  1.
         -6    2    1    2    0  503 -0.41274860263E+02 -0.66480957930E+02 -0.17165979328E+03  0.25527858442E+03  0.17197889166E+03 0.  0.
        -24    2    3    3    0    0 -0.34711192873E+02 -0.87729492868E+02 -0.18981930222E+03  0.22618494712E+03  0.78910911665E+02 0.  0.
          6    2    1    2  501    0  0.41274860263E+02  0.66480957930E+02  0.38458437984E+03  0.42849494774E+03  0.17198675288E+03 0.  0.
         24    2    5    5    0    0  0.83817752107E+02  0.82721853583E+02  0.26286319591E+03  0.29844956737E+03  0.78145786020E+02 0.  0.
          5    1    5    5  501    0 -0.42542891844E+02 -0.16240895653E+02  0.12172118393E+03  0.13004538037E+03  0.47000000000E+01 0. -1.
        -13    1    6    6    0    0  0.46130377293E+02  0.83325630510E+02  0.13548785422E+03  0.16561440472E+03  0.00000000000E+00 0.  1.
         14    1    6    6    0    0  0.37687374814E+02 -0.60377692633E+00  0.12737534169E+03  0.13283516265E+03  0.00000000000E+00 0. -1.
         -5    1    3    3    0  503 -0.65636673906E+01  0.21248534938E+02  0.18159508936E+02  0.29093637301E+02  0.47000000000E+01 0.  1.
         11    1    4    4    0    0 -0.50620895727E+02 -0.40769395158E+02 -0.65195521455E+02  0.92060168822E+02  0.00000000000E+00 0. -1.
        -12    1    4    4    0    0  0.15909702855E+02 -0.46960097710E+02 -0.12462378076E+03  0.13412477830E+03  0.00000000000E+00 0.  1.
</event>
<event>
12    1  0.8135779E-002  0.2280453E+03  0.7818608E-02  0.1128422E+00
         21   -1    0    0  503  502  0.00000000000E+00  0.00000000000E+00  0.10749785437E+03  0.10749785437E+03  0.00000000000E+00 0. -1.
         21   -1    0    0  501  503 -0.00000000000E+00 -0.00000000000E+00 -0.48704788163E+03  0.48704788163E+03  0.00000000000E+00 0.  1.
          6    2    1    2  501    0 -0.68281337147E+02  0.13086587384E+03 -0.22878377065E+03  0.32302732289E+03  0.17382870787E+03 0.  0.
         24    2    3    3    0    0 -0.35351137532E+02  0.59060339829E+02 -0.34755191847E+02  0.11348111759E+03  0.83259918472E+02 0.  0.
         -6    2    1    2    0  502  0.68281337147E+02 -0.13086587384E+03 -0.15076625661E+03  0.27151841311E+03  0.17089051053E+03 0.  0.
        -24    2    5    5    0    0  0.35021842990E+02 -0.12338814498E+03 -0.40448387035E+02  0.15595789767E+03  0.78966005508E+02 0.  0.
          5    1    3    3  501    0 -0.32930199615E+02  0.71805534008E+02 -0.19402857881E+03  0.20954620530E+03  0.47000000000E+01 0. -1.
        -13    1    4    4    0    0 -0.47999164020E+02  0.35466487444E+01 -0.29150932092E+02  0.56269665947E+02  0.00000000000E+00 0.  1.
         14    1    4    4    0    0  0.12648026488E+02  0.55513691084E+02 -0.56042597555E+01  0.57211451644E+02  0.00000000000E+00 0. -1.
         -5    1    5    5    0  502  0.33259494157E+02 -0.74777288606E+01 -0.11031786958E+03  0.11556051544E+03  0.47000000000E+01 0.  1.
         13    1    6    6    0    0  0.36470663048E+02 -0.64473302967E+02 -0.58427789437E+02  0.94343641212E+02  0.00000000000E+00 0. -1.
        -14    1    6    6    0    0 -0.14488200580E+01 -0.58914842009E+02  0.17979402403E+02  0.61614256461E+02  0.00000000000E+00 0.  1.
</event>
<event>
12    1  0.8135779E-002  0.2290328E+03  0.7818608E-02  0.1127348E+00
         21   -1    0    0  503  502  0.00000000000E+00  0.00000000000E+00  0.70518732863E+03  0.70518732863E+03  0.00000000000E+00 0. -1.
         21   -1    0    0  501  503 -0.00000000000E+00 -0.00000000000E+00 -0.84986876084E+02  0.84986876084E+02  0.00000000000E+00 0.  1.
          6    2    1    2  501    0 -0.55383175390E+02 -0.14108845097E+03  0.45003204495E+03  0.50496028187E+03  0.17170555517E+03 0.  0.
         24    2    3    3    0    0 -0.86198377617E+02 -0.10453673870E+03  0.22348184178E+03  0.27337295728E+03  0.80190710949E+02 0.  0.
         -6    2    1    2    0  502  0.55383175390E+02  0.14108845097E+03  0.17016840760E+03  0.28521392284E+03  0.17151223783E+03 0.  0.
        -24    2    5    5    0    0  0.50889419690E+02  0.75686028013E+01  0.62552274618E+02  0.11360079464E+03  0.79657621718E+02 0.  0.
          5    1    3    3  501    0  0.30815202228E+02 -0.36551712266E+02  0.22655020316E+03  0.23158732459E+03  0.47000000000E+01 0. -1.
        -13    1    4    4    0    0  0.15704326483E+02 -0.15809261970E+02  0.33911338149E+02  0.40577549080E+02  0.00000000000E+00 0.  1.
         14    1    4    4    0    0 -0.10190270410E+03 -0.88727476732E+02  0.18957050363E+03  0.23279540820E+03  0.00000000000E+00 0. -1.
         -5    1    5    5    0  502  0.44937557000E+01  0.13351984817E+03  0.10761613298E+03  0.17161312821E+03  0.47000000000E+01 0.  1.
         11    1    6    6    0    0  0.25943457619E+02  0.27818125128E+02  0.70851001997E+02  0.80416264293E+02  0.00000000000E+00 0. -1.
        -12    1    6    6    0    0  0.24945962071E+02 -0.20249522327E+02 -0.82987273790E+01  0.33184530345E+02  0.00000000000E+00 0.  1.
</event>
<event>
12    1  0.8135779E-002  0.1813342E+03  0.7818608E-02  0.1167224E+00
         21   -1    0    0  501  502  0.00000000000E+00  0.00000000000E+00  0.23745862669E+03  0.23745862669E+03  0.00000000000E+00 0. -1.
         21   -1    0    0  502  503 -0.00000000000E+00 -0.00000000000E+00 -0.13780909925E+03  0.13780909925E+03  0.00000000000E+00 0. -1.
         -6    2    1    2    0  503 -0.35125355092E+02 -0.30287283541E+02  0.30297963775E+02  0.18384794263E+03  0.17530256498E+03 0.  0.
        -24    2    3    3    0    0 -0.66121220145E+02 -0.60670862760E+02  0.55900264882E+02  0.13323694226E+03  0.81081895810E+02 0.  0.
          6    2    1    2  501    0  0.35125355092E+02  0.30287283541E+02  0.69351563663E+02  0.19141978330E+03  0.17228111893E+03 0.  0.
         24    2    5    5    0    0  0.71825663077E+02  0.52973728988E+02  0.14973886856E+02  0.12184529697E+03  0.81589933611E+02 0.  0.
          5    1    5    5  501    0 -0.36700307985E+02 -0.22686445447E+02  0.54377676807E+02  0.69574486331E+02  0.47000000000E+01 0. -1.
        -11    1    6    6    0    0  0.57250807827E+02  0.60134898142E+02  0.39882079757E+02  0.92111026795E+02  0.00000000000E+00 0.  1.
         12    1    6    6    0    0  0.14574855250E+02 -0.71611691542E+01 -0.24908192901E+02  0.29734270174E+02  0.00000000000E+00 0. -1.
         -5    1    3    3    0  503  0.30995865054E+02  0.30383579219E+02 -0.25602301107E+02  0.50611000371E+02  0.47000000000E+01 0.  1.
         11    1    4    4    0    0  0.46886365758E+00  0.17755166470E+02  0.11652347004E+02  0.21242480086E+02  0.00000000000E+00 0. -1.
        -12    1    4    4    0    0 -0.66590083803E+02 -0.78426029230E+02  0.44247917878E+02  0.11199446218E+03  0.00000000000E+00 0.  1.
</event>
<event>
12    1  0.8135779E-002  0.1884048E+03  0.7818608E-02  0.1163253E+00
         21   -1    0    0  501  502  0.00000000000E+00  0.00000000000E+00  0.89753453148E+02  0.89753453148E+02  0.00000000000E+00 0.  1.
         21   -1    0    0  502  503 -0.00000000000E+00 -0.00000000000E+00 -0.46040997001E+03  0.46040997001E+03  0.00000000000E+00 0.  1.
         -6    2    1    2    0  503 -0.65236105334E+02 -0.41974384556E+02 -0.31522268581E+03  0.36723522255E+03  0.17169382235E+03 0.  0.
        -24    2    3    3    0    0  0.25075491655E+02 -0.29671778445E+02 -0.10442466916E+03  0.13752794689E+03  0.80624003429E+02 0.  0.
          6    2    1    2  501    0  0.65236105334E+02  0.41974384556E+02 -0.55433831051E+02  0.18292820061E+03  0.15611604195E+03 0.  0.
         24    2    5    5    0    0  0.90593918509E+02  0.35842402308E+02 -0.78120131742E+02  0.14803725430E+03  0.79500552213E+02 0.  0.
          5    1    5    5  501    0 -0.25357813175E+02  0.61319822478E+01  0.22686300691E+02  0.34890946309E+02  0.47000000000E+01 0. -1.
        -11    1    6    6    0    0  0.43779729993E+02 -0.21675700627E+02 -0.16333254949E+02  0.51509959941E+02  0.00000000000E+00 0.  1.
         12    1    6    6    0    0  0.46814188516E+02  0.57518102936E+02 -0.61786876793E+02  0.96527294355E+02  0.00000000000E+00 0. -1.
         -5    1    3    3    0  503 -0.90311596989E+02 -0.12302606111E+02 -0.21079801665E+03  0.22970727566E+03  0.47000000000E+01 0.  1.
         11    1    4    4    0    0  0.29588714643E+02 -0.55553150168E+02 -0.78512725325E+02  0.10062749408E+03  0.00000000000E+00 0. -1.
        -12    1    4    4    0    0 -0.45132229880E+01  0.25881371723E+02 -0.25911943835E+02  0.36900452806E+02  0.00000000000E+00 0.  1.
</event>
<event>
12    1  0.8135779E-002  0.2043468E+03  0.7818608E-02  0.1146465E+00
         21   -1    0    0  501  502  0.00000000000E+00  0.00000000000E+00  0.14599352436E+03  0.14599352436E+03  0.00000000000E+00 0. -1.
         21   -1    0    0  502  503 -0.00000000000E+00 -0.00000000000E+00 -0.39766739104E+03  0.39766739104E+03  0.00000000000E+00 0.  1.
         -6    2    1    2    0  503  0.10419384378E+03 -0.20645348490E+02  0.19317277723E+02  0.20525782116E+03  0.17457098393E+03 0.  0.
        -24    2    3    3    0    0  0.54037665806E+02  0.10576556589E+02  0.75985903263E+02  0.12325859758E+03  0.79918029933E+02 0.  0.
          6    2    1    2  501    0 -0.10419384378E+03  0.20645348490E+02 -0.27099114440E+03  0.33840309424E+03  0.17262058496E+03 0.  0.
         24    2    5    5    0    0  0.94308087102E+01 -0.11630530354E+02 -0.13411132184E+03  0.15754273421E+03  0.81299797449E+02 0.  0.
          5    1    5    5  501    0 -0.11362465249E+03  0.32275878845E+02 -0.13687982255E+03  0.18086036004E+03  0.47000000000E+01 0. -1.
        -11    1    6    6    0    0 -0.92969208520E+01 -0.10814119527E+02 -0.13771714500E+03  0.13845356603E+03  0.00000000000E+00 0.  1.
         12    1    6    6    0    0  0.18727729562E+02 -0.81641082761E+00  0.36058231557E+01  0.19089168181E+02  0.00000000000E+00 0. -1.
         -5    1    3    3    0  503  0.50156177978E+02 -0.31221905079E+02 -0.56668625540E+02  0.81999223574E+02  0.47000000000E+01 0.  1.
         13    1    4    4    0    0  0.73962613712E+02  0.17383128113E+02  0.60447991584E+02  0.97090684706E+02  0.00000000000E+00 0. -1.
        -14    1    4    4    0    0 -0.19924947906E+02 -0.68065715239E+01  0.15537911679E+02  0.26167912876E+02  0.00000000000E+00 0.  1.
</event>
<event>
12    1  0.8135779E-002  0.1779822E+03  0.7818608E-02  0.1169793E+00
         21   -1    0    0  503  502  0.00000000000E+00  0.00000000000E+00  0.14139766021E+03  0.14139766021E+03  0.00000000000E+00 0. -1.
         21   -1    0    0  501  503 -0.00000000000E+00 -0.00000000000E+00 -0.24655364082E+03  0.24655364082E+03  0.00000000000E+00 0. -1.
          6    2    1    2  501    0  0.62463732902E+01 -0.44386935168E+02 -0.11134226349E+03  0.20986165554E+03  0.17214992778E+03 0.  0.
         24    2    3    3    0    0 -0.29635675625E+02 -0.24542030140E+02  0.19579884536E+01  0.89278162555E+02  0.80536774689E+02 0.  0.
         -6    2    1    2    0  502 -0.62463732902E+01  0.44386935168E+02  0.61862828748E+01  0.17808964549E+03  0.17224527436E+03 0.  0.
        -24    2    5    5    0    0  0.54499650211E+01  0.80978657778E+02  0.51046813716E+02  0.11884172805E+03  0.70216337135E+02 0.  0.
          5    1    3    3  501    0  0.35882048915E+02 -0.19844905028E+02 -0.11330025194E+03  0.12058349298E+03  0.47000000000E+01 0. -1.
        -13    1    4    4    0    0 -0.81508263461E+01  0.26019910066E+02 -0.15835089883E+02  0.31531282270E+02  0.00000000000E+00 0.  1.
         14    1    4    4    0    0 -0.21484849279E+02 -0.50561940206E+02  0.17793078337E+02  0.57746880285E+02  0.00000000000E+00 0. -1.
         -5    1    5    5    0  502 -0.11696338311E+02 -0.36591722610E+02 -0.44860530842E+02  0.59247917439E+02  0.47000000000E+01 0.  1.
         11    1    6    6    0    0  0.15020461840E+02  0.32620222241E+02  0.58839568987E+02  0.68933214429E+02  0.00000000000E+00 0. -1.
        -12    1    6    6    0    0 -0.95704968188E+01  0.48358435537E+02 -0.77927552706E+01  0.49908513619E+02  0.00000000000E+00 0.  1.
</event>
<event>
12    1  0.8135779E-002  0.1878432E+03  0.7818608E-02  0.1160532E+00
         21   -1    0    0  501  502  0.00000000000E+00  0.00000000000E+00  0.62764315884E+03  0.62764315884E+03  0.00000000000E+00 0. -1.
         21   -1    0    0  502  503 -0.00000000000E+00 -0.00000000000E+00 -0.15649078484E+03  0.15649078484E+03  0.00000000000E+00 0.  1.
         -6    2    1    2    0  503 -0.55878658503E+02  0.45504890554E+02 -0.78599132526E+02  0.20317630532E+03  0.17294411776E+03 0.  0.
        -24    2    3    3    0    0 -0.20266609334E+02  0.63639520938E+02  0.13992504025E+02  0.10221896767E+03  0.76106524718E+02 0.  0.
          6    2    1    2  501    0  0.55878658503E+02 -0.45504890554E+02  0.54975150653E+03  0.58095763836E+03  0.17347028305E+03 0.  0.
         24    2    5    5    0    0  0.56327864831E+02 -0.58768498362E+01  0.52405716349E+03  0.53349320261E+03  0.82290466665E+02 0.  0.
          5    1    5    5  501    0 -0.44920632710E+00 -0.39628040717E+02  0.25694343040E+02  0.47464435756E+02  0.47000000000E+01 0. -1.
        -11    1    6    6    0    0  0.32335083289E+02  0.76550802170E+00  0.55217903237E+02  0.63993440693E+02  0.00000000000E+00 0.  1.
         12    1    6    6    0    0  0.23992781541E+02 -0.66423578579E+01  0.46883926025E+03  0.46949976191E+03  0.00000000000E+00 0. -1.
         -5    1    3    3    0  503 -0.35612049170E+02 -0.18134630384E+02 -0.92591636551E+02  0.10095733765E+03  0.47000000000E+01 0.  1.
         13    1    4    4    0    0 -0.35406410581E+02  0.34781643247E+02  0.37357199997E+02  0.62120342954E+02  0.00000000000E+00 0. -1.
        -14    1    4    4    0    0  0.15139801247E+02  0.28857877691E+02 -0.23364695972E+02  0.40098624721E+02  0.00000000000E+00 0.  1.
</event>
<event>
12    1  0.8135779E-002  0.1735613E+03  0.7818608E-02  0.1174455E+00
         21   -1    0    0  501  502  0.00000000000E+00  0.00000000000E+00  0.28897286018E+02  0.28897286018E+02  0.00000000000E+00 0. -1.
         21   -1    0    0  502  503 -0.00000000000E+00 -0.00000000000E+00 -0.12951698800E+04  0.12951698800E+04  0.00000000000E+00 0. -1.
         -6    2    1    2    0  503  0.56123660775E+00  0.17008028868E+02 -0.93081075375E+03  0.94685382616E+03  0.17272498601E+03 0.  0.
        -24    2    3    3    0    0  0.17091574717E+02 -0.54271247587E+02 -0.61010189499E+03  0.61787016484E+03  0.79383424534E+02 0.  0.
          6    2    1    2  501    0 -0.56123660775E+00 -0.17008028868E+02 -0.33546184026E+03  0.37721333988E+03  0.17165567127E+03 0.  0.
         24    2    5    5    0    0 -0.11625065032E+02 -0.43472968913E+02 -0.33581057933E+03  0.34814423308E+03  0.80066351709E+02 0.  0.
          5    1    5    5  501    0  0.11063828424E+02  0.26464940045E+02  0.34873907151E+00  0.29069106796E+02  0.47000000000E+01 0. -1.
        -13    1    6    6    0    0 -0.37064386155E+02 -0.32846680328E+02 -0.10972314549E+03  0.12038206588E+03  0.00000000000E+00 0.  1.
         14    1    6    6    0    0  0.25439321123E+02 -0.10626288585E+02 -0.22608743384E+03  0.22776216720E+03  0.00000000000E+00 0. -1.
         -5    1    3    3    0  503 -0.16530338109E+02  0.71279276455E+02 -0.32070885876E+03  0.32898366132E+03  0.47000000000E+01 0.  1.
         11    1    4    4    0    0 -0.26093204917E+02 -0.26493202747E+02 -0.39404076537E+03  0.39579144749E+03  0.00000000000E+00 0. -1.
        -12    1    4    4    0    0  0.43184779634E+02 -0.27778044841E+02 -0.21606112962E+03  0.22207871735E+03  0.00000000000E+00 0.  1.
</event>
<event>
12    1  0.8135779E-002  0.2045559E+03  0.7818608E-02  0.1146051E+00
         21   -1    0    0  503  502  0.00000000000E+00  0.00000000000E+00  0.33812740570E+03  0.33812740570E+03  0.00000000000E+00 0.  1.
         21   -1    0    0  501  503 -0.00000000000E+00 -0.00000000000E+00 -0.15735569339E+03  0.15735569339E+03  0.00000000000E+00 0.  1.
          6    2    1    2  501    0  0.81315361170E+02  0.74192502574E+02 -0.24688683781E+02  0.20555712235E+03  0.17183563088E+03 0.  0.
         24    2    3    3    0    0  0.95188897747E+02  0.67513415394E+02 -0.69614756808E+02  0.15783367675E+03  0.80288651982E+02 0.  0.
         -6    2    1    2    0  502 -0.81315361170E+02 -0.74192502574E+02  0.20546039610E+03  0.28992597674E+03  0.17241340500E+03 0.  0.
        -24    2    5    5    0    0 -0.57171704050E+02  0.20396124696E+02  0.11544112541E+03  0.15705203767E+03  0.87487618869E+02 0.  0.
          5    1    3    3  501    0 -0.13873536577E+02  0.66790871798E+01  0.44926073027E+02  0.47723445604E+02  0.47000000000E+01 0. -1.
        -13    1    4    4    0    0  0.17757217850E+02  0.22456758408E+01 -0.52063638888E+02  0.55054376212E+02  0.00000000000E+00 0.  1.
         14    1    4    4    0    0  0.77431679896E+02  0.65267739553E+02 -0.17551117920E+02  0.10277930053E+03  0.00000000000E+00 0. -1.
         -5    1    5    5    0  502 -0.24143657120E+02 -0.94588627269E+02  0.90019270691E+02  0.13287393907E+03  0.47000000000E+01 0.  1.
         11    1    6    6    0    0  0.18726148961E+02  0.19041132442E+01  0.14716950635E+01  0.18880153297E+02  0.00000000000E+00 0. -1.
        -12    1    6    6    0    0 -0.75897853011E+02  0.18492011451E+02  0.11396943034E+03  0.13817188438E+03  0.00000000000E+00 0.  1.
</event>
<event>
12    1  0.8135779E-002  0.1917279E+03  0.7818608E-02  0.1157038E+00
         21   -1    0    0  503  502  0.00000000000E+00  0.00000000000E+00  0.42397231811E+02  0.42397231811E+02  0.00000000000E+00 0.  1.
         21   -1    0    0  501  503 -0.00000000000E+00 -0.00000000000E+00 -0.11107739456E+04  0.11107739456E+04  0.00000000000E+00 0.  1.
          6    2    1    2  501    0  0.82401094163E+02 -0.17498476871E+02 -0.80508185500E+03  0.82746613876E+03  0.17160209941E+03 0.  0.
         24    2    3    3    0    0  0.87209189241E+02  0.21759686972E+01 -0.79609136172E+03  0.80481397426E+03  0.79711350755E+02 0.  0.
         -6    2    1    2    0  502 -0.82401094163E+02  0.17498476871E+02 -0.26329485881E+03  0.32570503868E+03  0.17223081180E+03 0.  0.
        -24    2    5    5    0    0 -0.14737530751E+02  0.59228408401E+02 -0.20148780295E+03  0.22489855500E+03  0.79100101929E+02 0.  0.
          5    1    3    3  501    0 -0.48080950781E+01 -0.19674445568E+02 -0.89904932846E+01  0.22652164492E+02  0.47000000000E+01 0. -1.
        -13    1    4    4    0    0  0.66733654397E+01  0.18832525798E+01 -0.42620645696E+03  0.42626285834E+03  0.00000000000E+00 0.  1.
         14    1    4    4    0    0  0.80535823802E+02  0.29271611745E+00 -0.36988490476E+03  0.37855111593E+03  0.00000000000E+00 0. -1.
         -5    1    5    5    0  502 -0.67663563412E+02 -0.41729931530E+02 -0.61807055857E+02  0.10080648368E+03  0.47000000000E+01 0.  1.
         13    1    6    6    0    0  0.70471530710E+01  0.10839253823E+01 -0.13006136542E+03  0.13025665448E+03  0.00000000000E+00 0. -1.
        -14    1    6    6    0    0 -0.21784683823E+02  0.58144483019E+02 -0.71426437532E+02  0.94641900516E+02  0.00000000000E+00 0.  1.
</event>
<event>
12    1  0.8135779E-002  0.2211035E+03  0.7818608E-02  0.1133126E+00
         21   -1    0    0  501  502  0.00000000000E+00  0.00000000000E+00  0.18107343449E+03  0.18107343449E+03  0.00000000000E+00 0.  1.
         21   -1    0    0  502  503 -0.00000000000E+00 -0.00000000000E+00 -0.28386008311E+03  0.28386008311E+03  0.00000000000E+00 0. -1.
         -6    2    1    2    0  503 -0.17925051866E+02 -0.13735919337E+03 -0.10359607741E+03  0.24416982601E+03  0.17233079003E+03 0.  0.
        -24    2    3    3    0    0 -0.57341536261E+02 -0.12724073415E+03 -0.34587494218E+02  0.16391824028E+03  0.78706026016E+02 0.  0.
          6    2    1    2  501    0  0.17925051866E+02  0.13735919337E+03  0.80942878679E+00  0.22076369158E+03  0.17189268995E+03 0.  0.
         24    2    5    5    0    0 -0.58613235336E+01  0.15317219041E+03  0.34603552820E+02  0.17626677765E+03  0.79852964932E+02 0.  0.
          5    1    5    5  501    0  0.23786375400E+02 -0.15812997041E+02 -0.33794124033E+02  0.44496913929E+02  0.47000000000E+01 0. -1.
        -11    1    6    6    0    0 -0.32396259728E+02  0.12924162619E+03  0.11542059182E+02  0.13373905456E+03  0.00000000000E+00 0.  1.
         12    1    6    6    0    0  0.26534936195E+02  0.23930564219E+02  0.23061493637E+02  0.42527723093E+02  0.00000000000E+00 0. -1.
         -5    1    3    3    0  503  0.39416484395E+02 -0.10118459216E+02 -0.69008583191E+02  0.80251585735E+02  0.47000000000E+01 0.  1.
         11    1    4    4    0    0  0.17090367452E+02 -0.65275666392E+01 -0.19760044036E+01  0.18400934196E+02  0.00000000000E+00 0. -1.
        -12    1    4    4    0    0 -0.74431903714E+02 -0.12071316751E+03 -0.32611489814E+02  0.14551730608E+03  0.00000000000E+00 0.  1.
</event>
<event>
12    1  0.8135779E-002  0.2306615E+03  0.7818608E-02  0.1126727E+00
         21   -1    0    0  501  502  0.00000000000E+00  0.00000000000E+00  0.10648405404E+03  0.10648405404E+03  0.00000000000E+00 0. -1.
         21   -1    0    0  502  503 -0.00000000000E+00 -0.00000000000E+00 -0.49418892371E+03  0.49418892371E+03  0.00000000000E+00 0.  1.
         -6    2    1    2    0  503  0.14766696313E+03  0.46933173414E+02 -0.17986181154E+03  0.29249788983E+03  0.17086980287E+03 0.  0.
        -24    2    3    3    0    0  0.57685845452E+02 -0.28395067937E+02 -0.48652220882E+02  0.11640418703E+03  0.83958081875E+02 0.  0.
          6    2    1    2  501    0 -0.14766696313E+03 -0.46933173414E+02 -0.20784305813E+03  0.30817508792E+03  0.16662800856E+03 0.  0.
         24    2    5    5    0    0 -0.14970711615E+02  0.68420326801E+01 -0.49940743355E+02  0.94972604428E+02  0.79087180551E+02 0.  0.
          5    1    5    5  501    0 -0.13269625152E+03 -0.53775206094E+02 -0.15790231477E+03  0.21320248349E+03  0.47000000000E+01 0. -1.
        -13    1    6    6    0    0 -0.39408606554E+02 -0.13883040527E+02 -0.46859411738E+02  0.62782016161E+02  0.00000000000E+00 0.  1.
         14    1    6    6    0    0  0.24437894939E+02  0.20725073207E+02 -0.30813316174E+01  0.32190588268E+02  0.00000000000E+00 0. -1.
         -5    1    3    3    0  503  0.89981117681E+02  0.75328241351E+02 -0.13120959066E+03  0.17609370280E+03  0.47000000000E+01 0.  1.
         11    1    4    4    0    0  0.28918630592E+02  0.23074761555E+02  0.41826980876E+01  0.37232066548E+02  0.00000000000E+00 0. -1.
        -12    1    4    4    0    0  0.28767214860E+02 -0.51469829492E+02 -0.52834918970E+02  0.79172120480E+02  0.00000000000E+00 0.  1.
</event>
<event>
12    1  0.8135779E-002  0.1767762E+03  0.7818608E-02  0.1173534E+00
         21   -1    0    0  503  502  0.00000000000E+00  0.00000000000E+00  0.77292487993E+03  0.77292487993E+03  0.00000000000E+00 0. -1.
         21   -1    0    0  501  503 -0.00000000000E+00 -0.00000000000E+00 -0.39653443847E+02  0.39653443847E+02  0.00000000000E+00 0. -1.
          6    2    1    2  501    0  0.40147790083E+02 -0.34358340705E+01  0.29817703856E+03  0.34664011935E+03  0.17212256102E+03 0.  0.
         24    2    3    3    0    0  0.41630996353E+02  0.61173109313E+02  0.20183327287E+03  0.23053358786E+03  0.83269297669E+02 0.  0.
         -6    2    1    2    0  502 -0.40147790083E+02  0.34358340705E+01  0.43509439752E+03  0.46593820443E+03  0.16176410476E+03 0.  0.
        -24    2    5    5    0    0 -0.60881579494E+02  0.16424711009E+02  0.42845857525E+03  0.44015594144E+03  0.78639457227E+02 0.  0.
          5    1    3    3  501    0 -0.14832062699E+01 -0.64608943383E+02  0.96343765692E+02  0.11610653149E+03  0.47000000000E+01 0. -1.
        -13    1    4    4    0    0  0.32662769844E+02  0.28496674983E+02  0.18962567285E+03  0.19451687028E+03  0.00000000000E+00 0.  1.
         14    1    4    4    0    0  0.89682265088E+01  0.32676434329E+02  0.12207600020E+02  0.36016717583E+02  0.00000000000E+00 0. -1.
         -5    1    5    5    0  502  0.20733789411E+02 -0.12988876939E+02  0.66358222750E+01  0.25782262987E+02  0.47000000000E+01 0.  1.
         13    1    6    6    0    0 -0.19853163757E+02  0.11684550974E+02  0.22839154275E+02  0.32439232584E+02  0.00000000000E+00 0. -1.
        -14    1    6    6    0    0 -0.41028415737E+02  0.47401600354E+01  0.40561942097E+03  0.40771670886E+03  0.00000000000E+00 0.  1.
</event>
<event>
12    1  0.8135779E-002  0.2125935E+03  0.7818608E-02  0.1140521E+00
         21   -1    0    0  501  502  0.00000000000E+00  0.00000000000E+00  0.40998583684E+02  0.40998583684E+02  0.00000000000E+00 0. -1.
         21   -1    0    0  502  503 -0.00000000000E+00 -0.00000000000E+00 -0.10779971169E+04  0.10779971169E+04  0.00000000000E+00 0. -1.
         -6    2    1    2    0  503  0.93983369856E+02 -0.68472553881E+02 -0.53348265095E+03  0.57243897745E+03  0.17193393960E+03 0.  0.
        -24    2    3    3    0    0  0.83584513907E+02  0.54361193162E+01 -0.42027459254E+03  0.43676000830E+03  0.84336524454E+02 0.  0.
          6    2    1    2  501    0 -0.93983369856E+02  0.68472553881E+02 -0.50351588223E+03  0.54655672311E+03  0.17797371567E+03 0.  0.
         24    2    5    5    0    0 -0.30577690656E+02  0.10838639021E+03 -0.33660775703E+03  0.36354359040E+03  0.78591063606E+02 0.  0.
          5    1    5    5  501    0 -0.63405679200E+02 -0.39913836330E+02 -0.16690812520E+03  0.18301313271E+03  0.47000000000E+01 0. -1.
        -13    1    6    6    0    0 -0.34393166899E+01 -0.23068256067E+01 -0.10820588543E+03  0.10828510509E+03  0.00000000000E+00 0.  1.
         14    1    6    6    0    0 -0.27138373966E+02  0.11069321582E+03 -0.22840187160E+03  0.25525848531E+03  0.00000000000E+00 0. -1.
         -5    1    3    3    0  503  0.10398855949E+02 -0.73908673198E+02 -0.11320805841E+03  0.13567896914E+03  0.47000000000E+01 0.  1.
         11    1    4    4    0    0  0.29021309159E+02 -0.12602249918E+02 -0.34830725547E+02  0.47055632292E+02  0.00000000000E+00 0. -1.
        -12    1    4    4    0    0  0.54563204748E+02  0.18038369234E+02 -0.38544386700E+03  0.38970437601E+03  0.00000000000E+00 0.  1.
</event>
<event>
12    1  0.8135779E-002  0.1737233E+03  0.7818608E-02  0.1174333E+00
         21   -1    0    0  501  502  0.00000000000E+00  0.00000000000E+00  0.27951500985E+03  0.27951500985E+03  0.00000000000E+00 0.  1.
         21   -1    0    0  502  503 -0.00000000000E+00 -0.00000000000E+00 -0.21594753631E+03  0.21594753631E+03  0.00000000000E+00 0.  1.
         -6    2    1    2    0  503 -0.21974371878E+02 -0.88328295937E+01 -0.14406342071E+03  0.22474060910E+03  0.17086011909E+03 0.  0.
        -24    2    3    3    0    0 -0.72833053140E+02 -0.81790576833E+01 -0.52278755490E+02  0.11969991391E+03  0.78888849017E+02 0.  0.
          6    2    1    2  501    0  0.21974371878E+02  0.88328295937E+01  0.20763089425E+03  0.27072193707E+03  0.17210138601E+03 0.  0.
         24    2    5    5    0    0 -0.11328821495E+01  0.28287445490E+02  0.28010744262E+02  0.88518985528E+02  0.79054070171E+02 0.  0.
          5    1    5    5  501    0  0.23107254027E+02 -0.19454615897E+02  0.17962014999E+03  0.18220295154E+03  0.47000000000E+01 0. -1.
        -13    1    6    6    0    0  0.32956360003E+02  0.60913314396E+01  0.33601246478E+02  0.47458084119E+02  0.00000000000E+00 0.  1.
         14    1    6    6    0    0 -0.34089242153E+02  0.22196114051E+02 -0.55905022163E+01  0.41060901409E+02  0.00000000000E+00 0. -1.
         -5    1    3    3    0  503  0.50858681263E+02 -0.65377191036E+00 -0.91784665219E+02  0.10504069519E+03  0.47000000000E+01 0.  1.
         13    1    4    4    0    0  0.16815369186E+02 -0.15885794261E+01 -0.14241565418E+02  0.22093039877E+02  0.00000000000E+00 0. -1.
        -14    1    4    4    0    0 -0.89648422326E+02 -0.65904782572E+01 -0.38037190072E+02  0.97606874029E+02  0.00000000000E+00 0.  1.
</event>
<event>
12    1  0.8135779E-002  0.2153849E+03  0.7818608E-02  0.1137666E+00
         21   -1    0    0  501  502  0.00000000000E+00  0.00000000000E+00  0.92399653801E+03  0.92399653801E+03  0.00000000000E+00 0. -1.
         21   -1    0    0  502  503 -0.00000000000E+00 -0.00000000000E+00 -0.11315037535E+03  0.11315037535E+03  0.00000000000E+00 0. -1.
         -6    2    1    2    0  503 -0.67714016069E+02  0.10730922500E+03  0.16915690849E+02  0.21451925708E+03  0.17213922655E+03 0.  0.
        -24    2    3    3    0    0 -0.32397891081E+01  0.82657819574E+02 -0.42839425751E+02  0.12310054077E+03  0.80471829659E+02 0.  0.
          6    2    1    2  501    0  0.67714016069E+02 -0.10730922500E+03  0.79393047181E+03  0.82262765628E+03  0.17404082585E+03 0.  0.
         24    2    5    5    0    0  0.63401117211E+02  0.37849855903E+01  0.37426224655E+03  0.38845714368E+03  0.82417810561E+02 0.  0.
          5    1    5    5  501    0  0.43128988577E+01 -0.11109421059E+03  0.41966822526E+03  0.43417051261E+03  0.47000000000E+01 0. -1.
        -11    1    6    6    0    0  0.33881552950E+02 -0.17722845272E+02  0.54271175140E+02  0.66388397525E+02  0.00000000000E+00 0.  1.
         12    1    6    6    0    0  0.29519564261E+02  0.21507830863E+02  0.31999107141E+03  0.32206874615E+03  0.00000000000E+00 0. -1.
         -5    1    3    3    0  503 -0.64474226961E+02  0.24651405423E+02  0.59755116600E+02  0.91418716308E+02  0.47000000000E+01 0.  1.
         11    1    4    4    0    0  0.25363000440E+02  0.40586613567E+02  0.10915860112E+02  0.49088807219E+02  0.00000000000E+00 0. -1.
        -12    1    4    4    0    0 -0.28602789549E+02  0.42071206007E+02 -0.53755285863E+02  0.74011733550E+02  0.00000000000E+00 0.  1.
</event>
<event>
12    1  0.8135779E-002  0.2230474E+03  0.7818608E-02  0.1131660E+00
         21   -1    0    0  503  502  0.00000000000E+00  0.00000000000E+00  0.26993539547E+03  0.26993539547E+03  0.00000000000E+00 0.  1.
         21   -1    0    0  501  503 -0.00000000000E+00 -0.00000000000E+00 -0.22967072594E+03  0.22967072594E+03  0.00000000000E+00 0.  1.
          6    2    1    2  501    0 -0.85898358600E+02 -0.11275963350E+03 -0.91042824107E+02  0.24091269409E+03  0.17221169356E+03 0.  0.
         24    2    3    3    0    0 -0.22380046603E+02  0.11391651844E+01 -0.39300814184E+01  0.84010711193E+02  0.80871440397E+02 0.  0.
         -6    2    1    2    0  502  0.85898358600E+02  0.11275963350E+03  0.13130749364E+03  0.25869342731E+03  0.17200979185E+03 0.  0.
        -24    2    5    5    0    0  0.12834817857E+03  0.75034830561E+02  0.94800486171E+02  0.19101773325E+03  0.73465376192E+02 0.  0.
          5    1    3    3  501    0 -0.63518311997E+02 -0.11389879868E+03 -0.87112742689E+02  0.15690198290E+03  0.47000000000E+01 0. -1.
        -11    1    4    4    0    0 -0.18444996092E+02 -0.35747847014E+02 -0.18345697954E+02  0.44211888451E+02  0.00000000000E+00 0.  1.
         12    1    4    4    0    0 -0.39350505102E+01  0.36887012199E+02  0.14415616536E+02  0.39798822741E+02  0.00000000000E+00 0. -1.
         -5    1    5    5    0  502 -0.42449819973E+02  0.37724802935E+02  0.36507007465E+02  0.67675694058E+02  0.47000000000E+01 0.  1.
         11    1    6    6    0    0  0.45976348255E+02  0.39896832176E+02  0.36830618710E+00  0.60874604442E+02  0.00000000000E+00 0. -1.
        -12    1    6    6    0    0  0.82371830318E+02  0.35137998385E+02  0.94432179984E+02  0.13014312881E+03  0.00000000000E+00 0.  1.
</event>
<event>
12    1  0.8135779E-002  0.1994459E+03  0.7818608E-02  0.1150436E+00
         21   -1    0    0  503  502  0.00000000000E+00  0.00000000000E+00  0.11275027772E+04  0.11275027772E+04  0.00000000000E+00 0. -1.
         21   -1    0    0  501  503 -0.00000000000E+00 -0.00000000000E+00 -0.42013482402E+02  0.42013482402E+02  0.00000000000E+00 0. -1.
          6    2    1    2  501    0 -0.97360744377E+02  0.11365942706E+02  0.77889216778E+03  0.80375614537E+03  0.17246052589E+03 0.  0.
         24    2    3    3    0    0 -0.84432280751E+02  0.48901269486E+01  0.26275013058E+03  0.28739021511E+03  0.80017380922E+02 0.  0.
         -6    2    1    2    0  502  0.97360744377E+02 -0.11365942706E+02  0.30659712704E+03  0.36576011426E+03  0.17369618209E+03 0.  0.
        -24    2    5    5    0    0  0.69934882816E+02 -0.69706433418E+02  0.15013077383E+03  0.19646864836E+03  0.79440580580E+02 0.  0.
          5    1    3    3  501    0 -0.12928463625E+02  0.64758157569E+01  0.51614203720E+03  0.51636593025E+03  0.47000000000E+01 0. -1.
        -13    1    4    4    0    0  0.86868049256E+01 -0.18270871361E+02  0.53125536621E+02  0.56847233542E+02  0.00000000000E+00 0.  1.
         14    1    4    4    0    0 -0.93119085677E+02  0.23160998310E+02  0.20962459396E+03  0.23054298157E+03  0.00000000000E+00 0. -1.
         -5    1    5    5    0  502  0.27425861561E+02  0.58340490712E+02  0.15646635321E+03  0.16929146590E+03  0.47000000000E+01 0.  1.
         13    1    6    6    0    0  0.25258110048E+02  0.13799629823E+02  0.55872725931E+02  0.62850325451E+02  0.00000000000E+00 0. -1.
        -14    1    6    6    0    0  0.44676772768E+02 -0.83506063240E+02  0.94258047900E+02  0.13361832291E+03  0.00000000000E+00 0.  1.
</event>
<event>
12    1  0.8135779E-002  0.1805448E+03  0.7818608E-02  0.1169358E+00
         21   -1    0    0  501  502  0.00000000000E+00  0.00000000000E+00  0.27828780000E+03  0.27828780000E+03  0.00000000000E+00 0. -1.
         21   -1    0    0  502  503 -0.00000000000E+00 -0.00000000000E+00 -0.26883442359E+03  0.26883442359E+03  0.00000000000E+00 0. -1.
         -6    2    1    2    0  503  0.56716037460E+02  0.52791005612E+01 -0.20432281926E+03  0.27266140941E+03  0.17132382176E+03 0.  0.
        -24    2    3    3    0    0  0.12482549990E+02 -0.15245582134E+01 -0.21260090814E+03  0.22690654145E+03  0.78289808270E+02 0.  0.
          6    2    1    2  501    0 -0.56716037460E+02 -0.52791005612E+01  0.21377619567E+03  0.27446081417E+03  0.16243121274E+03 0.  0.
         24    2    5    5    0    0  0.12177343954E+02  0.26493716867E+02  0.16019986861E+03  0.18146445536E+03  0.80094606058E+02 0.  0.
          5    1    5    5  501    0 -0.68893381413E+02 -0.31772817428E+02  0.53576327066E+02  0.92996358809E+02  0.47000000000E+01 0. -1.
        -11    1    6    6    0    0  0.23953555911E+02 -0.22550060210E+02  0.82633632367E+02  0.88941527165E+02  0.00000000000E+00 0.  1.
         12    1    6    6    0    0 -0.11776211958E+02  0.49043777077E+02  0.77566236238E+02  0.92522928197E+02  0.00000000000E+00 0. -1.
         -5    1    3    3    0  503  0.44233487470E+02  0.68036587746E+01  0.82780888803E+01  0.45754867959E+02  0.47000000000E+01 0.  1.
         11    1    4    4    0    0  0.29575679827E+01 -0.30990493874E+02 -0.35923785386E+02  0.47536052375E+02  0.00000000000E+00 0. -1.
        -12    1    4    4    0    0  0.95249820073E+01  0.29465935660E+02 -0.17667712276E+03  0.17937048908E+03  0.00000000000E+00 0.  1.
</event>
<event>
12    1  0.8135779E-002  0.1745743E+03  0.7818608E-02  0.1173361E+00
         21   -1    0    0  501  502  0.00000000000E+00  0.00000000000E+00  0.17413470136E+03  0.17413470136E+03  0.00000000000E+00 0. -1.
         21   -1    0    0  502  503 -0.00000000000E+00 -0.00000000000E+00 -0.18503836337E+03  0.18503836337E+03  0.00000000000E+00 0. -1.
         -6    2    1    2    0  503 -0.23953499390E+02  0.49557437264E+01 -0.48868618864E+02  0.18051827703E+03  0.17204760069E+03 0.  0.
        -24    2    3    3    0    0 -0.30149058862E+02  0.65615173383E+02 -0.10115023155E+02  0.10811743074E+03  0.79829495846E+02 0.  0.
          6    2    1    2  501    0  0.23953499390E+02 -0.49557437264E+01  0.37964956853E+02  0.17865478771E+03  0.17285214981E+03 0.  0.
         24    2    5    5    0    0  0.73783256736E+02 -0.20106929054E+02  0.52403970998E+02  0.12440408943E+03  0.82957481401E+02 0.  0.
          5    1    5    5  501    0 -0.49829757346E+02  0.15151185328E+02 -0.14439014145E+02  0.54250698276E+02  0.47000000000E+01 0. -1.
        -11    1    6    6    0    0 -0.24249188806E+01  0.19504692169E+02 -0.59877507402E+01  0.20546688471E+02  0.00000000000E+00 0.  1.
         12    1    6    6    0    0  0.76208175617E+02 -0.39611621224E+02  0.58391721738E+02  0.10385740096E+03  0.00000000000E+00 0. -1.
         -5    1    3    3    0  503  0.61955594718E+01 -0.60659429657E+02 -0.38753595710E+02  0.72400846293E+02  0.47000000000E+01 0.  1.
         11    1    4    4    0    0 -0.14283090224E+02  0.22007346098E+00 -0.33867001745E+02  0.36756345110E+02  0.00000000000E+00 0. -1.
        -12    1    4    4    0    0 -0.15865968638E+02  0.65395099922E+02  0.23751978590E+02  0.71361085625E+02  0.00000000000E+00 0.  1.
</event>
<event>
12    1  0.8135779E-002  0.2553069E+03  0.7818608E-02  0.1110059E+00
         21   -1    0    0  501  502  0.00000000000E+00  0.00000000000E+00  0.81515855975E+03  0.81515855975E+03  0.00000000000E+00 0.  1.
         21   -1    0    0  502  503 -0.00000000000E+00 -0.00000000000E+00 -0.82299607236E+02  0.82299607236E+02  0.00000000000E+00 0.  1.
         -6    2    1    2    0  503  0.35592948465E+02 -0.18505183531E+03  0.28905713039E+03  0.38566258371E+03  0.17225145606E+03 0.  0.
        -24    2    3    3    0    0  0.73926359689E+02 -0.16397859504E+03  0.27791479298E+03  0.34027785550E+03  0.78729286164E+02 0.  0.
          6    2    1    2  501    0 -0.35592948465E+02  0.18505183531E+03  0.44380182213E+03  0.51179558328E+03  0.17164970727E+03 0.  0.
         24    2    5    5    0    0 -0.12589048126E+02  0.59966083052E+02  0.33140109471E+03  0.34199676593E+03  0.58143676175E+02 0.  0.
          5    1    5    5  501    0 -0.23003900339E+02  0.12508575226E+03  0.11240072742E+03  0.16979881735E+03  0.47000000000E+01 0. -1.
        -11    1    6    6    0    0 -0.62608335602E+01  0.63223444214E+02  0.18850331995E+03  0.19892185291E+03  0.00000000000E+00 0.  1.
         12    1    6    6    0    0 -0.63282145656E+01 -0.32573611627E+01  0.14289777477E+03  0.14307491301E+03  0.00000000000E+00 0. -1.
         -5    1    3    3    0  503 -0.38333411225E+02 -0.21073240271E+02  0.11142337410E+02  0.45384728209E+02  0.47000000000E+01 0.  1.
         11    1    4    4    0    0 -0.12285920261E+02 -0.15656149044E+01  0.15193177484E+02  0.19601725147E+02  0.00000000000E+00 0. -1.
        -12    1    4    4    0    0  0.86212279950E+02 -0.16241298014E+03  0.26272161549E+03  0.32067613035E+03  0.00000000000E+00 0.  1.
</event>
<event>
12    1  0.8135779E-002  0.3711187E+03  0.7818608E-02  0.1054336E+00
         21   -1    0    0  501  502  0.00000000000E+00  0.00000000000E+00  0.10965925050E+03  0.10965925050E+03  0.00000000000E+00 0. -1.
         21   -1    0    0  502  503 -0.00000000000E+00 -0.00000000000E+00 -0.13306348774E+04  0.13306348774E+04  0.00000000000E+00 0. -1.
         -6    2    1    2    0  503  0.31914015327E+03 -0.79469098569E+02 -0.43764941630E+03  0.57381712827E+03  0.17193984429E+03 0.  0.
        -24    2    3    3    0    0  0.25592069140E+03 -0.51392709283E+02 -0.42209208276E+03  0.50276007640E+03  0.80432314644E+02 0.  0.
          6    2    1    2  501    0 -0.31914015327E+03  0.79469098569E+02 -0.78332621062E+03  0.86647699964E+03  0.17034278264E+03 0.  0.
         24    2    5    5    0    0 -0.27313865163E+03  0.58116895008E+02 -0.75346779657E+03  0.80743743969E+03  0.79115118872E+02 0.  0.
          5    1    5    5  501    0 -0.46001501637E+02  0.21352203561E+02 -0.29858414048E+02  0.59039559951E+02  0.47000000000E+01 0. -1.
        -13    1    6    6    0    0 -0.79593994330E+02  0.54653414292E+02 -0.26163586053E+03  0.27888263327E+03  0.00000000000E+00 0.  1.
         14    1    6    6    0    0 -0.19354465730E+03  0.34634807168E+01 -0.49183193605E+03  0.52855480641E+03  0.00000000000E+00 0. -1.
         -5    1    3    3    0  503  0.63219461866E+02 -0.28076389286E+02 -0.15557333541E+02  0.71057051872E+02  0.47000000000E+01 0.  1.
         11    1    4    4    0    0  0.21257644079E+03 -0.53255722887E+02 -0.39468659873E+03  0.45144482100E+03  0.00000000000E+00 0. -1.
        -12    1    4    4    0    0  0.43344250619E+02  0.18630136040E+01 -0.27405484032E+02  0.51315255396E+02  0.00000000000E+00 0.  1.
</event>
<event>
12    1  0.8135779E-002  0.3546991E+03  0.7818608E-02  0.1060707E+00
         21   -1    0    0  503  502  0.00000000000E+00  0.00000000000E+00  0.40319308126E+03  0.40319308126E+03  0.00000000000E+00 0.  1.
         21   -1    0    0  501  503 -0.00000000000E+00 -0.00000000000E+00 -0.72302629291E+03  0.72302629291E+03  0.00000000000E+00 0. -1.
          6    2    1    2  501    0  0.30822662524E+03  0.33052792392E+02 -0.58448369108E+03  0.68366846500E+03  0.17229406637E+03 0.  0.
         24    2    3    3    0    0  0.10756232233E+03  0.68433907513E+02 -0.24200401599E+03  0.28513063289E+03  0.80502678078E+02 0.  0.
         -6    2    1    2    0  502 -0.30822662524E+03 -0.33052792392E+02  0.26465047943E+03  0.44255090916E+03  0.17238123838E+03 0.  0.
        -24    2    5    5    0    0 -0.27250451604E+03 -0.65756927048E+02  0.17349206141E+03  0.33921854886E+03  0.79918982735E+02 0.  0.
          5    1    3    3  501    0  0.20066430291E+03 -0.35381115121E+02 -0.34247967509E+03  0.39853783211E+03  0.47000000000E+01 0. -1.
        -11    1    4    4    0    0  0.92963930592E+02  0.37079854967E+02 -0.11020948081E+03  0.14887356278E+03  0.00000000000E+00 0.  1.
         12    1    4    4    0    0  0.14598391739E+02  0.31354052546E+02 -0.13179453518E+03  0.13625707011E+03  0.00000000000E+00 0. -1.
         -5    1    5    5    0  502 -0.35722109198E+02  0.32704134656E+02  0.91158418022E+02  0.10333236030E+03  0.47000000000E+01 0.  1.
         11    1    6    6    0    0 -0.35963800816E+01  0.58607362164E+01  0.20567520197E+02  0.21686518064E+02  0.00000000000E+00 0. -1.
        -12    1    6    6    0    0 -0.26890813596E+03 -0.71617663265E+02  0.15292454121E+03  0.31753203080E+03  0.00000000000E+00 0.  1.
</event>
<event>
12    1  0.8135779E-002  0.1846201E+03  0.7818608E-02  0.1163499E+00
         21   -1    0    0  503  502  0.00000000000E+00  0.00000000000E+00  0.81374200760E+02  0.81374200760E+02  0.00000000000E+00 0.  1.
         21   -1    0    0  501  503 -0.00000000000E+00 -0.00000000000E+00 -0.62644769867E+03  0.62644769867E+03  0.00000000000E+00 0. -1.
          6    2    1    2  501    0  0.45368924111E+02  0.51560144872E+02 -0.47690675916E+03  0.51139480409E+03  0.17137036180E+03 0.  0.
         24    2    3    3    0    0 -0.15918587841E+02  0.18318333410E+02 -0.11240477261E+03  0.14025471551E+03  0.80296883752E+02 0.  0.
         -6    2    1    2    0  502 -0.45368924111E+02 -0.51560144872E+02 -0.68166738749E+02  0.19642709534E+03  0.17093891218E+03 0.  0.
        -24    2    5    5    0    0 -0.38276487325E+01 -0.13938231293E+02 -0.10273700414E+03  0.13040983100E+03  0.79012067522E+02 0.  0.
          5    1    3    3  501    0  0.61287511951E+02  0.33241811463E+02 -0.36450198655E+03  0.37114008858E+03  0.47000000000E+01 0. -1.
        -11    1    4    4    0    0 -0.35369685429E+02 -0.19075421660E+02 -0.41502526929E+02  0.57769768048E+02  0.00000000000E+00 0.  1.
         12    1    4    4    0    0  0.19451097589E+02  0.37393755070E+02 -0.70902245679E+02  0.82484947463E+02  0.00000000000E+00 0. -1.
         -5    1    5    5    0  502 -0.41541275378E+02 -0.37621913579E+02  0.34570265395E+02  0.66017264340E+02  0.47000000000E+01 0.  1.
         11    1    6    6    0    0 -0.26071910765E+02  0.18967738547E+02 -0.75927672090E+02  0.82489581315E+02  0.00000000000E+00 0. -1.
        -12    1    6    6    0    0  0.22244262033E+02 -0.32905969840E+02 -0.26809332055E+02  0.47920249683E+02  0.00000000000E+00 0.  1.
</event>
<event>
12    1  0.8135779E-002  0.2264637E+03  0.7818608E-02  0.1129198E+00
         21   -1    0    0  501  502  0.00000000000E+00  0.00000000000E+00  0.41008707188E+03  0.41008707188E+03  0.00000000000E+00 0. -1.
         21   -1    0    0  502  503 -0.00000000000E+00 -0.00000000000E+00 -0.15942321200E+03  0.15942321200E+03  0.00000000000E+00 0. -1.
         -6    2    1    2    0  503  0.80795808443E+02 -0.12239115260E+03 -0.71830475005E+01  0.22633271396E+03  0.17224210966E+03 0.  0.
        -24    2    3    3    0    0 -0.19699983227E+02 -0.53938693537E+02 -0.29352099961E+02  0.10264479951E+03  0.79855726744E+02 0.  0.
          6    2    1    2  501    0 -0.80795808443E+02  0.12239115260E+03  0.25784690737E+03  0.34317756992E+03  0.17256378518E+03 0.  0.
         24    2    5    5    0    0 -0.10195128356E+03  0.91437606077E+02  0.26069846970E+03  0.30528433071E+03  0.80498015187E+02 0.  0.
          5    1    5    5  501    0  0.21155475114E+02  0.30953546527E+02 -0.28515623290E+01  0.37893239208E+02  0.47000000000E+01 0. -1.
        -13    1    6    6    0    0 -0.43803559706E+02 -0.70872739271E+01  0.68636739453E+02  0.81731164786E+02  0.00000000000E+00 0.  1.
         14    1    6    6    0    0 -0.58147723852E+02  0.98524880004E+02  0.19206173025E+03  0.22355316592E+03  0.00000000000E+00 0. -1.
         -5    1    3    3    0  503  0.10049579167E+03 -0.68452459067E+02  0.22169052460E+02  0.12368791446E+03  0.47000000000E+01 0.  1.
         11    1    4    4    0    0 -0.62123957526E+01 -0.33011288485E+02 -0.56548694389E+02  0.65773048170E+02  0.00000000000E+00 0. -1.
        -12    1    4    4    0    0 -0.13487587474E+02 -0.20927405052E+02  0.27196594428E+02  0.36871751336E+02  0.00000000000E+00 0.  1.
</event>
<event>
12    1  0.8135779E-002  0.1757649E+03  0.7818608E-02  0.1172126E+00
         21   -1    0    0  501  502  0.00000000000E+00  0.00000000000E+00  0.24681419276E+03  0.24681419276E+03  0.00000000000E+00 0. -1.
         21   -1    0    0  502  503 -0.00000000000E+00 -0.00000000000E+00 -0.22546171945E+03  0.22546171945E+03  0.00000000000E+00 0. -1.
         -6    2    1    2    0  503  0.13965767056E+01  0.29187741288E+02 -0.14718572483E+03  0.22876325029E+03  0.17267053142E+03 0.  0.
        -24    2    3    3    0    0  0.54684549517E+01  0.37899179374E+01 -0.17189660050E+03  0.19278621595E+03  0.87027675598E+02 0.  0.
          6    2    1    2  501    0 -0.13965767056E+01 -0.29187741288E+02  0.16853819814E+03  0.24351266192E+03  0.17331883225E+03 0.  0.
         24    2    5    5    0    0  0.34157812270E+02  0.37087001743E+02  0.58777535803E+02  0.11037382785E+03  0.78647195259E+02 0.  0.
          5    1    5    5  501    0 -0.35554388976E+02 -0.66274743030E+02  0.10976066234E+03  0.13313883407E+03  0.47000000000E+01 0. -1.
        -11    1    6    6    0    0  0.12506539005E+02  0.51082761447E+02  0.76912871165E+01  0.53150897757E+02  0.00000000000E+00 0.  1.
         12    1    6    6    0    0  0.21651273264E+02 -0.13995759704E+02  0.51086248686E+02  0.57222930094E+02  0.00000000000E+00 0. -1.
         -5    1    3    3    0  503 -0.40718782460E+01  0.25397823350E+02  0.24710875670E+02  0.35977034338E+02  0.47000000000E+01 0.  1.
         13    1    4    4    0    0 -0.13834707568E+02 -0.30029535309E+02 -0.13553084362E+03  0.13950548984E+03  0.00000000000E+00 0. -1.
        -14    1    4    4    0    0  0.19303162520E+02  0.33819453246E+02 -0.36365756883E+02  0.53280726110E+02  0.00000000000E+00 0.  1.
</event>
<event>
12    1  0.8135779E-002  0.1800374E+03  0.7818608E-02  0.1167805E+00
         21   -1    0    0  503  502  0.00000000000E+00  0.00000000000E+00  0.56294080410E+03  0.56294080410E+03  0.00000000000E+00 0.  1.
         21   -1    0    0  501  503 -0.00000000000E+00 -0.00000000000E+00 -0.10440764835E+03  0.10440764835E+03  0.00000000000E+00 0.  1.
          6    2    1    2  501    0  0.42958213829E+02 -0.32884087924E+02  0.57351906602E+01  0.18012872012E+03  0.17171689500E+03 0.  0.
         24    2    3    3    0    0  0.82039101176E+02 -0.26023877565E+02 -0.36216433253E+02  0.12219421408E+03  0.78817127522E+02 0.  0.
         -6    2    1    2    0  502 -0.42958213829E+02  0.32884087924E+02  0.45279796508E+03  0.48721973232E+03  0.17155261293E+03 0.  0.
        -24    2    5    5    0    0  0.32020205691E+02  0.33473279268E+02  0.32066820860E+03  0.33522475514E+03  0.86033612344E+02 0.  0.
          5    1    3    3  501    0 -0.39080887347E+02 -0.68602103598E+01  0.41951623914E+02  0.57934506048E+02  0.47000000000E+01 0. -1.
        -13    1    4    4    0    0  0.63508015135E+00  0.99993143446E+01 -0.31495338179E+02  0.33050657198E+02  0.00000000000E+00 0.  1.
         14    1    4    4    0    0  0.81404021025E+02 -0.36023191909E+02 -0.47210950741E+01  0.89143556879E+02  0.00000000000E+00 0. -1.
         -5    1    5    5    0  502 -0.74978419520E+02 -0.58919134336E+00  0.13212975648E+03  0.15199497718E+03  0.47000000000E+01 0.  1.
         11    1    6    6    0    0  0.48326884345E+02 -0.52169335592E+01  0.23306345742E+03  0.23807830504E+03  0.00000000000E+00 0. -1.
        -12    1    6    6    0    0 -0.16306678654E+02  0.38690212827E+02  0.87604751184E+02  0.97146450101E+02  0.00000000000E+00 0.  1.
</event>
<event>
12    1  0.8135779E-002  0.2918545E+03  0.7818608E-02  0.1089454E+00
         21   -1    0    0  503  502  0.00000000000E+00  0.00000000000E+00  0.74338379274E+03  0.74338379274E+03  0.00000000000E+00 0.  1.
         21   -1    0    0  501  503 -0.00000000000E+00 -0.00000000000E+00 -0.25905304514E+03  0.25905304514E+03  0.00000000000E+00 0.  1.
          6    2    1    2  501    0 -0.18519868158E+02 -0.23443071373E+03 -0.13250326910E+03  0.32004160885E+03  0.17195572109E+03 0.  0.
         24    2    3    3    0    0  0.25885449360E+02 -0.18226736626E+03 -0.39500851052E+02  0.20443716773E+03  0.79641628717E+02 0.  0.
         -6    2    1    2    0  502  0.18519868158E+02  0.23443071373E+03  0.61683401670E+03  0.68239522903E+03  0.17285340432E+03 0.  0.
        -24    2    5    5    0    0 -0.28328086035E+02  0.45168425042E+02  0.18243145944E+03  0.20622024387E+03  0.80018026166E+02 0.  0.
          5    1    3    3  501    0 -0.44405317519E+02 -0.52163347476E+02 -0.93002418052E+02  0.11560444112E+03  0.47000000000E+01 0. -1.
        -13    1    4    4    0    0 -0.28203207606E+02 -0.67232390931E+02 -0.70796939982E+01  0.73251193688E+02  0.00000000000E+00 0.  1.
         14    1    4    4    0    0  0.54088656966E+02 -0.11503497533E+03 -0.32421157054E+02  0.13118597404E+03  0.00000000000E+00 0. -1.
         -5    1    5    5    0  502  0.46847954193E+02  0.18926228869E+03  0.43440255726E+03  0.47617498515E+03  0.47000000000E+01 0.  1.
         11    1    6    6    0    0  0.12865416945E+02 -0.15720740314E+02  0.23193719108E+02  0.30831951531E+02  0.00000000000E+00 0. -1.
        -12    1    6    6    0    0 -0.41193502979E+02  0.60889165356E+02  0.15923774033E+03  0.17538829234E+03  0.00000000000E+00 0.  1.
</event>
<event>
12    1  0.8135779E-002  0.1723501E+03  0.7818608E-02  0.1176092E+00
         21   -1    0    0  503  502  0.00000000000E+00  0.00000000000E+00  0.16239763334E+03  0.16239763334E+03  0.00000000000E+00 0. -1.
         21   -1    0    0  501  503 -0.00000000000E+00 -0.00000000000E+00 -0.31410551102E+03  0.31410551102E+03  0.00000000000E+00 0. -1.
          6    2    1    2  501    0 -0.93286996701E+01 -0.88440196982E+00 -0.23110448984E+03  0.28674439221E+03  0.16948526318E+03 0.  0.
         24    2    3    3    0    0  0.40218674692E+02 -0.42412437478E+01 -0.66003669277E+02  0.11427241871E+03  0.84060522103E+02 0.  0.
         -6    2    1    2    0  502  0.93286996701E+01  0.88440196982E+00  0.79396612174E+02  0.18975875215E+03  0.17209519223E+03 0.  0.
        -24    2    5    5    0    0  0.16794786236E+02  0.31080342735E+02  0.11446751328E+03  0.14264617005E+03  0.77440723683E+02 0.  0.
          5    1    3    3  501    0 -0.49547374362E+02  0.33568417779E+01 -0.16510082057E+03  0.17247197351E+03  0.47000000000E+01 0. -1.
        -11    1    4    4    0    0 -0.21047449353E+01 -0.35849414349E+02 -0.99793458060E+01  0.37271943914E+02  0.00000000000E+00 0.  1.
         12    1    4    4    0    0  0.42323419627E+02  0.31608170601E+02 -0.56024323471E+02  0.77000474791E+02  0.00000000000E+00 0. -1.
         -5    1    5    5    0  502 -0.74660865659E+01 -0.30195940765E+02 -0.35070901108E+02  0.47112582097E+02  0.47000000000E+01 0.  1.
         13    1    6    6    0    0 -0.32983043232E+00  0.53007636382E+02  0.51965771875E+02  0.74231797429E+02  0.00000000000E+00 0. -1.
        -14    1    6    6    0    0  0.17124616668E+02 -0.21927293647E+02  0.62501741407E+02  0.68414372624E+02  0.00000000000E+00 0.  1.
</event>
<event>
12    1  0.8135779E-002  0.1976691E+03  0.7818608E-02  0.1152265E+00
         21   -1    0    0  501  502  0.00000000000E+00  0.00000000000E+00  0.75567965407E+03  0.75567965407E+03  0.00000000000E+00 0.  1.
         21   -1    0    0  502  503 -0.00000000000E+00 -0.00000000000E+00 -0.52198624854E+02  0.52198624854E+02  0.00000000000E+00 0. -1.
         -6    2    1    2    0  503  0.44283079317E+02 -0.86663244074E+02  0.41391963218E+03  0.45869657117E+03  0.17205107821E+03 0.  0.
        -24    2    3    3    0    0  0.69839350005E+02 -0.57597475530E+02  0.39894907412E+03  0.41693355546E+03  0.80487402328E+02 0.  0.
          6    2    1    2  501    0 -0.44283079317E+02  0.86663244074E+02  0.28956139704E+03  0.34918170776E+03  0.16914654412E+03 0.  0.
         24    2    5    5    0    0  0.44870641911E+01  0.11281505779E+03  0.22866632916E+03  0.26676360567E+03  0.78276179084E+02 0.  0.
          5    1    5    5  501    0 -0.48770143508E+02 -0.26151813717E+02  0.60895067888E+02  0.82418102087E+02  0.47000000000E+01 0. -1.
        -13    1    6    6    0    0  0.32192272518E+02  0.27574792124E+02  0.11122022238E+03  0.11902373476E+03  0.00000000000E+00 0.  1.
         14    1    6    6    0    0 -0.27705208327E+02  0.85240265668E+02  0.11744610677E+03  0.14773987091E+03  0.00000000000E+00 0. -1.
         -5    1    3    3    0  503 -0.25556270688E+02 -0.29065768544E+02  0.14970558060E+02  0.41763015710E+02  0.47000000000E+01 0.  1.
         13    1    4    4    0    0  0.59315572547E+02 -0.43786041515E+02  0.14763311859E+03  0.16501846043E+03  0.00000000000E+00 0. -1.
        -14    1    4    4    0    0  0.10523777458E+02 -0.13811434015E+02  0.25131595553E+03  0.25191509503E+03  0.00000000000E+00 0.  1.
</event>
<event>
12    1  0.8135779E-002  0.2055794E+03  0.7818608E-02  0.1145249E+00
         21   -1    0    0  501  502  0.00000000000E+00  0.00000000000E+00  0.91479170151E+03  0.91479170151E+03  0.00000000000E+00 0. -1.
         21   -1    0    0  502  503 -0.00000000000E+00 -0.00000000000E+00 -0.51294071797E+02  0.51294071797E+02  0.00000000000E+00 0. -1.
         -6    2    1    2    0  503 -0.85373363663E+02 -0.72438910718E+02  0.27671680561E+03  0.34433452726E+03  0.17163353153E+03 0.  0.
        -24    2    3    3    0    0 -0.53421094162E+02 -0.11525864976E+03  0.18491475091E+03  0.23801338719E+03  0.79489230286E+02 0.  0.
          6    2    1    2  501    0  0.85373363663E+02  0.72438910718E+02  0.58678082410E+03  0.62175124604E+03  0.17241481786E+03 0.  0.
         24    2    5    5    0    0  0.11280642547E+03  0.19474140493E+02  0.33870498685E+03  0.36656200099E+03  0.80883253371E+02 0.  0.
          5    1    5    5  501    0 -0.27433061807E+02  0.52964770226E+02  0.24807583725E+03  0.25518924506E+03  0.47000000000E+01 0. -1.
        -13    1    6    6    0    0  0.92891503975E+01  0.34351727674E+02  0.85966477074E+02  0.93040661486E+02  0.00000000000E+00 0.  1.
         14    1    6    6    0    0  0.10351727507E+03 -0.14877587182E+02  0.25273850978E+03  0.27352133950E+03  0.00000000000E+00 0. -1.
         -5    1    3    3    0  503 -0.31952269501E+02  0.42819739046E+02  0.91802054701E+02  0.10632114007E+03  0.47000000000E+01 0.  1.
         11    1    4    4    0    0 -0.31202693649E+02 -0.53110204292E+02  0.27764435470E+02  0.67566010448E+02  0.00000000000E+00 0. -1.
        -12    1    4    4    0    0 -0.22218400512E+02 -0.62148445472E+02  0.15715031544E+03  0.17044737674E+03  0.00000000000E+00 0.  1.
</event>
<event>
12    1  0.8135779E-002  0.3237859E+03  0.7818608E-02  0.1074099E+00
         21   -1    0    0  501  502  0.00000000000E+00  0.00000000000E+00  0.11871148618E+03  0.11871148618E+03  0.00000000000E+00 0.  1.
         21   -1    0    0  502  503 -0.00000000000E+00 -0.00000000000E+00 -0.15679903582E+04  0.15679903582E+04  0.00000000000E+00 0.  1.
         -6    2    1    2    0  503  0.23338177811E+03 -0.14476528579E+03 -0.12847349948E+04  0.13249080395E+04  0.17150295631E+03 0.  0.
        -24    2    3    3    0    0  0.22659541850E+03 -0.81885932104E+02 -0.11218169747E+04  0.11500817283E+04  0.78510302926E+02 0.  0.
          6    2    1    2  501    0 -0.23338177811E+03  0.14476528579E+03 -0.16454387728E+03  0.36179380491E+03  0.16851120851E+03 0.  0.
         24    2    5    5    0    0 -0.18466386272E+03  0.17352817527E+03 -0.13868334241E+03  0.29941114422E+03  0.78747660361E+02 0.  0.
          5    1    5    5  501    0 -0.48717915391E+02 -0.28762889474E+02 -0.25860534869E+02  0.62382660690E+02  0.47000000000E+01 0. -1.
        -11    1    6    6    0    0 -0.84496136849E+02  0.37626442756E+02 -0.24794690063E+02  0.95760759145E+02  0.00000000000E+00 0.  1.
         12    1    6    6    0    0 -0.10016772587E+03  0.13590173251E+03 -0.11388865235E+03  0.20365038507E+03  0.00000000000E+00 0. -1.
         -5    1    3    3    0  503  0.67863596123E+01 -0.62879353690E+02 -0.16291802008E+03  0.17482631113E+03  0.47000000000E+01 0.  1.
         13    1    4    4    0    0  0.11399093944E+03 -0.13055210943E+02 -0.39275533539E+03  0.40917126767E+03  0.00000000000E+00 0. -1.
        -14    1    4    4    0    0  0.11260447906E+03 -0.68830721162E+02 -0.72906163928E+03  0.74091046068E+03  0.00000000000E+00 0.  1.
</event>
<event>
12    1  0.8135779E-002  0.1866839E+03  0.7818608E-02  0.1161814E+00
         21   -1    0    0  503  502  0.00000000000E+00  0.00000000000E+00  0.48983948695E+03  0.48983948695E+03  0.00000000000E+00 0.  1.
         21   -1    0    0  501  503 -0.00000000000E+00 -0.00000000000E+00 -0.78462801779E+02  0.78462801779E+02  0.00000000000E+00 0.  1.
          6    2    1    2  501    0 -0.63720342968E+02 -0.28954776911E+02  0.29628891444E+03  0.35019708732E+03  0.17306709085E+03 0.  0.
         24    2    3    3    0    0  0.26516553869E+02 -0.28251749240E+01  0.11861236172E+03  0.14915853123E+03  0.86419128918E+02 0.  0.
         -6    2    1    2    0  502  0.63720342968E+02  0.28954776911E+02  0.11508777073E+03  0.21810520141E+03  0.17154014893E+03 0.  0.
        -24    2    5    5    0    0  0.31973296865E+02  0.12134993791E+02 -0.12580743632E+02  0.85394540188E+02  0.77229544845E+02 0.  0.
          5    1    3    3  501    0 -0.90236896837E+02 -0.26129601987E+02  0.17767655272E+03  0.20103855610E+03  0.47000000000E+01 0. -1.
        -11    1    4    4    0    0 -0.24877082457E+02 -0.52652527872E+00  0.82846232275E+02  0.86502281257E+02  0.00000000000E+00 0.  1.
         12    1    4    4    0    0  0.51393636326E+02 -0.22986496452E+01  0.35766129443E+02  0.62656249971E+02  0.00000000000E+00 0. -1.
         -5    1    5    5    0  502  0.31747046103E+02  0.16819783120E+02  0.12766851437E+03  0.13271066122E+03  0.47000000000E+01 0.  1.
         11    1    6    6    0    0 -0.13152791990E+02 -0.14148846718E+02  0.16689079211E+02  0.25528634227E+02  0.00000000000E+00 0. -1.
        -12    1    6    6    0    0  0.45126088855E+02  0.26283840509E+02 -0.29269822843E+02  0.59865905961E+02  0.00000000000E+00 0.  1.
</event>
<event>
12    1  0.8135779E-002  0.1986245E+03  0.7818608E-02  0.1151362E+00
         21   -1    0    0  503  502  0.00000000000E+00  0.00000000000E+00  0.32867637938E+03  0.32867637938E+03  0.00000000000E+00 0.  1.
         21   -1    0    0  501  503 -0.00000000000E+00 -0.00000000000E+00 -0.15666157098E+03  0.15666157098E+03  0.00000000000E+00 0.  1.
          6    2    1    2  501    0  0.96077368995E+02  0.13175873712E+01 -0.33024508819E+02  0.20135116698E+03  0.17383635233E+03 0.  0.
         24    2    3    3    0    0 -0.10041265902E+02  0.33311435151E+02 -0.76196785435E+01  0.87543142794E+02  0.79970392124E+02 0.  0.
         -6    2    1    2    0  502 -0.96077368995E+02 -0.13175873712E+01  0.20503931721E+03  0.28398678338E+03  0.17139070763E+03 0.  0.
        -24    2    5    5    0    0 -0.10754162656E+03 -0.38103301241E+02  0.20274623855E+03  0.24510277438E+03  0.77150954316E+02 0.  0.
          5    1    3    3  501    0  0.10611863490E+03 -0.31993847780E+02 -0.25404830276E+02  0.11380802419E+03  0.47000000000E+01 0. -1.
        -11    1    4    4    0    0  0.23908129926E+02 -0.14833147073E+02 -0.49824369351E+01  0.28573512323E+02  0.00000000000E+00 0.  1.
         12    1    4    4    0    0 -0.33949395828E+02  0.48144582224E+02 -0.26372416085E+01  0.58969630471E+02  0.00000000000E+00 0. -1.
         -5    1    5    5    0  502  0.11464257566E+02  0.36785713870E+02  0.22930786645E+01  0.38884009004E+02  0.47000000000E+01 0.  1.
         11    1    6    6    0    0 -0.10640324939E+03 -0.23954345114E+02  0.12422895230E+03  0.16531271797E+03  0.00000000000E+00 0. -1.
        -12    1    6    6    0    0 -0.11383771662E+01 -0.14148956127E+02  0.78517286246E+02  0.79790056407E+02  0.00000000000E+00 0.  1.
</event>
<event>
12    1  0.8135779E-002  0.1903905E+03  0.7818608E-02  0.1158475E+00
         21   -1    0    0  501  502  0.00000000000E+00  0.00000000000E+00  0.85727007127E+03  0.85727007127E+03  0.00000000000E+00 0. -1.
         21   -1    0    0  502  503 -0.00000000000E+00 -0.00000000000E+00 -0.42439883305E+02  0.42439883305E+02  0.00000000000E+00 0. -1.
         -6    2    1    2    0  503  0.42206139325E+02 -0.69457214684E+02  0.35614488034E+03  0.40308055722E+03  0.17037927383E+03 0.  0.
        -24    2    3    3    0    0  0.68250824763E+02 -0.85584489442E+01  0.13254845050E+03  0.16983296614E+03  0.80887097419E+02 0.  0.
          6    2    1    2  501    0 -0.42206139325E+02  0.69457214684E+02  0.45868530763E+03  0.49662939736E+03  0.17217108937E+03 0.  0.
         24    2    5    5    0    0  0.11317194050E+02  0.86857242583E+01  0.35915975342E+03  0.36823412017E+03  0.79981986035E+02 0.  0.
          5    1    5    5  501    0 -0.53523333375E+02  0.60771490426E+02  0.99525554207E+02  0.12839527719E+03  0.47000000000E+01 0. -1.
        -11    1    6    6    0    0  0.11261140292E+02  0.39574650924E+02  0.11521625072E+03  0.12234275911E+03  0.00000000000E+00 0.  1.
         12    1    6    6    0    0  0.56053758177E-01 -0.30888926666E+02  0.24394350270E+03  0.24589136105E+03  0.00000000000E+00 0. -1.
         -5    1    3    3    0  503 -0.26044685439E+02 -0.60898765740E+02  0.22359642985E+03  0.23324759109E+03  0.47000000000E+01 0.  1.
         13    1    4    4    0    0  0.21458626406E+02 -0.91339539595E+01  0.11878840107E+03  0.12105612744E+03  0.00000000000E+00 0. -1.
        -14    1    4    4    0    0  0.46792198357E+02  0.57550501529E+00  0.13760049427E+02  0.48776838698E+02  0.00000000000E+00 0.  1.
</event>
<event>
12    1  0.8135779E-002  0.1761796E+03  0.7818608E-02  0.1171620E+00
         21   -1    0    0  503  502  0.00000000000E+00  0.00000000000E+00  0.35570820113E+03  0.35570820113E+03  0.00000000000E+00 0. -1.
         21   -1    0    0  501  503 -0.00000000000E+00 -0.00000000000E+00 -0.10992440529E+03  0.10992440529E+03  0.00000000000E+00 0. -1.
          6    2    1    2  501    0  0.34190274498E+02 -0.13855324153E+02  0.16940369626E+02  0.17699215669E+03  0.17227391714E+03 0.  0.
         24    2    3    3    0    0  0.58801898176E+02 -0.32502446029E+02  0.61994605941E+02  0.12217043303E+03  0.81044502063E+02 0.  0.
         -6    2    1    2    0  502 -0.34190274498E+02  0.13855324153E+02  0.22884342622E+03  0.28864044974E+03  0.17199724016E+03 0.  0.
        -24    2    5    5    0    0 -0.71329545810E+02  0.48474006170E+02  0.11938027237E+03  0.16788428770E+03  0.80596843900E+02 0.  0.
          5    1    3    3  501    0 -0.24611623679E+02  0.18647121877E+02 -0.45054236315E+02  0.54821723653E+02  0.47000000000E+01 0. -1.
        -13    1    4    4    0    0  0.48878986060E+02 -0.56282822342E+02  0.61103350231E+02  0.96387399480E+02  0.00000000000E+00 0.  1.
         14    1    4    4    0    0  0.99229121169E+01  0.23780376313E+02  0.89125571021E+00  0.25783033554E+02  0.00000000000E+00 0. -1.
         -5    1    5    5    0  502  0.37139271312E+02 -0.34618682017E+02  0.10946315385E+03  0.12075616204E+03  0.47000000000E+01 0.  1.
         11    1    6    6    0    0  0.14859941174E+02  0.11966948807E+02  0.43107372948E+02  0.47140972815E+02  0.00000000000E+00 0. -1.
        -12    1    6    6    0    0 -0.86189486983E+02  0.36507057362E+02  0.76272899418E+02  0.12074331488E+03  0.00000000000E+00 0.  1.
</event>
<event>
12    1  0.8135779E-002  0.2289825E+03  0.7818608E-02  0.1127534E+00
         21   -1    0    0  503  502  0.00000000000E+00  0.00000000000E+00  0.42531886972E+03  0.42531886972E+03  0.00000000000E+00 0. -1.
         21   -1    0    0  501  503 -0.00000000000E+00 -0.00000000000E+00 -0.55166892973E+03  0.55166892973E+03  0.00000000000E+00 0.  1.
          6    2    1    2  501    0 -0.59632656991E+02  0.13833888807E+03 -0.49393995667E+03  0.54443517680E+03  0.17245080230E+03 0.  0.
         24    2    3    3    0    0  0.16954584143E+02  0.56405661578E+02 -0.33931076884E+03  0.35335682943E+03  0.79121390712E+02 0.  0.
         -6    2    1    2    0  502  0.59632656991E+02 -0.13833888807E+03  0.36758989665E+03  0.43255262265E+03  0.17113076142E+03 0.  0.
        -24    2    5    5    0    0  0.80795298181E+02 -0.14032189656E+03  0.22574045526E+03  0.28904254032E+03  0.79804273779E+02 0.  0.
          5    1    3    3  501    0 -0.76587241134E+02  0.81933226495E+02 -0.15462918783E+03  0.19107834738E+03  0.47000000000E+01 0. -1.
        -11    1    4    4    0    0  0.19042305245E+02  0.55992412724E+02 -0.34355527940E+03  0.34860864831E+03  0.00000000000E+00 0.  1.
         12    1    4    4    0    0 -0.20877211021E+01  0.41324885454E+00  0.42445105598E+01  0.47481811158E+01  0.00000000000E+00 0. -1.
         -5    1    5    5    0  502 -0.21162641190E+02  0.19830084901E+01  0.14184944139E+03  0.14351008232E+03  0.47000000000E+01 0.  1.
         11    1    6    6    0    0  0.22557261456E+02 -0.49611847523E+01  0.74021665758E+02  0.77541281909E+02  0.00000000000E+00 0. -1.
        -12    1    6    6    0    0  0.58238036725E+02 -0.13536071181E+03  0.15171878950E+03  0.21150125841E+03  0.00000000000E+00 0.  1.
</event>
<event>
12    1  0.8135779E-002  0.2116567E+03  0.7818608E-02  0.1140864E+00
         21   -1    0    0  501  502  0.00000000000E+00  0.00000000000E+00  0.12743766596E+03  0.12743766596E+03  0.00000000000E+00 0.  1.
         21   -1    0    0  502  503 -0.00000000000E+00 -0.00000000000E+00 -0.35198210394E+03  0.35198210394E+03  0.00000000000E+00 0.  1.
         -6    2    1    2    0  503  0.11991880977E+03  0.37766251150E+02 -0.83109244626E+02  0.22738885632E+03  0.17026959439E+03 0.  0.
        -24    2    3    3    0    0  0.52844859451E+02  0.10585844719E+02 -0.11348700240E+03  0.14875942498E+03  0.79658191842E+02 0.  0.
          6    2    1    2  501    0 -0.11991880977E+03 -0.37766251150E+02 -0.14143519335E+03  0.25203091357E+03  0.16645977537E+03 0.  0.
         24    2    5    5    0    0 -0.38849469927E+02 -0.52601880936E+02 -0.13358181688E+03  0.16910866508E+03  0.80482293779E+02 0.  0.
          5    1    5    5  501    0 -0.81069339843E+02  0.14835629785E+02 -0.78533764728E+01  0.82922248496E+02  0.47000000000E+01 0. -1.
        -11    1    6    6    0    0 -0.31544010501E+02 -0.72204639631E+02 -0.83369303516E+02  0.11471257713E+03  0.00000000000E+00 0.  1.
         12    1    6    6    0    0 -0.73054594256E+01  0.19602758695E+02 -0.50212513363E+02  0.54396087949E+02  0.00000000000E+00 0. -1.
         -5    1    3    3    0  503  0.67073950319E+02  0.27180406431E+02  0.30377757777E+02  0.78629431339E+02  0.47000000000E+01 0.  1.
         13    1    4    4    0    0  0.57819711921E+02  0.30082732777E+02 -0.11067705312E+03  0.12844259413E+03  0.00000000000E+00 0. -1.
        -14    1    4    4    0    0 -0.49748524706E+01 -0.19496888058E+02 -0.28099492816E+01  0.20316830856E+02  0.00000000000E+00 0.  1.
</event>
<event>
12    1  0.8135779E-002  0.2132078E+03  0.7818608E-02  0.1139657E+00
         21   -1    0    0  501  502  0.00000000000E+00  0.00000000000E+00  0.42744323603E+03  0.42744323603E+03  0.00000000000E+00 0.  1.
         21   -1    0    0  502  503 -0.00000000000E+00 -0.00000000000E+00 -0.26796124337E+03  0.26796124337E+03  0.00000000000E+00 0. -1.
         -6    2    1    2    0  503  0.12657180267E+03 -0.18196414197E+02 -0.19134099376E+03  0.28647678271E+03  0.17060492494E+03 0.  0.
        -24    2    3    3    0    0  0.15917611400E+03 -0.88362137423E+01 -0.17026705230E+03  0.24626664122E+03  0.79001743884E+02 0.  0.
          6    2    1    2  501    0 -0.12657180267E+03  0.18196414197E+02  0.35082298643E+03  0.40892769669E+03  0.16671401439E+03 0.  0.
         24    2    5    5    0    0 -0.89766197157E+02 -0.15475101771E+02  0.33531191368E+03  0.35647670087E+03  0.79649920775E+02 0.  0.
          5    1    5    5  501    0 -0.36805605515E+02  0.33671515968E+02  0.15511072746E+02  0.52450995821E+02  0.47000000000E+01 0. -1.
        -11    1    6    6    0    0 -0.35895279385E+02  0.32027696368E+02  0.15830409102E+03  0.16545219748E+03  0.00000000000E+00 0.  1.
         12    1    6    6    0    0 -0.53870917772E+02 -0.47502798139E+02  0.17700782266E+03  0.19102450339E+03  0.00000000000E+00 0. -1.
         -5    1    3    3    0  503 -0.32604311327E+02 -0.93602004545E+01 -0.21073941459E+02  0.40210141486E+02  0.47000000000E+01 0.  1.
         13    1    4    4    0    0  0.70926720719E+02  0.24009747787E+02 -0.11455168831E+03  0.13685451032E+03  0.00000000000E+00 0. -1.
        -14    1    4    4    0    0  0.88249393280E+02 -0.32845961530E+02 -0.55715363997E+02  0.10941213090E+03  0.00000000000E+00 0.  1.
</event>
<event>
12    1  0.8135779E-002  0.1824850E+03  0.7818608E-02  0.1165445E+00
         21   -1    0    0  503  502  0.00000000000E+00  0.00000000000E+00  0.23485400869E+02  0.23485400869E+02  0.00000000000E+00 0. -1.
         21   -1    0    0  501  503 -0.00000000000E+00 -0.00000000000E+00 -0.25316150833E+04  0.25316150833E+04  0.00000000000E+00 0. -1.
          6    2    1    2  501    0 -0.54359925208E+02 -0.25253575215E+02 -0.21019312886E+04  0.21098378873E+04  0.17236015883E+03 0.  0.
         24    2    3    3    0    0 -0.68066693482E+02 -0.51017839486E+02 -0.20084776158E+04  0.20118207879E+04  0.78769632704E+02 0.  0.
         -6    2    1    2    0  502  0.54359925208E+02  0.25253575215E+02 -0.40619839389E+03  0.44526259689E+03  0.17224662683E+03 0.  0.
        -24    2    5    5    0    0  0.19718113644E+02  0.66845465726E+02 -0.15233848450E+03  0.18565349832E+03  0.80019293188E+02 0.  0.
          5    1    3    3  501    0  0.13706768274E+02  0.25764264271E+02 -0.93453672799E+02  0.98017099374E+02  0.47000000000E+01 0. -1.
        -13    1    4    4    0    0 -0.74634481002E+02 -0.11515423629E+02 -0.12339673188E+04  0.12362759622E+04  0.00000000000E+00 0.  1.
         14    1    4    4    0    0  0.65677875197E+01 -0.39502415857E+02 -0.77451029695E+03  0.77554482576E+03  0.00000000000E+00 0. -1.
         -5    1    5    5    0  502  0.34641811564E+02 -0.41591890512E+02 -0.25385990939E+03  0.25960909857E+03  0.47000000000E+01 0.  1.
         13    1    6    6    0    0 -0.29038584844E+02  0.12948807524E+02 -0.32268525759E+02  0.45300869536E+02  0.00000000000E+00 0. -1.
        -14    1    6    6    0    0  0.48756698487E+02  0.53896658202E+02 -0.12006995874E+03  0.14035262878E+03  0.00000000000E+00 0.  1.
</event>
<event>
12    1  0.8135779E-002  0.2148550E+03  0.7818608E-02  0.1137792E+00
         21   -1    0    0  503  502  0.00000000000E+00  0.00000000000E+00  0.22436072441E+03  0.22436072441E+03  0.00000000000E+00 0.  1.
         21   -1    0    0  501  503 -0.00000000000E+00 -0.00000000000E+00 -0.22872775742E+03  0.22872775742E+03  0.00000000000E+00 0. -1.
          6    2    1    2  501    0  0.20009298351E+02  0.12649882695E+03  0.69729516768E+02  0.22588689703E+03  0.17251191118E+03 0.  0.
         24    2    3    3    0    0 -0.51115543860E+02  0.84462181497E+02  0.17408471955E+02  0.12798181815E+03  0.79558984112E+02 0.  0.
         -6    2    1    2    0  502 -0.20009298351E+02 -0.12649882695E+03 -0.74096549780E+02  0.22720158481E+03  0.17241791152E+03 0.  0.
        -24    2    5    5    0    0  0.34637760272E+02 -0.23527225943E+02 -0.34216542001E+01  0.90796003931E+02  0.80491625746E+02 0.  0.
          5    1    3    3  501    0  0.71124842211E+02  0.42036645449E+02  0.52321044813E+02  0.97905078880E+02  0.47000000000E+01 0. -1.
        -13    1    4    4    0    0 -0.22832883603E+02  0.59177223496E+02  0.47758114458E+02  0.79398500306E+02  0.00000000000E+00 0.  1.
         14    1    4    4    0    0 -0.28282660257E+02  0.25284958001E+02 -0.30349642503E+02  0.48583317841E+02  0.00000000000E+00 0. -1.
         -5    1    5    5    0  502 -0.54647058623E+02 -0.10297160100E+03 -0.70674895579E+02  0.13640558088E+03  0.47000000000E+01 0.  1.
         13    1    6    6    0    0  0.54155158913E+02 -0.31922185110E+02  0.12690203302E+02  0.64131493036E+02  0.00000000000E+00 0. -1.
        -14    1    6    6    0    0 -0.19517398641E+02  0.83949591677E+01 -0.16111857502E+02  0.26664510896E+02  0.00000000000E+00 0.  1.
</event>
<event>
12    1  0.8135779E-002  0.2257229E+03  0.7818608E-02  0.1129886E+00
         21   -1    0    0  501  502  0.00000000000E+00  0.00000000000E+00  0.11585813081E+03  0.11585813081E+03  0.00000000000E+00 0.  1.
         21   -1    0    0  502  503 -0.00000000000E+00 -0.00000000000E+00 -0.78740430678E+03  0.78740430678E+03  0.00000000000E+00 0. -1.
         -6    2    1    2    0  503  0.85480458290E+02  0.11812616390E+03 -0.63632646927E+03  0.67480839353E+03  0.17086337565E+03 0.  0.
        -24    2    3    3    0    0  0.28463373950E+02  0.93004925881E+02 -0.57251783544E+03  0.58550186377E+03  0.74670480717E+02 0.  0.
          6    2    1    2  501    0 -0.85480458290E+02 -0.11812616390E+03 -0.35219706689E+02  0.22845404406E+03  0.17230822139E+03 0.  0.
         24    2    5    5    0    0 -0.56071407484E+02 -0.38638316066E+02 -0.79917156143E+02  0.13252093084E+03  0.80858661004E+02 0.  0.
          5    1    5    5  501    0 -0.29409050806E+02 -0.79487847837E+02  0.44697449455E+02  0.95933113214E+02  0.47000000000E+01 0. -1.
        -11    1    6    6    0    0 -0.45580735690E+02  0.40246085608E+01 -0.54792762232E+01  0.46084958588E+02  0.00000000000E+00 0.  1.
         12    1    6    6    0    0 -0.10490671794E+02 -0.42662924627E+02 -0.74437879920E+02  0.86435972254E+02  0.00000000000E+00 0. -1.
         -5    1    3    3    0  503  0.57017084340E+02  0.25121238022E+02 -0.63808633838E+02  0.89306529765E+02  0.47000000000E+01 0.  1.
         11    1    4    4    0    0  0.21969376507E+02  0.10549356948E+03 -0.48218227747E+03  0.49407620406E+03  0.00000000000E+00 0. -1.
        -12    1    4    4    0    0  0.64939974434E+01 -0.12488643595E+02 -0.90335557962E+02  0.91425659712E+02  0.00000000000E+00 0.  1.
</event>
<event>
12    1  0.8135779E-002  0.2136256E+03  0.7818608E-02  0.1139447E+00
         21   -1    0    0  503  502  0.00000000000E+00  0.00000000000E+00  0.21755457875E+03  0.21755457875E+03  0.00000000000E+00 0.  1.
         21   -1    0    0  501  503 -0.00000000000E+00 -0.00000000000E+00 -0.38725198738E+03  0.38725198738E+03  0.00000000000E+00 0.  1.
          6    2    1    2  501    0 -0.11950612770E+03 -0.13974574774E+02 -0.29124282480E+03  0.35902374767E+03  0.17204262582E+03 0.  0.
         24    2    3    3    0    0  0.88555643951E+01 -0.19849326155E+02 -0.84812631788E+02  0.11582269651E+03  0.75824123776E+02 0.  0.
         -6    2    1    2    0  502  0.11950612770E+03  0.13974574774E+02  0.12154541616E+03  0.24578281846E+03  0.17651884421E+03 0.  0.
        -24    2    5    5    0    0  0.10066707553E+03  0.70907790463E+02  0.56846097817E+02  0.15744034436E+03  0.79963793994E+02 0.  0.
          5    1    3    3  501    0 -0.12836169209E+03  0.58747513811E+01 -0.20643019301E+03  0.24320105116E+03  0.47000000000E+01 0. -1.
        -11    1    4    4    0    0 -0.22054551577E+02  0.37167911117E+01 -0.71214127884E+02  0.74643618559E+02  0.00000000000E+00 0.  1.
         12    1    4    4    0    0  0.30910115972E+02 -0.23566117267E+02 -0.13598503905E+02  0.41179077951E+02  0.00000000000E+00 0. -1.
         -5    1    5    5    0  502  0.18839052161E+02 -0.56933215689E+02  0.64699318347E+02  0.88342474097E+02  0.47000000000E+01 0.  1.
         13    1    6    6    0    0  0.98097961704E+01 -0.43366841673E+01 -0.15652255108E+02  0.18974509755E+02  0.00000000000E+00 0. -1.
        -14    1    6    6    0    0  0.90857279364E+02  0.75244474630E+02  0.72498352925E+02  0.13846583460E+03  0.00000000000E+00 0.  1.
</event>
<event>
12    1  0.8135779E-002  0.2079785E+03  0.7818608E-02  0.1144406E+00
         21   -1    0    0  503  502  0.00000000000E+00  0.00000000000E+00  0.57879995523E+03  0.57879995523E+03  0.00000000000E+00 0. -1.
         21   -1    0    0  501  503 -0.00000000000E+00 -0.00000000000E+00 -0.12939020285E+03  0.12939020285E+03  0.00000000000E+00 0.  1.
          6    2    1    2  501    0  0.26175761034E+02  0.11289737114E+03 -0.11767160740E+02  0.20228582429E+03  0.16537866174E+03 0.  0.
         24    2    3    3    0    0  0.36943877257E+02  0.14315736874E+03  0.10223345184E+01  0.16739627039E+03  0.78495757089E+02 0.  0.
         -6    2    1    2    0  502 -0.26175761034E+02 -0.11289737114E+03  0.46117691313E+03  0.50590433379E+03  0.17269644719E+03 0.  0.
        -24    2    5    5    0    0 -0.62672832634E+02 -0.18456268696E+02  0.23791182737E+03  0.26070941830E+03  0.84254646060E+02 0.  0.
          5    1    3    3  501    0 -0.10768116223E+02 -0.30259997606E+02 -0.12789495259E+02  0.34889553896E+02  0.47000000000E+01 0. -1.
        -11    1    4    4    0    0 -0.24799428857E+02  0.40003293764E+02 -0.23884082123E+01  0.47127271058E+02  0.00000000000E+00 0.  1.
         12    1    4    4    0    0  0.61743306114E+02  0.10315407498E+03  0.34107427307E+01  0.12026899933E+03  0.00000000000E+00 0. -1.
         -5    1    5    5    0  502  0.36497071600E+02 -0.94441102441E+02  0.22326508575E+03  0.24519491549E+03  0.47000000000E+01 0.  1.
         13    1    6    6    0    0 -0.20185617025E+02  0.33336364857E+02  0.10182412092E+03  0.10902717073E+03  0.00000000000E+00 0. -1.
        -14    1    6    6    0    0 -0.42487215609E+02 -0.51792633552E+02  0.13608770646E+03  0.15168224757E+03  0.00000000000E+00 0.  1.
</event>
<event>
12    1  0.8135779E-002  0.2840814E+03  0.7818608E-02  0.1093494E+00
         21   -1    0    0  501  502  0.00000000000E+00  0.00000000000E+00  0.43832314594E+03  0.43832314594E+03  0.00000000000E+00 0.  1.
         21   -1    0    0  502  503 -0.00000000000E+00 -0.00000000000E+00 -0.18842671358E+03  0.18842671358E+03  0.00000000000E+00 0.  1.
         -6    2    1    2    0  503  0.19769158130E+03  0.10953440228E+03  0.17273909987E+03  0.33247715673E+03  0.17211193021E+03 0.  0.
        -24    2    3    3    0    0  0.56674070452E+02  0.58025812371E+02  0.14045653002E+03  0.17884341201E+03  0.75352398962E+02 0.  0.
          6    2    1    2  501    0 -0.19769158130E+03 -0.10953440228E+03  0.77157332485E+02  0.29427270279E+03  0.17194017288E+03 0.  0.
         24    2    5    5    0    0 -0.21774063059E+03 -0.11750700525E+03  0.71700921085E+02  0.27152651188E+03  0.85829750512E+02 0.  0.
          5    1    5    5  501    0  0.20049049291E+02  0.79726029706E+01  0.54564113997E+01  0.22746190911E+02  0.47000000000E+01 0. -1.
        -13    1    6    6    0    0 -0.84591686487E+02 -0.40376159651E+02  0.71101276961E+02  0.11764939131E+03  0.00000000000E+00 0.  1.
         14    1    6    6    0    0 -0.13314894410E+03 -0.77130845604E+02  0.59964412347E+00  0.15387712056E+03  0.00000000000E+00 0. -1.
         -5    1    3    3    0  503  0.14101751085E+03  0.51508589913E+02  0.32282569853E+02  0.15363374472E+03  0.47000000000E+01 0.  1.
         11    1    4    4    0    0 -0.76356988943E+01 -0.11373542527E+02  0.73803125693E+01  0.15560539221E+02  0.00000000000E+00 0. -1.
        -12    1    4    4    0    0  0.64309769346E+02  0.69399354898E+02  0.13307621745E+03  0.16328287278E+03  0.00000000000E+00 0.  1.
</event>
<event>
12    1  0.8135779E-002  0.1871930E+03  0.7818608E-02  0.1162447E+00
         21   -1    0    0  501  502  0.00000000000E+00  0.00000000000E+00  0.42080183872E+03  0.42080183872E+03  0.00000000000E+00 0.  1.
         21   -1    0    0  502  503 -0.00000000000E+00 -0.00000000000E+00 -0.81677443593E+02  0.81677443593E+02  0.00000000000E+00 0. -1.
         -6    2    1    2    0  503  0.62009180210E+02 -0.43039954281E+01  0.13764898076E+03  0.22746372560E+03  0.17008480753E+03 0.  0.
        -24    2    3    3    0    0  0.84866306497E+02 -0.32302251873E+02  0.14770516246E+03  0.18965410544E+03  0.76851410139E+02 0.  0.
          6    2    1    2  501    0 -0.62009180210E+02  0.43039954281E+01  0.20147541437E+03  0.27501555672E+03  0.17657165977E+03 0.  0.
         24    2    5    5    0    0 -0.39098990829E+02 -0.12234555916E+02  0.22304251402E+03  0.23915987034E+03  0.75967526470E+02 0.  0.
          5    1    5    5  501    0 -0.22910189381E+02  0.16538551344E+02 -0.21567099653E+02  0.35855686376E+02  0.47000000000E+01 0. -1.
        -13    1    6    6    0    0  0.12785463349E+02  0.19720499477E+02  0.86525887487E+02  0.89661002549E+02  0.00000000000E+00 0.  1.
         14    1    6    6    0    0 -0.51884454178E+02 -0.31955055393E+02  0.13651662654E+03  0.14949886779E+03  0.00000000000E+00 0. -1.
         -5    1    3    3    0  503 -0.22857126287E+02  0.27998256445E+02 -0.10056181697E+02  0.37809620156E+02  0.47000000000E+01 0.  1.
         13    1    4    4    0    0  0.77833480526E+02 -0.18607492790E+02  0.58496588793E+02  0.99126890293E+02  0.00000000000E+00 0. -1.
        -14    1    4    4    0    0  0.70328259705E+01 -0.13694759083E+02  0.89208573666E+02  0.90527215151E+02  0.00000000000E+00 0.  1.
</event>
<event>
12    1  0.8135779E-002  0.2202112E+03  0.7818608E-02  0.1133770E+00
         21   -1    0    0  501  502  0.00000000000E+00  0.00000000000E+00  0.23596565284E+04  0.23596565284E+04  0.00000000000E+00 0. -1.
         21   -1    0    0  502  503 -0.00000000000E+00 -0.00000000000E+00 -0.44421357948E+02  0.44421357948E+02  0.00000000000E+00 0. -1.
         -6    2    1    2    0  503  0.78472464438E+02  0.11254322520E+03  0.20394807128E+04  0.20513348168E+04  0.17224705356E+03 0.  0.
        -24    2    3    3    0    0  0.13949894937E+02  0.13008852463E+03  0.13073165955E+04  0.13161087399E+04  0.77122697693E+02 0.  0.
          6    2    1    2  501    0 -0.78472464438E+02 -0.11254322520E+03  0.27575445765E+03  0.35274306956E+03  0.17193966092E+03 0.  0.
         24    2    5    5    0    0  0.59124741847E+01 -0.94262744975E+02  0.21356411962E+03  0.24623146471E+03  0.78101719466E+02 0.  0.
          5    1    5    5  501    0 -0.84384938623E+02 -0.18280480223E+02  0.62190338033E+02  0.10651160485E+03  0.47000000000E+01 0. -1.
        -11    1    6    6    0    0  0.28457475274E+02 -0.43369461809E+02  0.44853223241E+02  0.68575139458E+02  0.00000000000E+00 0.  1.
         12    1    6    6    0    0 -0.22545001089E+02 -0.50893283167E+02  0.16871089638E+03  0.17765632525E+03  0.00000000000E+00 0. -1.
         -5    1    3    3    0  503  0.64522569501E+02 -0.17545299428E+02  0.73216411726E+03  0.73522607687E+03  0.47000000000E+01 0.  1.
         13    1    4    4    0    0  0.12608533254E+02  0.84964733661E+02  0.11254489041E+04  0.11287219396E+04  0.00000000000E+00 0. -1.
        -14    1    4    4    0    0  0.13413616829E+01  0.45123790965E+02  0.18186769144E+03  0.18738680036E+03  0.00000000000E+00 0.  1.
</event>
<event>
12    1  0.8135779E-002  0.1783427E+03  0.7818608E-02  0.1169869E+00
         21   -1    0    0  501  502  0.00000000000E+00  0.00000000000E+00  0.78001278029E+03  0.78001278029E+03  0.00000000000E+00 0. -1.
         21   -1    0    0  502  503 -0.00000000000E+00 -0.00000000000E+00 -0.40865322938E+02  0.40865322938E+02  0.00000000000E+00 0. -1.
         -6    2    1    2    0  503 -0.16578199948E+02 -0.41897279517E+02  0.41719501956E+03  0.45371556251E+03  0.17255697196E+03 0.  0.
        -24    2    3    3    0    0  0.96424349028E+01 -0.83553876264E+02  0.20316010200E+03  0.23404346669E+03  0.80175373199E+02 0.  0.
          6    2    1    2  501    0  0.16578199948E+02  0.41897279517E+02  0.32195243779E+03  0.36716254072E+03  0.17065972098E+03 0.  0.
         24    2    5    5    0    0  0.55539298335E+02 -0.20856132566E+02  0.20646184199E+03  0.22999065718E+03  0.82156060436E+02 0.  0.
          5    1    5    5  501    0 -0.38961098387E+02  0.62753412083E+02  0.11549059580E+03  0.13717188354E+03  0.47000000000E+01 0. -1.
        -13    1    6    6    0    0  0.18346181871E+02 -0.49696549051E+02  0.90862571254E+02  0.10517764131E+03  0.00000000000E+00 0.  1.
         14    1    6    6    0    0  0.37193116464E+02  0.28840416485E+02  0.11559927074E+03  0.12481301587E+03  0.00000000000E+00 0. -1.
         -5    1    3    3    0  503 -0.26220634851E+02  0.41656596747E+02  0.21403491756E+03  0.21967209581E+03  0.47000000000E+01 0.  1.
         11    1    4    4    0    0  0.86678031435E+01 -0.24263217447E+01 -0.52343735804E+01  0.10412325164E+02  0.00000000000E+00 0. -1.
        -12    1    4    4    0    0  0.97463175932E+00 -0.81127554519E+02  0.20839447558E+03  0.22363114153E+03  0.00000000000E+00 0.  1.
</event>
<event>
12    1  0.8135779E-002  0.2392473E+03  0.7818608E-02  0.1120532E+00
         21   -1    0    0  503  502  0.00000000000E+00  0.00000000000E+00  0.51247622715E+03  0.51247622715E+03  0.00000000000E+00 0.  1.
         21   -1    0    0  501  503 -0.00000000000E+00 -0.00000000000E+00 -0.41331199643E+03  0.41331199643E+03  0.00000000000E+00 0. -1.
          6    2    1    2  501    0 -0.15825075193E+02 -0.16425344339E+03 -0.34632114317E+03  0.42012383351E+03  0.17127777031E+03 0.  0.
         24    2    3    3    0    0 -0.51088018086E+02 -0.11621851448E+03 -0.32343901822E+03  0.35611984005E+03  0.78050068977E+02 0.  0.
         -6    2    1    2    0  502  0.15825075193E+02  0.16425344339E+03  0.44548537389E+03  0.50566439008E+03  0.17323287902E+03 0.  0.
        -24    2    5    5    0    0  0.65663559582E+02  0.14689357671E+03  0.28664960839E+03  0.33822446085E+03  0.79613830416E+02 0.  0.
          5    1    3    3  501    0  0.35262942892E+02 -0.48034928908E+02 -0.22882124951E+02  0.64003993461E+02  0.47000000000E+01 0. -1.
        -11    1    4    4    0    0  0.15529057082E+02 -0.45467096697E+02 -0.72036209340E+02  0.86588821172E+02  0.00000000000E+00 0.  1.
         12    1    4    4    0    0 -0.66617075168E+02 -0.70751417781E+02 -0.25140280888E+03  0.26953101888E+03  0.00000000000E+00 0. -1.
         -5    1    5    5    0  502 -0.49838484389E+02  0.17359866681E+02  0.15883576550E+03  0.16743992922E+03  0.47000000000E+01 0.  1.
         13    1    6    6    0    0 -0.13555271385E+02  0.31035085757E+02  0.27974837873E+02  0.43926227749E+02  0.00000000000E+00 0. -1.
        -14    1    6    6    0    0  0.79218830967E+02  0.11585849095E+03  0.25867477052E+03  0.29429823310E+03  0.00000000000E+00 0.  1.
</event>
<event>
12    1  0.8135779E-002  0.2991739E+03  0.7818608E-02  0.1085712E+00
         21   -1    0    0  503  502  0.00000000000E+00  0.00000000000E+00  0.17192947158E+03  0.17192947158E+03  0.00000000000E+00 0.  1.
         21   -1    0    0  501  503 -0.00000000000E+00 -0.00000000000E+00 -0.82895225759E+03  0.82895225759E+03  0.00000000000E+00 0. -1.
          6    2    1    2  501    0  0.23510509852E+03  0.66290330746E+02 -0.63428784469E+03  0.70130314275E+03  0.17273162076E+03 0.  0.
         24    2    3    3    0    0  0.19849162355E+03  0.81379127134E+02 -0.37928455073E+03  0.44320047276E+03  0.80922195230E+02 0.  0.
         -6    2    1    2    0  502 -0.23510509852E+03 -0.66290330746E+02 -0.22734941312E+02  0.29957858642E+03  0.17193497777E+03 0.  0.
        -24    2    5    5    0    0 -0.69875288115E+02 -0.79159497643E+02 -0.65282819574E+01  0.13299151756E+03  0.80593692807E+02 0.  0.
          5    1    3    3  501    0  0.36613474973E+02 -0.15088796388E+02 -0.25500329396E+03  0.25810266999E+03  0.47000000000E+01 0. -1.
        -11    1    4    4    0    0  0.13227481894E+02  0.33669016116E+02 -0.41937733860E+02  0.55383593643E+02  0.00000000000E+00 0.  1.
         12    1    4    4    0    0  0.18526414166E+03  0.47710111018E+02 -0.33734681687E+03  0.38781687912E+03  0.00000000000E+00 0. -1.
         -5    1    5    5    0  502 -0.16522981041E+03  0.12869166897E+02 -0.16206659355E+02  0.16658706886E+03  0.47000000000E+01 0.  1.
         11    1    6    6    0    0  0.18105352898E+00 -0.59781213315E+02  0.19391233257E+01  0.59812928745E+02  0.00000000000E+00 0. -1.
        -12    1    6    6    0    0 -0.70056341644E+02 -0.19378284327E+02 -0.84674052831E+01  0.73178588810E+02  0.00000000000E+00 0.  1.
</event>
<event>
12    1  0.8135779E-002  0.2075856E+03  0.7818608E-02  0.1143542E+00
         21   -1    0    0  501  502  0.00000000000E+00  0.00000000000E+00  0.26364281014E+03  0.26364281014E+03  0.00000000000E+00 0.  1.
         21   -1    0    0  502  503 -0.00000000000E+00 -0.00000000000E+00 -0.18036398103E+03  0.18036398103E+03  0.00000000000E+00 0. -1.
         -6    2    1    2    0  503  0.11551516923E+03 -0.77620555006E+01 -0.26763801666E+02  0.20905751062E+03  0.17200214487E+03 0.  0.
        -24    2    3    3    0    0  0.11158363201E+03  0.83458384955E+01 -0.76783225630E+02  0.15615236902E+03  0.77248551190E+02 0.  0.
          6    2    1    2  501    0 -0.11551516923E+03  0.77620555006E+01  0.11004263078E+03  0.23494928054E+03  0.17230142197E+03 0.  0.
         24    2    5    5    0    0 -0.13093677257E+03  0.41316925585E+02  0.54125104013E+02  0.16777328069E+03  0.79792356018E+02 0.  0.
          5    1    5    5  501    0  0.15421603346E+02 -0.33554870084E+02  0.55917526766E+02  0.67175999850E+02  0.47000000000E+01 0. -1.
        -13    1    6    6    0    0 -0.88012016301E+02 -0.81329603637E+01  0.10312827319E+02  0.88986597108E+02  0.00000000000E+00 0.  1.
         14    1    6    6    0    0 -0.42924756272E+02  0.49449885948E+02  0.43812276694E+02  0.78786683586E+02  0.00000000000E+00 0. -1.
         -5    1    3    3    0  503  0.39315372180E+01 -0.16107893996E+02  0.50019423964E+02  0.52905141598E+02  0.47000000000E+01 0.  1.
         11    1    4    4    0    0  0.64936492422E+02  0.33993238421E+02 -0.15389798870E+02  0.74894153414E+02  0.00000000000E+00 0. -1.
        -12    1    4    4    0    0  0.46647139587E+02 -0.25647399925E+02 -0.61393426760E+02  0.81258215609E+02  0.00000000000E+00 0.  1.
</event>
<event>
12    1  0.8135779E-002  0.1750249E+03  0.7818608E-02  0.1175876E+00
         21   -1    0    0  503  502  0.00000000000E+00  0.00000000000E+00  0.73575717645E+02  0.73575717645E+02  0.00000000000E+00 0. -1.
         21   -1    0    0  501  503 -0.00000000000E+00 -0.00000000000E+00 -0.45145233544E+03  0.45145233544E+03  0.00000000000E+00 0. -1.
          6    2    1    2  501    0  0.16996533892E+02 -0.26110558883E+02 -0.29317498205E+03  0.34144588149E+03  0.17222971995E+03 0.  0.
         24    2    3    3    0    0  0.40938608240E+02  0.82600240477E+01 -0.28432527179E+03  0.29837655056E+03  0.80271465044E+02 0.  0.
         -6    2    1    2    0  502 -0.16996533892E+02  0.26110558883E+02 -0.84701635744E+02  0.18358217160E+03  0.15986682952E+03 0.  0.
        -24    2    5    5    0    0 -0.45092726654E+02 -0.25917804873E+02 -0.22417739726E+02  0.97572169936E+02  0.79452417743E+02 0.  0.
          5    1    3    3  501    0 -0.23942074349E+02 -0.34370582931E+02 -0.88497102591E+01  0.43069330930E+02  0.47000000000E+01 0. -1.
        -13    1    4    4    0    0  0.22318911613E+02  0.33828551316E+02 -0.63728146754E+02  0.75523383058E+02  0.00000000000E+00 0.  1.
         14    1    4    4    0    0  0.18619696628E+02 -0.25568527269E+02 -0.22059712504E+03  0.22285316750E+03  0.00000000000E+00 0. -1.
         -5    1    5    5    0  502  0.28096192762E+02  0.52028363755E+02 -0.62283896018E+02  0.86010001662E+02  0.47000000000E+01 0.  1.
         13    1    6    6    0    0  0.99862802126E+01  0.17748389901E+02  0.67755409518E+01  0.21462504321E+02  0.00000000000E+00 0. -1.
        -14    1    6    6    0    0 -0.55079006866E+02 -0.43666194773E+02 -0.29193280678E+02  0.76109665615E+02  0.00000000000E+00 0.  1.
</event>
<event>
12    1  0.8135779E-002  0.3251849E+03  0.7818608E-02  0.1073359E+00
         21   -1    0    0  503  502  0.00000000000E+00  0.00000000000E+00  0.64086759289E+03  0.64086759289E+03  0.00000000000E+00 0. -1.
         21   -1    0    0  501  503 -0.00000000000E+00 -0.00000000000E+00 -0.19325097645E+03  0.19325097645E+03  0.00000000000E+00 0. -1.
          6    2    1    2  501    0  0.22131803043E+03 -0.16423267990E+03  0.38434599952E+03  0.50345510361E+03  0.17260113055E+03 0.  0.
         24    2    3    3    0    0  0.17968954652E+03 -0.94511833891E+02  0.35286374721E+03  0.41623613061E+03  0.86711432121E+02 0.  0.
         -6    2    1    2    0  502 -0.22131803043E+03  0.16423267990E+03  0.63270616924E+02  0.33066346573E+03  0.17140919713E+03 0.  0.
        -24    2    5    5    0    0 -0.48566096185E+02  0.13924669643E+02  0.39054121454E+02  0.10035007622E+03  0.77410278855E+02 0.  0.
          5    1    3    3  501    0  0.41628483909E+02 -0.69720846006E+02  0.31482252309E+02  0.87218972998E+02  0.47000000000E+01 0. -1.
        -13    1    4    4    0    0  0.75364344115E+02 -0.75394342445E+02  0.23272398237E+03  0.25597762247E+03  0.00000000000E+00 0.  1.
         14    1    4    4    0    0  0.10432520241E+03 -0.19117491446E+02  0.12013976484E+03  0.16025850814E+03  0.00000000000E+00 0. -1.
         -5    1    5    5    0  502 -0.17275193425E+03  0.15030801025E+03  0.24216495470E+02  0.23031338951E+03  0.47000000000E+01 0.  1.
         11    1    6    6    0    0 -0.62818674053E+02  0.30044942747E+02  0.36674845929E+02  0.78701516621E+02  0.00000000000E+00 0. -1.
        -12    1    6    6    0    0  0.14252577869E+02 -0.16120273105E+02  0.23792755252E+01  0.21648559603E+02  0.00000000000E+00 0.  1.
</event>
<event>
12    1  0.8135779E-002  0.2068399E+03  0.7818608E-02  0.1144164E+00
         21   -1    0    0  501  502  0.00000000000E+00  0.00000000000E+00  0.10145962858E+03  0.10145962858E+03  0.00000000000E+00 0. -1.
         21   -1    0    0  502  503 -0.00000000000E+00 -0.00000000000E+00 -0.43100480737E+03  0.43100480737E+03  0.00000000000E+00 0. -1.
         -6    2    1    2    0  503 -0.78066214336E+02  0.81590072886E+02 -0.12426172905E+03  0.24129590593E+03  0.17329588310E+03 0.  0.
        -24    2    3    3    0    0 -0.85085937805E+02  0.11986673728E+03 -0.10632849969E+03  0.19819056670E+03  0.79787839713E+02 0.  0.
          6    2    1    2  501    0  0.78066214336E+02 -0.81590072886E+02 -0.20528344974E+03  0.29116853002E+03  0.17287725219E+03 0.  0.
         24    2    5    5    0    0  0.34796988070E+01  0.18232773971E+02 -0.78514777114E+02  0.11334801542E+03  0.79615702122E+02 0.  0.
          5    1    5    5  501    0  0.74586515529E+02 -0.99822846857E+02 -0.12676867262E+03  0.17782051460E+03  0.47000000000E+01 0. -1.
        -13    1    6    6    0    0 -0.32543787800E+02 -0.11870842883E+02 -0.36904366929E+02  0.50615682684E+02  0.00000000000E+00 0.  1.
         14    1    6    6    0    0  0.36023486607E+02  0.30103616854E+02 -0.41610410184E+02  0.62732332738E+02  0.00000000000E+00 0. -1.
         -5    1    3    3    0  503  0.70197234682E+01 -0.38276664395E+02 -0.17933229356E+02  0.43105339227E+02  0.47000000000E+01 0.  1.
         13    1    4    4    0    0  0.11999495414E+02  0.38979315347E+02 -0.28966498546E+02  0.50024323615E+02  0.00000000000E+00 0. -1.
        -14    1    4    4    0    0 -0.97085433219E+02  0.80887421934E+02 -0.77362001143E+02  0.14816624309E+03  0.00000000000E+00 0.  1.
</event>
<event>
12    1  0.8135779E-002  0.2215867E+03  0.7818608E-02  0.1133594E+00
         21   -1    0    0  503  502  0.00000000000E+00  0.00000000000E+00  0.53108406905E+03  0.53108406905E+03  0.00000000000E+00 0. -1.
         21   -1    0    0  501  503 -0.00000000000E+00 -0.00000000000E+00 -0.10992871100E+03  0.10992871100E+03  0.00000000000E+00 0.  1.
          6    2    1    2  501    0 -0.10166104573E+03 -0.94675599127E+02  0.73893535353E+02  0.22907657790E+03  0.16648539482E+03 0.  0.
         24    2    3    3    0    0 -0.85646644583E+02 -0.48625005557E+02  0.11067743967E+03  0.16782085303E+03  0.78832760747E+02 0.  0.
         -6    2    1    2    0  502  0.10166104573E+03  0.94675599127E+02  0.34726182270E+03  0.41193620215E+03  0.17263320610E+03 0.  0.
        -24    2    5    5    0    0  0.13553213645E+03  0.93336703778E+02  0.25316567063E+03  0.31181018524E+03  0.77794823413E+02 0.  0.
          5    1    3    3  501    0 -0.16014401147E+02 -0.46050593570E+02 -0.36783904319E+02  0.61255724869E+02  0.47000000000E+01 0. -1.
        -11    1    4    4    0    0  0.33378636475E+01  0.79467196248E+01 -0.60411034527E+01  0.10525522194E+02  0.00000000000E+00 0.  1.
         12    1    4    4    0    0 -0.88984508231E+02 -0.56571725182E+02  0.11671854312E+03  0.15729533084E+03  0.00000000000E+00 0. -1.
         -5    1    5    5    0  502 -0.33871090723E+02  0.13388953489E+01  0.94096152074E+02  0.10012601691E+03  0.47000000000E+01 0.  1.
         13    1    6    6    0    0  0.95622808232E+02  0.44323619664E+02  0.21091568413E+03  0.23578322783E+03  0.00000000000E+00 0. -1.
        -14    1    6    6    0    0  0.39909328222E+02  0.49013084114E+02  0.42249986497E+02  0.76026957407E+02  0.00000000000E+00 0.  1.
</event>
<event>
12    1  0.8135779E-002  0.2029654E+03  0.7818608E-02  0.1151454E+00
         21   -1    0    0  501  502  0.00000000000E+00  0.00000000000E+00  0.17913647300E+03  0.17913647300E+03  0.00000000000E+00 0. -1.
         21   -1    0    0  502  503 -0.00000000000E+00 -0.00000000000E+00 -0.20905058948E+03  0.20905058948E+03  0.00000000000E+00 0.  1.
         -6    2    1    2    0  503 -0.10434754016E+03 -0.79169235850E+01 -0.78451860081E+01  0.20311699564E+03  0.17390767711E+03 0.  0.
        -24    2    3    3    0    0 -0.11561630018E+03  0.42244056483E+02 -0.25452435034E+02  0.14857147252E+03  0.79208375952E+02 0.  0.
          6    2    1    2  501    0  0.10434754016E+03  0.79169235850E+01 -0.22068930476E+02  0.18507006684E+03  0.15103908479E+03 0.  0.
         24    2    5    5    0    0  0.98102141678E+02  0.99070011925E+01 -0.64462796354E+02  0.14191574753E+03  0.79135632996E+02 0.  0.
          5    1    5    5  501    0  0.62453984780E+01 -0.19900776075E+01  0.42393865878E+02  0.43154319310E+02  0.47000000000E+01 0. -1.
        -11    1    6    6    0    0  0.66413053631E+02  0.37984834787E+02 -0.63724170151E+02  0.99570634365E+02  0.00000000000E+00 0.  1.
         12    1    6    6    0    0  0.31689088047E+02 -0.28077833594E+02 -0.73862620297E+00  0.42345113168E+02  0.00000000000E+00 0. -1.
         -5    1    3    3    0  503  0.11268760029E+02 -0.50160980068E+02  0.17607249026E+02  0.54545523118E+02  0.47000000000E+01 0.  1.
         11    1    4    4    0    0 -0.10108251492E+02  0.29248809665E+00  0.22998535335E+02  0.25123592996E+02  0.00000000000E+00 0. -1.
        -12    1    4    4    0    0 -0.10550804869E+03  0.41951568386E+02 -0.48450970369E+02  0.12344787952E+03  0.00000000000E+00 0.  1.
</event>
<event>
12    1  0.8135779E-002  0.2127450E+03  0.7818608E-02  0.1139498E+00
         21   -1    0    0  503  502  0.00000000000E+00  0.00000000000E+00  0.50904945287E+03  0.50904945287E+03  0.00000000000E+00 0. -1.
         21   -1    0    0  501  503 -0.00000000000E+00 -0.00000000000E+00 -0.15347798872E+03  0.15347798872E+03  0.00000000000E+00 0. -1.
          6    2    1    2  501    0  0.49626236577E+02 -0.11426108584E+03 -0.37491914638E+02  0.21558306604E+03  0.17190711330E+03 0.  0.
         24    2    3    3    0    0 -0.18096203191E+02 -0.63814051034E+01  0.33304079545E+01  0.81743959694E+02  0.79390102835E+02 0.  0.
         -6    2    1    2    0  502 -0.49626236577E+02  0.11426108584E+03  0.39306337878E+03  0.44694437556E+03  0.17245896906E+03 0.  0.
        -24    2    5    5    0    0 -0.98267692248E+02  0.76101534459E+02  0.30618071989E+03  0.34020717966E+03  0.80909263834E+02 0.  0.
          5    1    3    3  501    0  0.67722439769E+02 -0.10787968074E+03 -0.40822322593E+02  0.13383910634E+03  0.47000000000E+01 0. -1.
        -11    1    4    4    0    0 -0.73438813185E+01  0.32666012816E+02 -0.15718106777E+02  0.36987293315E+02  0.00000000000E+00 0.  1.
         12    1    4    4    0    0 -0.10752321873E+02 -0.39047417920E+02  0.19048514732E+02  0.44756666379E+02  0.00000000000E+00 0. -1.
         -5    1    5    5    0  502  0.48641455671E+02  0.38159551384E+02  0.86882658896E+02  0.10673719590E+03  0.47000000000E+01 0.  1.
         11    1    6    6    0    0 -0.70468501375E+01  0.53009148517E+02  0.12758524996E+03  0.13833880125E+03  0.00000000000E+00 0. -1.
        -12    1    6    6    0    0 -0.91220842110E+02  0.23092385942E+02  0.17859546993E+03  0.20186837841E+03  0.00000000000E+00 0.  1.
</event>
<event>
12    1  0.8135779E-002  0.1901268E+03  0.7818608E-02  0.1158571E+00
         21   -1    0    0  503  502  0.00000000000E+00  0.00000000000E+00  0.67205117732E+03  0.67205117732E+03  0.00000000000E+00 0. -1.
         21   -1    0    0  501  503 -0.00000000000E+00 -0.00000000000E+00 -0.83613018527E+02  0.83613018527E+02  0.00000000000E+00 0. -1.
          6    2    1    2  501    0  0.46499280165E+02  0.66240626348E+02  0.67009528159E+02  0.20065427805E+03  0.17094402242E+03 0.  0.
         24    2    3    3    0    0  0.56218954430E+02 -0.14631030323E+02  0.66957659265E+02  0.11906512674E+03  0.79489234405E+02 0.  0.
         -6    2    1    2    0  502 -0.46499280165E+02 -0.66240626348E+02  0.52142863063E+03  0.55500991780E+03  0.17204124033E+03 0.  0.
        -24    2    5    5    0    0 -0.14509861273E+02  0.23086941626E+02  0.32988011594E+03  0.34119770860E+03  0.82773440864E+02 0.  0.
          5    1    3    3  501    0 -0.97196742647E+01  0.80871656671E+02  0.51868893325E-01  0.81589151306E+02  0.47000000000E+01 0. -1.
        -11    1    4    4    0    0  0.67739311829E+02  0.12349410595E+02  0.50849552163E+02  0.85596724612E+02  0.00000000000E+00 0.  1.
         12    1    4    4    0    0 -0.11520357399E+02 -0.26980440918E+02  0.16108107102E+02  0.33468402130E+02  0.00000000000E+00 0. -1.
         -5    1    5    5    0  502 -0.31989418892E+02 -0.89327567974E+02  0.19154851469E+03  0.21381220920E+03  0.47000000000E+01 0.  1.
         13    1    6    6    0    0  0.19033429697E+02  0.27562179320E+02  0.56134947032E+02  0.65368780417E+02  0.00000000000E+00 0. -1.
        -14    1    6    6    0    0 -0.33543290970E+02 -0.44752376939E+01  0.27374516891E+03  0.27582892818E+03  0.00000000000E+00 0.  1.
</event>
<event>
12    1  0.8135779E-002  0.2341517E+03  0.7818608E-02  0.1124885E+00
         21   -1    0    0  503  502  0.00000000000E+00  0.00000000000E+00  0.87878413007E+03  0.87878413007E+03  0.00000000000E+00 0.  1.
         21   -1    0    0  501  503 -0.00000000000E+00 -0.00000000000E+00 -0.62086711174E+02  0.62086711174E+02  0.00000000000E+00 0.  1.
          6    2    1    2  501    0  0.15811695788E+02 -0.15815934384E+03  0.34292293424E+03  0.41523869035E+03  0.17193790556E+03 0.  0.
         24    2    3    3    0    0  0.68398365556E+02 -0.12672311655E+03  0.29188169764E+03  0.33535820427E+03  0.80827687527E+02 0.  0.
         -6    2    1    2    0  502 -0.15811695788E+02  0.15815934384E+03  0.47377448466E+03  0.52563215089E+03  0.16298008460E+03 0.  0.
        -24    2    5    5    0    0 -0.15966081892E+02  0.20056083980E+02  0.14035168383E+03  0.16470918359E+03  0.82300411472E+02 0.  0.
          5    1    3    3  501    0 -0.52586669769E+02 -0.31436227286E+02  0.51041236596E+02  0.79880486081E+02  0.47000000000E+01 0. -1.
        -11    1    4    4    0    0  0.56543765804E+02 -0.13702786456E+03  0.25020955450E+03  0.29082409508E+03  0.00000000000E+00 0.  1.
         12    1    4    4    0    0  0.11854599752E+02  0.10304748007E+02  0.41672143145E+02  0.44534109187E+02  0.00000000000E+00 0. -1.
         -5    1    5    5    0  502  0.15438610418E+00  0.13810325986E+03  0.33342280082E+03  0.36092296730E+03  0.47000000000E+01 0.  1.
         13    1    6    6    0    0  0.20013056693E+02  0.40113379635E+02  0.67820172577E+02  0.81296872464E+02  0.00000000000E+00 0. -1.
        -14    1    6    6    0    0 -0.35979138585E+02 -0.20057295656E+02  0.72531511255E+02  0.83412311126E+02  0.00000000000E+00 0.  1.
</event>
<event>
12    1  0.8135779E-002  0.2057117E+03  0.7818608E-02  0.1146122E+00
         21   -1    0    0  501  502  0.00000000000E+00  0.00000000000E+00  0.76767645397E+02  0.76767645397E+02  0.00000000000E+00 0.  1.
         21   -1    0    0  502  503 -0.00000000000E+00 -0.00000000000E+00 -0.90610168234E+03  0.90610168234E+03  0.00000000000E+00 0.  1.
         -6    2    1    2    0  503  0.22468797483E+02  0.11037684425E+03 -0.73163519930E+03  0.76000484684E+03  0.17213194869E+03 0.  0.
        -24    2    3    3    0    0 -0.60784904352E+01  0.10407564382E+03 -0.30481594022E+03  0.33215975490E+03  0.80923776997E+02 0.  0.
          6    2    1    2  501    0 -0.22468797483E+02 -0.11037684425E+03 -0.97698837645E+02  0.22286448090E+03  0.16563701084E+03 0.  0.
         24    2    5    5    0    0  0.26286260822E+02 -0.59685727468E+02 -0.19064369621E+01  0.10393206707E+03  0.80900472752E+02 0.  0.
          5    1    5    5  501    0 -0.48755058305E+02 -0.50691116784E+02 -0.95792400683E+02  0.11893241383E+03  0.47000000000E+01 0. -1.
        -13    1    6    6    0    0  0.46959167815E+02 -0.66376272740E+02 -0.70183575189E+01  0.81610234450E+02  0.00000000000E+00 0.  1.
         14    1    6    6    0    0 -0.20672906993E+02  0.66905452720E+01  0.51119205567E+01  0.22321832616E+02  0.00000000000E+00 0. -1.
         -5    1    3    3    0  503  0.28547287918E+02  0.63012004366E+01 -0.42681925907E+03  0.42784509193E+03  0.47000000000E+01 0.  1.
         11    1    4    4    0    0  0.14873663381E+02 -0.87160543012E+01 -0.41488046669E+02  0.44927202020E+02  0.00000000000E+00 0. -1.
        -12    1    4    4    0    0 -0.20952153816E+02  0.11279169812E+03 -0.26332789355E+03  0.28723255288E+03  0.00000000000E+00 0.  1.
</event>
<event>
12    1  0.8135779E-002  0.1795757E+03  0.7818608E-02  0.1169190E+00
         21   -1    0    0  501  502  0.00000000000E+00  0.00000000000E+00  0.58002507827E+03  0.58002507827E+03  0.00000000000E+00 0.  1.
         21   -1    0    0  502  503 -0.00000000000E+00 -0.00000000000E+00 -0.83493097621E+02  0.83493097621E+02  0.00000000000E+00 0.  1.
         -6    2    1    2    0  503 -0.20006373844E+02 -0.49021912462E+02  0.50543470867E+02  0.18273424537E+03  0.16743284948E+03 0.  0.
        -24    2    3    3    0    0  0.36893711907E+02 -0.64468063403E+02  0.61430669276E+01  0.10877689815E+03  0.79230039267E+02 0.  0.
          6    2    1    2  501    0  0.20006373844E+02  0.49021912462E+02  0.44598850978E+03  0.48078393052E+03  0.17159263999E+03 0.  0.
         24    2    5    5    0    0  0.12940746667E+02  0.51834493361E+02  0.45665422363E+03  0.46686699298E+03  0.81101365886E+02 0.  0.
          5    1    5    5  501    0  0.70656271771E+01 -0.28125808998E+01 -0.10665713848E+02  0.13916937545E+02  0.47000000000E+01 0. -1.
        -13    1    6    6    0    0  0.18983233039E+02  0.27400824386E+02  0.42555486025E+03  0.42685841610E+03  0.00000000000E+00 0.  1.
         14    1    6    6    0    0 -0.60424863725E+01  0.24433668976E+02  0.31099363375E+02  0.40008576874E+02  0.00000000000E+00 0. -1.
         -5    1    3    3    0  503 -0.56900085751E+02  0.15446150942E+02  0.44400403939E+02  0.73957347216E+02  0.47000000000E+01 0.  1.
         13    1    4    4    0    0 -0.22904640003E+02 -0.12889971743E+02  0.13351330948E+02  0.29479347741E+02  0.00000000000E+00 0. -1.
        -14    1    4    4    0    0  0.59798351909E+02 -0.51578091661E+02 -0.72082640200E+01  0.79297550407E+02  0.00000000000E+00 0.  1.
</event>
<event>
12    1  0.8135779E-002  0.1818500E+03  0.7818608E-02  0.1166405E+00
         21   -1    0    0  501  502  0.00000000000E+00  0.00000000000E+00  0.15394324102E+03  0.15394324102E+03  0.00000000000E+00 0.  1.
         21   -1    0    0  502  503 -0.00000000000E+00 -0.00000000000E+00 -0.22017612646E+03  0.22017612646E+03  0.00000000000E+00 0.  1.
         -6    2    1    2    0  503 -0.51027202530E+02  0.28034175189E+02  0.63932115930E+00  0.18185109425E+03  0.17227803508E+03 0.  0.
        -24    2    3    3    0    0 -0.75818042236E+01 -0.80321524141E+01 -0.58049114085E+02  0.10027471867E+03  0.81014321762E+02 0.  0.
          6    2    1    2  501    0  0.51027202530E+02 -0.28034175189E+02 -0.66872206602E+02  0.19226827323E+03  0.17060336016E+03 0.  0.
         24    2    5    5    0    0  0.65305098987E+01  0.36095758968E+02 -0.72031750931E+02  0.11390173058E+03  0.80246368835E+02 0.  0.
          5    1    5    5  501    0  0.44496692632E+02 -0.64129934157E+02  0.51595443287E+01  0.78366542655E+02  0.47000000000E+01 0. -1.
        -13    1    6    6    0    0  0.29288501380E+02 -0.22946201374E+01 -0.25230978225E+00  0.29379333806E+02  0.00000000000E+00 0.  1.
         14    1    6    6    0    0 -0.22757991482E+02  0.38390379105E+02 -0.71779441149E+02  0.84522396770E+02  0.00000000000E+00 0. -1.
         -5    1    3    3    0  503 -0.43445398307E+02  0.36066327603E+02  0.58688435245E+02  0.81576375577E+02  0.47000000000E+01 0.  1.
         13    1    4    4    0    0 -0.11329429344E+02 -0.28411221708E+02  0.75298840742E+01  0.31500041943E+02  0.00000000000E+00 0. -1.
        -14    1    4    4    0    0  0.37476251204E+01  0.20379069294E+02 -0.65578998160E+02  0.68774676727E+02  0.00000000000E+00 0.  1.
</event>
<event>
12    1  0.8135779E-002  0.1962630E+03  0.7818608E-02  0.1153013E+00
         21   -1    0    0  501  502  0.00000000000E+00  0.00000000000E+00  0.10143578720E+04  0.10143578720E+04  0.00000000000E+00 0.  1.
         21   -1    0    0  502  503 -0.00000000000E+00 -0.00000000000E+00 -0.39023625476E+02  0.39023625476E+02  0.00000000000E+00 0.  1.
         -6    2    1    2    0  503 -0.67159566875E+02  0.64497188255E+02  0.57746758206E+03  0.60990816984E+03  0.17276826268E+03 0.  0.
        -24    2    3    3    0    0 -0.88740444727E+02 -0.94563549102E+01  0.35266383687E+03  0.37222418913E+03  0.78833850317E+02 0.  0.
          6    2    1    2  501    0  0.67159566875E+02 -0.64497188255E+02  0.39786666442E+03  0.44347332759E+03  0.17233808318E+03 0.  0.
         24    2    5    5    0    0  0.49342374314E+02 -0.10346670956E+03  0.22236934251E+03  0.26275953195E+03  0.80339387899E+02 0.  0.
          5    1    5    5  501    0  0.17817192561E+02  0.38969521307E+02  0.17549732191E+03  0.18071379565E+03  0.47000000000E+01 0. -1.
        -11    1    6    6    0    0  0.32561302601E+01 -0.12219187540E+02  0.11048780518E+03  0.11120910944E+03  0.00000000000E+00 0.  1.
         12    1    6    6    0    0  0.46086244054E+02 -0.91247522021E+02  0.11188153733E+03  0.15155042251E+03  0.00000000000E+00 0. -1.
         -5    1    3    3    0  503  0.21580877852E+02  0.73953543165E+02  0.22480374519E+03  0.23768398071E+03  0.47000000000E+01 0.  1.
         13    1    4    4    0    0  0.37942770515E+01 -0.24852687505E+02  0.81817145755E+02  0.85592627919E+02  0.00000000000E+00 0. -1.
        -14    1    4    4    0    0 -0.92534721778E+02  0.15396332594E+02  0.27084669112E+03  0.28663156121E+03  0.00000000000E+00 0.  1.
</event>
<event>
12    1  0.8135779E-002  0.1775043E+03  0.7818608E-02  0.1170719E+00
         21   -1    0    0  503  502  0.00000000000E+00  0.00000000000E+00  0.45880738500E+03  0.45880738500E+03  0.00000000000E+00 0. -1.
         21   -1    0    0  501  503 -0.00000000000E+00 -0.00000000000E+00 -0.12126961931E+03  0.12126961931E+03  0.00000000000E+00 0. -1.
          6    2    1    2  501    0 -0.35685467762E+02  0.24337981535E+02 -0.24104596951E+02  0.17722096171E+03  0.17017769454E+03 0.  0.
         24    2    3    3    0    0 -0.79993850046E+02  0.38397777015E+02  0.65078765610E+01  0.12136289045E+03  0.82542070465E+02 0.  0.
         -6    2    1    2    0  502  0.35685467762E+02 -0.24337981535E+02  0.36164236265E+03  0.40285604261E+03  0.17216852979E+03 0.  0.
        -24    2    5    5    0    0 -0.14058452823E+02 -0.21487835288E+02  0.33732348885E+03  0.34721362541E+03  0.78171595732E+02 0.  0.
          5    1    3    3  501    0  0.44308382285E+02 -0.14059795479E+02 -0.30612473512E+02  0.55858071253E+02  0.47000000000E+01 0. -1.
        -13    1    4    4    0    0 -0.84139246203E+01  0.46120947751E+02 -0.89448748784E+01  0.47727840257E+02  0.00000000000E+00 0.  1.
         14    1    4    4    0    0 -0.71579925426E+02 -0.77231707362E+01  0.15452751439E+02  0.73635050195E+02  0.00000000000E+00 0. -1.
         -5    1    5    5    0  502  0.49743920584E+02 -0.28501462473E+01  0.24318873792E+02  0.55642417194E+02  0.47000000000E+01 0.  1.
         11    1    6    6    0    0 -0.35871122112E+02  0.12877871075E+02  0.11375209427E+03  0.11996714516E+03  0.00000000000E+00 0. -1.
        -12    1    6    6    0    0  0.21812669290E+02 -0.34365706363E+02  0.22357139458E+03  0.22724648026E+03  0.00000000000E+00 0.  1.
</event>
<event>
12    1  0.8135779E-002  0.1788717E+03  0.7818608E-02  0.1169815E+00
         21   -1    0    0  503  502  0.00000000000E+00  0.00000000000E+00  0.27881046854E+03  0.27881046854E+03  0.00000000000E+00 0.  1.
         21   -1    0    0  501  503 -0.00000000000E+00 -0.00000000000E+00 -0.14446793132E+03  0.14446793132E+03  0.00000000000E+00 0.  1.
          6    2    1    2  501    0 -0.32827897967E+02 -0.16842005947E+02 -0.32009677943E+02  0.18171321670E+03  0.17502499705E+03 0.  0.
         24    2    3    3    0    0 -0.11937125208E+02 -0.71013386805E+02 -0.52925250439E+02  0.11982206981E+03  0.79817605933E+02 0.  0.
         -6    2    1    2    0  502  0.32827897967E+02  0.16842005947E+02  0.16635221516E+03  0.24156518316E+03  0.17122895251E+03 0.  0.
        -24    2    5    5    0    0  0.72147698361E+02  0.28355585034E+01  0.49001446003E+02  0.11692361588E+03  0.77824542843E+02 0.  0.
          5    1    3    3  501    0 -0.20890772759E+02  0.54171380858E+02  0.20915572496E+02  0.61891146890E+02  0.47000000000E+01 0. -1.
        -13    1    4    4    0    0  0.23963071151E+02 -0.87503159596E+01 -0.39017661205E+02  0.46617321826E+02  0.00000000000E+00 0.  1.
         14    1    4    4    0    0 -0.35900196359E+02 -0.62263070845E+02 -0.13907589235E+02  0.73204747988E+02  0.00000000000E+00 0. -1.
         -5    1    5    5    0  502 -0.39319800394E+02  0.14006447444E+02  0.11735076916E+03  0.12464156729E+03  0.47000000000E+01 0.  1.
         11    1    6    6    0    0  0.67830926415E+02  0.53025045459E+01  0.68651115292E+02  0.96654677919E+02  0.00000000000E+00 0. -1.
        -12    1    6    6    0    0  0.43167719467E+01 -0.24669460425E+01 -0.19649669289E+02  0.20268937959E+02  0.00000000000E+00 0.  1.
</event>
<event>
12    1  0.8135779E-002  0.1914953E+03  0.7818608E-02  0.1158362E+00
         21   -1    0    0  501  502  0.00000000000E+00  0.00000000000E+00  0.31038898425E+03  0.31038898425E+03  0.00000000000E+00 0.  1.
         21   -1    0    0  502  503 -0.00000000000E+00 -0.00000000000E+00 -0.13802293562E+03  0.13802293562E+03  0.00000000000E+00 0.  1.
         -6    2    1    2    0  503  0.27159485988E+02  0.67831276704E+02 -0.47614808888E+01  0.19155450865E+03  0.17700773516E+03 0.  0.
        -24    2    3    3    0    0  0.93662652879E+01  0.42643761687E+02  0.67780029847E+02  0.11259014710E+03  0.78588748817E+02 0.  0.
          6    2    1    2  501    0 -0.27159485988E+02 -0.67831276704E+02  0.17712752952E+03  0.25685741123E+03  0.17106387173E+03 0.  0.
         24    2    5    5    0    0 -0.28609835260E+02 -0.57819770145E+02  0.20635465930E+02  0.99968311088E+02  0.73526813303E+02 0.  0.
          5    1    5    5  501    0  0.14503492713E+01 -0.10011506559E+02  0.15649206359E+03  0.15688910014E+03  0.47000000000E+01 0. -1.
        -11    1    6    6    0    0 -0.94075728500E+01 -0.36676502111E+02  0.47508898645E+02  0.60751655816E+02  0.00000000000E+00 0.  1.
         12    1    6    6    0    0 -0.19202262410E+02 -0.21143268034E+02 -0.26873432715E+02  0.39216655271E+02  0.00000000000E+00 0. -1.
         -5    1    3    3    0  503  0.17793220700E+02  0.25187515016E+02 -0.72541510736E+02  0.78964361553E+02  0.47000000000E+01 0.  1.
         13    1    4    4    0    0  0.35534598455E+02  0.11249888767E+02  0.48978425854E+01  0.37593304545E+02  0.00000000000E+00 0. -1.
        -14    1    4    4    0    0 -0.26168333167E+02  0.31393872920E+02  0.62882187262E+02  0.74996842550E+02  0.00000000000E+00 0.  1.
</event>
<event>
12    1  0.8135779E-002  0.1839141E+03  0.7818608E-02  0.1164221E+00
         21   -1    0    0  501  502  0.00000000000E+00  0.00000000000E+00  0.13250769235E+03  0.13250769235E+03  0.00000000000E+00 0. -1.
         21   -1    0    0  502  503 -0.00000000000E+00 -0.00000000000E+00 -0.32565752532E+03  0.32565752532E+03  0.00000000000E+00 0. -1.
         -6    2    1    2    0  503 -0.55545957320E+02  0.26258835185E+02 -0.20362783698E+03  0.27395292940E+03  0.17265871462E+03 0.  0.
        -24    2    3    3    0    0 -0.59460855082E+02 -0.47059569014E+02 -0.11343721032E+03  0.15755982842E+03  0.78783897619E+02 0.  0.
          6    2    1    2  501    0  0.55545957320E+02 -0.26258835185E+02  0.10478004008E+02  0.18421228827E+03  0.17334791254E+03 0.  0.
         24    2    5    5    0    0  0.86955532890E+02 -0.46027467463E+02 -0.28261997923E+02  0.13035843038E+03  0.80714232847E+02 0.  0.
          5    1    5    5  501    0 -0.31409575570E+02  0.19768632278E+02  0.38740001931E+02  0.53853857886E+02  0.47000000000E+01 0. -1.
        -13    1    6    6    0    0  0.16211380762E+02 -0.34577251717E+02 -0.42665758975E+02  0.57260476696E+02  0.00000000000E+00 0.  1.
         14    1    6    6    0    0  0.70744152128E+02 -0.11450215746E+02  0.14403761051E+02  0.73097953688E+02  0.00000000000E+00 0. -1.
         -5    1    3    3    0  503  0.39148977619E+01  0.73318404199E+02 -0.90190626651E+02  0.11639310097E+03  0.47000000000E+01 0.  1.
         11    1    4    4    0    0 -0.11074909934E+02  0.12888880498E+02 -0.63540577245E+02  0.65773716842E+02  0.00000000000E+00 0. -1.
        -12    1    4    4    0    0 -0.48385945149E+02 -0.59948449512E+02 -0.49896633079E+02  0.91786111583E+02  0.00000000000E+00 0.  1.
</event>
<event>
12    1  0.8135779E-002  0.2438350E+03  0.7818608E-02  0.1117626E+00
         21   -1    0    0  503  502  0.00000000000E+00  0.00000000000E+00  0.11201975634E+03  0.11201975634E+03  0.00000000000E+00 0. -1.
         21   -1    0    0  501  503 -0.00000000000E+00 -0.00000000000E+00 -0.55650034538E+03  0.55650034538E+03  0.00000000000E+00 0.  1.
          6    2    1    2  501    0 -0.88643556743E+02 -0.14418477081E+03 -0.29957835609E+03  0.38487920038E+03  0.17244674297E+03 0.  0.
         24    2    3    3    0    0 -0.57032360867E+02 -0.61940010994E+02 -0.26580818459E+03  0.29040178136E+03  0.81178497601E+02 0.  0.
         -6    2    1    2    0  502  0.88643556743E+02  0.14418477081E+03 -0.14490223295E+03  0.28364090134E+03  0.17552371781E+03 0.  0.
        -24    2    5    5    0    0  0.52459229239E+02  0.58306913849E+01 -0.88753230788E+02  0.12993352581E+03  0.78864551345E+02 0.  0.
          5    1    3    3  501    0 -0.31611195875E+02 -0.82244759814E+02 -0.33770171498E+02  0.94477419019E+02  0.47000000000E+01 0. -1.
        -13    1    4    4    0    0 -0.37072301496E+01 -0.63347140393E+02 -0.15191712931E+03  0.16463723129E+03  0.00000000000E+00 0.  1.
         14    1    4    4    0    0 -0.53325130718E+02  0.14071293988E+01 -0.11389105528E+03  0.12576455006E+03  0.00000000000E+00 0. -1.
         -5    1    5    5    0  502  0.36184327504E+02  0.13835407942E+03 -0.56149002166E+02  0.15370737554E+03  0.47000000000E+01 0.  1.
         13    1    6    6    0    0  0.35289321966E+02  0.37742350794E+02 -0.26915794290E+02  0.58260460610E+02  0.00000000000E+00 0. -1.
        -14    1    6    6    0    0  0.17169907273E+02 -0.31911659409E+02 -0.61837436499E+02  0.71673065197E+02  0.00000000000E+00 0.  1.
</event>
<event>
12    1  0.8135779E-002  0.1877777E+03  0.7818608E-02  0.1161058E+00
         21   -1    0    0  501  502  0.00000000000E+00  0.00000000000E+00  0.33100152449E+03  0.33100152449E+03  0.00000000000E+00 0.  1.
         21   -1    0    0  502  503 -0.00000000000E+00 -0.00000000000E+00 -0.10532098634E+03  0.10532098634E+03  0.00000000000E+00 0.  1.
         -6    2    1    2    0  503  0.70083906670E+02 -0.23113451429E+02  0.12328222890E+03  0.22463077925E+03  0.17266873896E+03 0.  0.
        -24    2    3    3    0    0 -0.28400324141E+02 -0.87482336635E+01  0.71340792797E+02  0.11226750240E+03  0.81433244899E+02 0.  0.
          6    2    1    2  501    0 -0.70083906670E+02  0.23113451429E+02  0.10239830924E+03  0.21169173158E+03  0.16994702078E+03 0.  0.
         24    2    5    5    0    0 -0.66700260794E+02 -0.47917389112E+01  0.11356117774E+01  0.10649490366E+03  0.82873333097E+02 0.  0.
          5    1    5    5  501    0 -0.33836458755E+01  0.27905190340E+02  0.10126269746E+03  0.10519682792E+03  0.47000000000E+01 0. -1.
        -13    1    6    6    0    0 -0.55178506359E+01 -0.33610145626E+02 -0.14602017896E+02  0.37058163625E+02  0.00000000000E+00 0.  1.
         14    1    6    6    0    0 -0.61182410158E+02  0.28818406715E+02  0.15737629673E+02  0.69436740031E+02  0.00000000000E+00 0. -1.
         -5    1    3    3    0  503  0.98484230811E+02 -0.14365217765E+02  0.51941436105E+02  0.11236327685E+03  0.47000000000E+01 0.  1.
         11    1    4    4    0    0 -0.14070676989E+02 -0.25622038574E+02  0.82464788655E+02  0.87492366407E+02  0.00000000000E+00 0. -1.
        -12    1    4    4    0    0 -0.14329647151E+02  0.16873804910E+02 -0.11123995858E+02  0.24775135993E+02  0.00000000000E+00 0.  1.
</event>
<event>
12    1  0.8135779E-002  0.1946521E+03  0.7818608E-02  0.1154375E+00
         21   -1    0    0  501  502  0.00000000000E+00  0.00000000000E+00  0.20382908794E+03  0.20382908794E+03  0.00000000000E+00 0. -1.
         21   -1    0    0  502  503 -0.00000000000E+00 -0.00000000000E+00 -0.18845993155E+03  0.18845993155E+03  0.00000000000E+00 0. -1.
         -6    2    1    2    0  503  0.31993137684E+02 -0.84473438123E+02  0.31442640737E+02  0.19717522191E+03  0.17242420326E+03 0.  0.
        -24    2    3    3    0    0  0.51986443422E+02 -0.26861336249E+01 -0.24597049009E+02  0.95925864980E+02  0.76726469609E+02 0.  0.
          6    2    1    2  501    0 -0.31993137684E+02  0.84473438123E+02 -0.16073484344E+02  0.19511379758E+03  0.17219673197E+03 0.  0.
         24    2    5    5    0    0 -0.81058401874E+02  0.47117639618E+02  0.17982501382E+02  0.12451099313E+03  0.79931724475E+02 0.  0.
          5    1    5    5  501    0  0.49065264190E+02  0.37355798505E+02 -0.34055985726E+02  0.70602804446E+02  0.47000000000E+01 0. -1.
        -13    1    6    6    0    0 -0.10287055868E+02  0.26151771020E+02 -0.26254550014E+02  0.38458289644E+02  0.00000000000E+00 0.  1.
         14    1    6    6    0    0 -0.70771346006E+02  0.20965868598E+02  0.44237051396E+02  0.86052703489E+02  0.00000000000E+00 0. -1.
         -5    1    3    3    0  503 -0.19993305738E+02 -0.81787304498E+02  0.56039689745E+02  0.10124935693E+03  0.47000000000E+01 0.  1.
         11    1    4    4    0    0  0.58703891305E+02 -0.23342752110E+02 -0.34580823112E+02  0.72019887931E+02  0.00000000000E+00 0. -1.
        -12    1    4    4    0    0 -0.67174478831E+01  0.20656618485E+02  0.99837741038E+01  0.23905977049E+02  0.00000000000E+00 0.  1.
</event>
<event>
12    1  0.8135779E-002  0.2095328E+03  0.7818608E-02  0.1143222E+00
         21   -1    0    0  501  502  0.00000000000E+00  0.00000000000E+00  0.34381632777E+02  0.34381632777E+02  0.00000000000E+00 0.  1.
         21   -1    0    0  502  503 -0.00000000000E+00 -0.00000000000E+00 -0.13260172967E+04  0.13260172967E+04  0.00000000000E+00 0. -1.
         -6    2    1    2    0  503  0.79999557621E+02  0.43564614023E+02 -0.82991241145E+03  0.85595478896E+03  0.18869601280E+03 0.  0.
        -24    2    3    3    0    0 -0.33588925359E+02  0.22357952632E+00 -0.32357179800E+03  0.33520178074E+03  0.80828580690E+02 0.  0.
          6    2    1    2  501    0 -0.79999557621E+02 -0.43564614023E+02 -0.46172325247E+03  0.50444414052E+03  0.18159769882E+03 0.  0.
         24    2    5    5    0    0 -0.91551380525E+02 -0.91292649082E+02 -0.31370952788E+03  0.34842631265E+03  0.79191062736E+02 0.  0.
          5    1    5    5  501    0  0.11551822903E+02  0.47728035058E+02 -0.14801372459E+03  0.15601782786E+03  0.47000000000E+01 0. -1.
        -11    1    6    6    0    0  0.61098686897E+01 -0.36830187998E+02 -0.53815140612E+02  0.65497042700E+02  0.00000000000E+00 0.  1.
         12    1    6    6    0    0 -0.97661249214E+02 -0.54462461084E+02 -0.25989438726E+03  0.28292926995E+03  0.00000000000E+00 0. -1.
         -5    1    3    3    0  503  0.11358848298E+03  0.43341034497E+02 -0.50634061344E+03  0.52075300821E+03  0.47000000000E+01 0.  1.
         13    1    4    4    0    0 -0.36573786215E+01 -0.38386763366E+02 -0.15135695057E+03  0.15619169794E+03  0.00000000000E+00 0. -1.
        -14    1    4    4    0    0 -0.29931546737E+02  0.38610342893E+02 -0.17221484743E+03  0.17901008280E+03  0.00000000000E+00 0.  1.
</event>
<event>
12    1  0.8135779E-002  0.1873372E+03  0.7818608E-02  0.1161541E+00
         21   -1    0    0  501  502  0.00000000000E+00  0.00000000000E+00  0.32128018610E+03  0.32128018610E+03  0.00000000000E+00 0. -1.
         21   -1    0    0  502  503 -0.00000000000E+00 -0.00000000000E+00 -0.11360271450E+03  0.11360271450E+03  0.00000000000E+00 0. -1.
         -6    2    1    2    0  503 -0.18850338301E+02  0.71063362292E+02  0.15460620002E+03  0.24289568271E+03  0.17230757059E+03 0.  0.
        -24    2    3    3    0    0 -0.38246971823E+02  0.18272613386E+02  0.14381411496E+02  0.91739558527E+02  0.80078725942E+02 0.  0.
          6    2    1    2  501    0  0.18850338301E+02 -0.71063362292E+02  0.53071271576E+02  0.19198721789E+03  0.16922527959E+03 0.  0.
         24    2    5    5    0    0 -0.30586401680E+02 -0.25459121709E+01  0.63426189304E+02  0.10673496542E+03  0.80171452005E+02 0.  0.
          5    1    5    5  501    0  0.49436739981E+02 -0.68517450121E+02 -0.10354917728E+02  0.85252252476E+02  0.47000000000E+01 0. -1.
        -11    1    6    6    0    0 -0.21768319979E+02 -0.77299579002E+01 -0.15066099373E+02  0.27578965792E+02  0.00000000000E+00 0.  1.
         12    1    6    6    0    0 -0.88180817012E+01  0.51840457293E+01  0.78492288677E+02  0.79155999625E+02  0.00000000000E+00 0. -1.
         -5    1    3    3    0  503  0.19396633523E+02  0.52790748906E+02  0.14022478852E+03  0.15115612418E+03  0.47000000000E+01 0.  1.
         13    1    4    4    0    0  0.15674612027E+01  0.41251932705E+02  0.19180048460E+02  0.45519810472E+02  0.00000000000E+00 0. -1.
        -14    1    4    4    0    0 -0.39814433026E+02 -0.22979319319E+02 -0.47986369639E+01  0.46219748055E+02  0.00000000000E+00 0.  1.
</event>
<event>
12    1  0.8135779E-002  0.1800811E+03  0.7818608E-02  0.1172265E+00
         21   -1    0    0  503  502  0.00000000000E+00  0.00000000000E+00  0.14528035489E+03  0.14528035489E+03  0.00000000000E+00 0. -1.
         21   -1    0    0  501  503 -0.00000000000E+00 -0.00000000000E+00 -0.23177192888E+03  0.23177192888E+03  0.00000000000E+00 0. -1.
          6    2    1    2  501    0  0.43960839412E+02  0.34458064062E+02 -0.10907557593E+03  0.19556054361E+03  0.15240253073E+03 0.  0.
         24    2    3    3    0    0  0.21053912770E+02 -0.20695175321E+02 -0.10514931011E+03  0.13552628118E+03  0.80246108622E+02 0.  0.
         -6    2    1    2    0  502 -0.43960839412E+02 -0.34458064062E+02  0.22584001945E+02  0.18149174016E+03  0.17119959411E+03 0.  0.
        -24    2    5    5    0    0 -0.48304336994E+02 -0.47827077356E+02 -0.44130122300E+02  0.11315097003E+03  0.78961611082E+02 0.  0.
          5    1    3    3  501    0  0.22906926642E+02  0.55153239383E+02 -0.39262658216E+01  0.60034262434E+02  0.47000000000E+01 0. -1.
        -13    1    4    4    0    0 -0.25090553849E+01 -0.41434733660E+02 -0.22718287277E+02  0.47320746922E+02  0.00000000000E+00 0.  1.
         14    1    4    4    0    0  0.23562968155E+02  0.20739558339E+02 -0.82431022829E+02  0.88205534254E+02  0.00000000000E+00 0. -1.
         -5    1    5    5    0  502  0.43434975813E+01  0.13369013294E+02  0.66714124245E+02  0.68340770126E+02  0.47000000000E+01 0.  1.
         13    1    6    6    0    0 -0.36801934922E+02 -0.51395327286E+02  0.41910744130E+01  0.63351615493E+02  0.00000000000E+00 0. -1.
        -14    1    6    6    0    0 -0.11502402072E+02  0.35682499299E+01 -0.48321196713E+02  0.49799354541E+02  0.00000000000E+00 0.  1.
</event>
<event>
12    1  0.8135779E-002  0.1742009E+03  0.7818608E-02  0.1173759E+00
         21   -1    0    0  503  502  0.00000000000E+00  0.00000000000E+00  0.27728994176E+02  0.27728994176E+02  0.00000000000E+00 0. -1.
         21   -1    0    0  501  503 -0.00000000000E+00 -0.00000000000E+00 -0.12212908843E+04  0.12212908843E+04  0.00000000000E+00 0. -1.
          6    2    1    2  501    0 -0.24556151854E+02  0.16641371794E+02 -0.80107746807E+03  0.81961333419E+03  0.17076582764E+03 0.  0.
         24    2    3    3    0    0 -0.42618854808E+02  0.36074093917E+01 -0.21819482790E+03  0.23628631817E+03  0.79955369074E+02 0.  0.
         -6    2    1    2    0  502  0.24556151854E+02 -0.16641371794E+02 -0.39248442209E+03  0.42940654432E+03  0.17165668898E+03 0.  0.
        -24    2    5    5    0    0  0.66517959544E+02  0.18963474003E+02 -0.16967777775E+03  0.19985613785E+03  0.79797714786E+02 0.  0.
          5    1    3    3  501    0  0.18062702954E+02  0.13033962402E+02 -0.58288264017E+03  0.58332701602E+03  0.47000000000E+01 0. -1.
        -13    1    4    4    0    0 -0.30179443209E+02 -0.37068750983E+02 -0.12561660924E+03  0.13440395682E+03  0.00000000000E+00 0.  1.
         14    1    4    4    0    0 -0.12439411599E+02  0.40676160375E+02 -0.92578218659E+02  0.10188236135E+03  0.00000000000E+00 0. -1.
         -5    1    5    5    0  502 -0.41961807690E+02 -0.35604845798E+02 -0.22280664434E+03  0.22955040647E+03  0.47000000000E+01 0.  1.
         13    1    6    6    0    0  0.99432402527E+01  0.41192066928E+02 -0.91431753378E+02  0.10077410347E+03  0.00000000000E+00 0. -1.
        -14    1    6    6    0    0  0.56574719291E+02 -0.22228592924E+02 -0.78246024372E+02  0.99082034377E+02  0.00000000000E+00 0.  1.
</event>
<event>
12    1  0.8135779E-002  0.2836390E+03  0.7818608E-02  0.1093781E+00
         21   -1    0    0  501  502  0.00000000000E+00  0.00000000000E+00  0.42693086097E+02  0.42693086097E+02  0.00000000000E+00 0.  1.
         21   -1    0    0  502  503 -0.00000000000E+00 -0.00000000000E+00 -0.19470072957E+04  0.19470072957E+04  0.00000000000E+00 0.  1.
         -6    2    1    2    0  503 -0.22467901917E+03 -0.97423307757E+00 -0.11357048553E+04  0.11705881472E+04  0.17311695841E+03 0.  0.
        -24    2    3    3    0    0 -0.12894329372E+03 -0.40291735186E+02 -0.43660341232E+03  0.46385190741E+03  0.79285909429E+02 0.  0.
          6    2    1    2  501    0  0.22467901917E+03  0.97423307757E+00 -0.76860935424E+03  0.81911223451E+03  0.17234530023E+03 0.  0.
         24    2    5    5    0    0  0.61859521965E+02 -0.27257386426E+02 -0.15844423990E+03  0.18694867200E+03  0.72633760962E+02 0.  0.
          5    1    5    5  501    0  0.16281949720E+03  0.28231619504E+02 -0.61016511434E+03  0.63216356251E+03  0.47000000000E+01 0. -1.
        -13    1    6    6    0    0  0.29500983054E+02  0.20145935491E+02 -0.94486309374E+02  0.10101400585E+03  0.00000000000E+00 0.  1.
         14    1    6    6    0    0  0.32358538912E+02 -0.47403321918E+02 -0.63957930528E+02  0.85934666153E+02  0.00000000000E+00 0. -1.
         -5    1    3    3    0  503 -0.95735725445E+02  0.39317502108E+02 -0.69910144299E+03  0.70673623983E+03  0.47000000000E+01 0.  1.
         13    1    4    4    0    0 -0.11459088675E+02 -0.57926225715E+01 -0.16989395331E+03  0.17037846272E+03  0.00000000000E+00 0. -1.
        -14    1    4    4    0    0 -0.11748420505E+03 -0.34499112614E+02 -0.26670945901E+03  0.29347344468E+03  0.00000000000E+00 0.  1.
</event>
<event>
12    1  0.8135779E-002  0.1984082E+03  0.7818608E-02  0.1151320E+00
         21   -1    0    0  501  502  0.00000000000E+00  0.00000000000E+00  0.26682840133E+03  0.26682840133E+03  0.00000000000E+00 0.  1.
         21   -1    0    0  502  503 -0.00000000000E+00 -0.00000000000E+00 -0.14750992193E+03  0.14750992193E+03  0.00000000000E+00 0. -1.
         -6    2    1    2    0  503  0.55830089984E+02  0.80227611751E+02  0.74887157635E+02  0.21207053594E+03  0.17266255298E+03 0.  0.
        -24    2    3    3    0    0  0.45596427727E+02 -0.18111342271E+02  0.11879393411E+02  0.94736201349E+02  0.80167156104E+02 0.  0.
          6    2    1    2  501    0 -0.55830089984E+02 -0.80227611751E+02  0.44431321762E+02  0.20226778733E+03  0.17141950531E+03 0.  0.
         24    2    5    5    0    0 -0.16242010200E+01 -0.13192724120E+02  0.76520432812E+02  0.11016048248E+03  0.78123423273E+02 0.  0.
          5    1    5    5  501    0 -0.54205888964E+02 -0.67034887631E+02 -0.32089111051E+02  0.92107304846E+02  0.47000000000E+01 0. -1.
        -11    1    6    6    0    0 -0.32163990081E+02 -0.22842505782E+02  0.65170749008E+02  0.76180895601E+02  0.00000000000E+00 0.  1.
         12    1    6    6    0    0  0.30539789061E+02  0.96497816614E+01  0.11349683804E+02  0.33979586879E+02  0.00000000000E+00 0. -1.
         -5    1    3    3    0  503  0.10233662257E+02  0.98338954022E+02  0.63007764224E+02  0.11733433459E+03  0.47000000000E+01 0.  1.
         13    1    4    4    0    0 -0.16411114858E+02 -0.10072705867E+02 -0.17162680237E+02  0.25794218098E+02  0.00000000000E+00 0. -1.
        -14    1    4    4    0    0  0.62007542586E+02 -0.80386364036E+01  0.29042073648E+02  0.68941983250E+02  0.00000000000E+00 0.  1.
</event>
<event>
12    1  0.8135779E-002  0.2100761E+03  0.7818608E-02  0.1141526E+00
         21   -1    0    0  503  502  0.00000000000E+00  0.00000000000E+00  0.28208206209E+03  0.28208206209E+03  0.00000000000E+00 0.  1.
         21   -1    0    0  501  503 -0.00000000000E+00 -0.00000000000E+00 -0.27820356171E+03  0.27820356171E+03  0.00000000000E+00 0.  1.
          6    2    1    2  501    0  0.13289107231E+02 -0.12025480360E+03 -0.18344519686E+03  0.27889803868E+03  0.17173863155E+03 0.  0.
         24    2    3    3    0    0  0.60292894684E+02 -0.10637264828E+03 -0.17620040492E+03  0.22913211377E+03  0.80650910825E+02 0.  0.
         -6    2    1    2    0  502 -0.13289107231E+02  0.12025480360E+03  0.18732369724E+03  0.28138758512E+03  0.17161289972E+03 0.  0.
        -24    2    5    5    0    0  0.20241857533E+02  0.14026145569E+03  0.16968055191E+03  0.23828349827E+03  0.88907407455E+02 0.  0.
          5    1    3    3  501    0 -0.47003787453E+02 -0.13882155319E+02 -0.72447919454E+01  0.49765924904E+02  0.47000000000E+01 0. -1.
        -11    1    4    4    0    0  0.19181421219E+02  0.10774766711E+02 -0.32242377955E+02  0.39033235247E+02  0.00000000000E+00 0.  1.
         12    1    4    4    0    0  0.41111473466E+02 -0.11714741499E+03 -0.14395802696E+03  0.19009887853E+03  0.00000000000E+00 0. -1.
         -5    1    5    5    0  502 -0.33530964764E+02 -0.20006652094E+02  0.17643145333E+02  0.43104086851E+02  0.47000000000E+01 0.  1.
         11    1    6    6    0    0  0.45266642539E+02  0.93998639046E+02  0.14871477141E+03  0.18166148823E+03  0.00000000000E+00 0. -1.
        -12    1    6    6    0    0 -0.25024785006E+02  0.46262816648E+02  0.20965780494E+02  0.56622010036E+02  0.00000000000E+00 0.  1.
</event>
<event>
12    1  0.8135779E-002  0.2220646E+03  0.7818608E-02  0.1132764E+00
         21   -1    0    0  501  502  0.00000000000E+00  0.00000000000E+00  0.21869397309E+03  0.21869397309E+03  0.00000000000E+00 0.  1.
         21   -1    0    0  502  503 -0.00000000000E+00 -0.00000000000E+00 -0.23064023646E+03  0.23064023646E+03  0.00000000000E+00 0. -1.
         -6    2    1    2    0  503  0.11494809299E+03  0.75262357241E+02 -0.46247427338E+02  0.22682929618E+03  0.17445692469E+03 0.  0.
        -24    2    3    3    0    0  0.12683027828E+03  0.10522596629E+02 -0.54673927204E+02  0.16030472304E+03  0.80695237688E+02 0.  0.
          6    2    1    2  501    0 -0.11494809299E+03 -0.75262357241E+02  0.34301163960E+02  0.22250491337E+03  0.17162278440E+03 0.  0.
         24    2    5    5    0    0 -0.11372141217E+03 -0.11457153469E+03  0.21485055666E+02  0.18087489043E+03  0.78707828228E+02 0.  0.
          5    1    5    5  501    0 -0.12266808131E+01  0.39309177449E+02  0.12816108294E+02  0.41630022933E+02  0.47000000000E+01 0. -1.
        -11    1    6    6    0    0 -0.87750614612E+02 -0.67218580878E+02  0.48238312245E+02  0.12060448892E+03  0.00000000000E+00 0.  1.
         12    1    6    6    0    0 -0.25970797562E+02 -0.47352953812E+02 -0.26753256579E+02  0.60270401511E+02  0.00000000000E+00 0. -1.
         -5    1    3    3    0  503 -0.11882185294E+02  0.64739760612E+02  0.84264998661E+01  0.66524573140E+02  0.47000000000E+01 0.  1.
         11    1    4    4    0    0  0.79910751743E+02  0.45518969033E+02 -0.37353647193E+02  0.99262277551E+02  0.00000000000E+00 0. -1.
        -12    1    4    4    0    0  0.46919526539E+02 -0.34996372405E+02 -0.17320280011E+02  0.61042445493E+02  0.00000000000E+00 0.  1.
</event>
<event>
12    1  0.8135779E-002  0.1856239E+03  0.7818608E-02  0.1162483E+00
         21   -1    0    0  503  502  0.00000000000E+00  0.00000000000E+00  0.12114066804E+04  0.12114066804E+04  0.00000000000E+00 0. -1.
         21   -1    0    0  501  503 -0.00000000000E+00 -0.00000000000E+00 -0.60070434674E+02  0.60070434674E+02  0.00000000000E+00 0. -1.
          6    2    1    2  501    0 -0.21516863729E+02 -0.66548696912E+02  0.11425976419E+03  0.21791939943E+03  0.17187747511E+03 0.  0.
         24    2    3    3    0    0 -0.16834099820E+02  0.14990040427E+02  0.67674275938E+01  0.82837252606E+02  0.79423699954E+02 0.  0.
         -6    2    1    2    0  502  0.21516863729E+02  0.66548696912E+02  0.10370764816E+04  0.10535577157E+04  0.17194338355E+03 0.  0.
        -24    2    5    5    0    0  0.49148093112E+02  0.49443500072E+01  0.83639139496E+03  0.84176731366E+03  0.81127449990E+02 0.  0.
          5    1    3    3  501    0 -0.46827639089E+01 -0.81538737338E+02  0.10749233660E+03  0.13508214683E+03  0.47000000000E+01 0. -1.
        -11    1    4    4    0    0  0.17926009676E+02 -0.28741360405E+01  0.31663667270E+02  0.36499182263E+02  0.00000000000E+00 0.  1.
         12    1    4    4    0    0 -0.34760109496E+02  0.17864176467E+02 -0.24896239677E+02  0.46338070343E+02  0.00000000000E+00 0. -1.
         -5    1    5    5    0  502 -0.27631229383E+02  0.61604346905E+02  0.20068508660E+03  0.21179040200E+03  0.47000000000E+01 0.  1.
         13    1    6    6    0    0 -0.17992380299E+02  0.96788007755E+01  0.36776392417E+03  0.36833097732E+03  0.00000000000E+00 0. -1.
        -14    1    6    6    0    0  0.67140473412E+02 -0.47344507683E+01  0.46862747079E+03  0.47343633634E+03  0.00000000000E+00 0.  1.
</event>
<event>
12    1  0.8135779E-002  0.1832062E+03  0.7818608E-02  0.1164743E+00
         21   -1    0    0  501  502  0.00000000000E+00  0.00000000000E+00  0.43049130406E+03  0.43049130406E+03  0.00000000000E+00 0. -1.
         21   -1    0    0  502  503 -0.00000000000E+00 -0.00000000000E+00 -0.12587809979E+03  0.12587809979E+03  0.00000000000E+00 0. -1.
         -6    2    1    2    0  503 -0.16833910118E+02 -0.61973228535E+02 -0.19331146296E+02  0.18422327035E+03  0.17158222093E+03 0.  0.
        -24    2    3    3    0    0  0.25831398863E+01  0.21659116972E+02 -0.45469278216E+02  0.94352902679E+02  0.79744749186E+02 0.  0.
          6    2    1    2  501    0  0.16833910118E+02  0.61973228535E+02  0.32394435057E+03  0.37214613350E+03  0.17154807148E+03 0.  0.
         24    2    5    5    0    0 -0.14204979316E+02  0.30843554541E+02  0.62640348397E+02  0.10712850991E+03  0.79997488053E+02 0.  0.
          5    1    5    5  501    0  0.31038889433E+02  0.31129673994E+02  0.26130400217E+03  0.26501762358E+03  0.47000000000E+01 0. -1.
        -13    1    6    6    0    0  0.12341087032E+02  0.44506948342E+02  0.61940281842E+02  0.77264282786E+02  0.00000000000E+00 0.  1.
         14    1    6    6    0    0 -0.26546066348E+02 -0.13663393801E+02  0.70006655499E+00  0.29864227126E+02  0.00000000000E+00 0. -1.
         -5    1    3    3    0  503 -0.19417050004E+02 -0.83632345507E+02  0.26138131920E+02  0.89870367676E+02  0.47000000000E+01 0.  1.
         13    1    4    4    0    0  0.35380215853E+02 -0.92956002526E+01 -0.27679157061E+02  0.45872688971E+02  0.00000000000E+00 0. -1.
        -14    1    4    4    0    0 -0.32797075967E+02  0.30954717225E+02 -0.17790121155E+02  0.48480213707E+02  0.00000000000E+00 0.  1.
</event>
<event>
12    1  0.8135779E-002  0.2865201E+03  0.7818608E-02  0.1092366E+00
         21   -1    0    0  503  502  0.00000000000E+00  0.00000000000E+00  0.22383226632E+03  0.22383226632E+03  0.00000000000E+00 0.  1.
         21   -1    0    0  501  503 -0.00000000000E+00 -0.00000000000E+00 -0.76936477687E+03  0.76936477687E+03  0.00000000000E+00 0. -1.
          6    2    1    2  501    0  0.14625607097E+03  0.17509157184E+03 -0.63311159041E+03  0.69492736282E+03  0.17333740757E+03 0.  0.
         24    2    3    3    0    0  0.11985753801E+02  0.36578466095E+02 -0.24173830153E+03  0.25856794699E+03  0.83296664450E+02 0.  0.
         -6    2    1    2    0  502 -0.14625607097E+03 -0.17509157184E+03  0.87579079862E+02  0.29826968037E+03  0.17101698798E+03 0.  0.
        -24    2    5    5    0    0 -0.17533996389E+03 -0.13179387372E+03  0.67859123138E+02  0.24230960369E+03  0.77429680078E+02 0.  0.
          5    1    3    3  501    0  0.13427031717E+03  0.13851310574E+03 -0.39137328889E+03  0.43635941583E+03  0.47000000000E+01 0. -1.
        -13    1    4    4    0    0 -0.33524283414E+02  0.13490533757E+02 -0.14208196862E+03  0.14660544972E+03  0.00000000000E+00 0.  1.
         14    1    4    4    0    0  0.45510037214E+02  0.23087932339E+02 -0.99656332902E+02  0.11196249727E+03  0.00000000000E+00 0. -1.
         -5    1    5    5    0  502  0.29083892924E+02 -0.43297698115E+02  0.19719956724E+02  0.55960076688E+02  0.47000000000E+01 0.  1.
         11    1    6    6    0    0 -0.13233334778E+03 -0.99057985892E+02  0.84647173249E+02  0.18571414444E+03  0.00000000000E+00 0. -1.
        -12    1    6    6    0    0 -0.43006616111E+02 -0.32735887827E+02 -0.16788050111E+02  0.56595459250E+02  0.00000000000E+00 0.  1.
</event>
<event>
12    1  0.8135779E-002  0.1751553E+03  0.7818608E-02  0.1172871E+00
         21   -1    0    0  501  502  0.00000000000E+00  0.00000000000E+00  0.18810187219E+03  0.18810187219E+03  0.00000000000E+00 0.  1.
         21   -1    0    0  502  503 -0.00000000000E+00 -0.00000000000E+00 -0.17540408540E+03  0.17540408540E+03  0.00000000000E+00 0.  1.
         -6    2    1    2    0  503  0.27707697785E+01 -0.30600956021E+02 -0.43855066490E+02  0.18056207211E+03  0.17243926279E+03 0.  0.
        -24    2    3    3    0    0  0.54575998991E+02 -0.24389587070E+02  0.22269177113E+02  0.96200537804E+02  0.72008580052E+02 0.  0.
          6    2    1    2  501    0 -0.27707697785E+01  0.30600956021E+02  0.56552853283E+02  0.18294388548E+03  0.17124877911E+03 0.  0.
         24    2    5    5    0    0  0.41451649822E+02 -0.31615142317E+02  0.49558879536E+02  0.10614889244E+03  0.78062464272E+02 0.  0.
          5    1    5    5  501    0 -0.44222419600E+02  0.62216098338E+02  0.69939737475E+01  0.76794993043E+02  0.47000000000E+01 0. -1.
        -11    1    6    6    0    0 -0.90991962650E+00 -0.17264933503E+02  0.58097124697E+02  0.60615029329E+02  0.00000000000E+00 0.  1.
         12    1    6    6    0    0  0.42361569448E+02 -0.14350208814E+02 -0.85382451607E+01  0.45533863108E+02  0.00000000000E+00 0. -1.
         -5    1    3    3    0  503 -0.51805229213E+02 -0.62113689511E+01 -0.66124243604E+02  0.84361534304E+02  0.47000000000E+01 0.  1.
         11    1    4    4    0    0 -0.15742901338E+02  0.61743935005E+01  0.37227283439E+01  0.17315333781E+02  0.00000000000E+00 0. -1.
        -12    1    4    4    0    0  0.70318900329E+02 -0.30563980570E+02  0.18546448770E+02  0.78885204023E+02  0.00000000000E+00 0.  1.
</event>
<event>
12    1  0.8135779E-002  0.1740776E+03  0.7818608E-02  0.1178369E+00
         21   -1    0    0  503  502  0.00000000000E+00  0.00000000000E+00  0.33916721863E+03  0.33916721863E+03  0.00000000000E+00 0. -1.
         21   -1    0    0  501  503 -0.00000000000E+00 -0.00000000000E+00 -0.99478433694E+02  0.99478433694E+02  0.00000000000E+00 0. -1.
          6    2    1    2  501    0 -0.31374708346E+02  0.63778859860E+01  0.29429891020E+02  0.17654781358E+03  0.17110804260E+03 0.  0.
         24    2    3    3    0    0 -0.66100024458E+02  0.46307697456E+02  0.41781911248E+02  0.12200517130E+03  0.81399739800E+02 0.  0.
         -6    2    1    2    0  502  0.31374708346E+02 -0.63778859860E+01  0.21025889391E+03  0.26209783874E+03  0.15317122723E+03 0.  0.
        -24    2    5    5    0    0  0.23987757548E+02  0.49675922980E+01  0.35829404511E+02  0.87080629038E+02  0.75493047631E+02 0.  0.
          5    1    3    3  501    0  0.34725316112E+02 -0.39929811470E+02 -0.12352020228E+02  0.54542642279E+02  0.47000000000E+01 0. -1.
        -13    1    4    4    0    0  0.15385872833E+02  0.26623223697E+02  0.12797203175E+02  0.33305998438E+02  0.00000000000E+00 0.  1.
         14    1    4    4    0    0 -0.81485897290E+02  0.19684473759E+02  0.28984708073E+02  0.88699172862E+02  0.00000000000E+00 0. -1.
         -5    1    5    5    0  502  0.73869507982E+01 -0.11345478284E+02  0.17442948940E+03  0.17501720970E+03  0.47000000000E+01 0.  1.
         11    1    6    6    0    0  0.44237588931E+02  0.24284425661E+02  0.29261336502E+02  0.58334581665E+02  0.00000000000E+00 0. -1.
        -12    1    6    6    0    0 -0.20249831383E+02 -0.19316833363E+02  0.65680680092E+01  0.28746047373E+02  0.00000000000E+00 0.  1.
</event>
<event>
12    1  0.8135779E-002  0.1867412E+03  0.7818608E-02  0.1161569E+00
         21   -1    0    0  503  502  0.00000000000E+00  0.00000000000E+00  0.15047128946E+03  0.15047128946E+03  0.00000000000E+00 0. -1.
         21   -1    0    0  501  503 -0.00000000000E+00 -0.00000000000E+00 -0.32972994328E+03  0.32972994328E+03  0.00000000000E+00 0. -1.
          6    2    1    2  501    0 -0.73339821586E+02 -0.23557724898E+01  0.41635208607E+02  0.19132636010E+03  0.17172072205E+03 0.  0.
         24    2    3    3    0    0 -0.92694591286E+02 -0.19551983344E+02 -0.19290250242E+02  0.12496132176E+03  0.79174812132E+02 0.  0.
         -6    2    1    2    0  502  0.73339821586E+02  0.23557724898E+01 -0.22089386243E+03  0.28887487263E+03  0.17108569340E+03 0.  0.
        -24    2    5    5    0    0  0.21021569485E+02  0.27013635651E+02 -0.21379113513E+03  0.23041336005E+03  0.78816395079E+02 0.  0.
          5    1    3    3  501    0  0.19354769700E+02  0.17196210854E+02  0.60925458849E+02  0.66365038339E+02  0.47000000000E+01 0. -1.
        -11    1    4    4    0    0 -0.93006003883E+02 -0.34860042898E+01 -0.37795676514E+02  0.10045288521E+03  0.00000000000E+00 0.  1.
         12    1    4    4    0    0  0.31141259623E+00 -0.16065979054E+02  0.18505426272E+02  0.24508436553E+02  0.00000000000E+00 0. -1.
         -5    1    5    5    0  502  0.52318252101E+02 -0.24657863161E+02 -0.71027272949E+01  0.58461512584E+02  0.47000000000E+01 0.  1.
         13    1    6    6    0    0  0.57089455868E+01 -0.28005598653E+02 -0.79557702099E+02  0.84535989844E+02  0.00000000000E+00 0. -1.
        -14    1    6    6    0    0  0.15312623898E+02  0.55019234304E+02 -0.13423343303E+03  0.14587737021E+03  0.00000000000E+00 0.  1.
</event>
<event>
12    1  0.8135779E-002  0.1829050E+03  0.7818608E-02  0.1165038E+00
         21   -1    0    0  501  502  0.00000000000E+00  0.00000000000E+00  0.15568949353E+03  0.15568949353E+03  0.00000000000E+00 0.  1.
         21   -1    0    0  502  503 -0.00000000000E+00 -0.00000000000E+00 -0.29485046064E+03  0.29485046064E+03  0.00000000000E+00 0.  1.
         -6    2    1    2    0  503 -0.28307808850E+02 -0.54474706755E+02 -0.18697364856E+03  0.26155955080E+03  0.17229459551E+03 0.  0.
        -24    2    3    3    0    0 -0.18496182672E+02 -0.58018888583E+02 -0.29838255880E+02  0.10400812787E+03  0.78861073693E+02 0.  0.
          6    2    1    2  501    0  0.28307808850E+02  0.54474706755E+02  0.47812681451E+02  0.18898040337E+03  0.17221705674E+03 0.  0.
         24    2    5    5    0    0  0.52018715810E+02  0.65931528202E+02  0.85098890952E+02  0.14309121853E+03  0.78615280782E+02 0.  0.
          5    1    5    5  501    0 -0.23710906960E+02 -0.11456821447E+02 -0.37286209500E+02  0.45889184842E+02  0.47000000000E+01 0. -1.
        -13    1    6    6    0    0  0.63624894907E+02  0.26874252679E+02  0.31892299551E+02  0.76075432826E+02  0.00000000000E+00 0.  1.
         14    1    6    6    0    0 -0.11606179097E+02  0.39057275523E+02  0.53206591400E+02  0.67015785700E+02  0.00000000000E+00 0. -1.
         -5    1    3    3    0  503 -0.98116261779E+01  0.35441818278E+01 -0.15713539268E+03  0.15755142293E+03  0.47000000000E+01 0.  1.
         13    1    4    4    0    0  0.24410721150E+02 -0.42854998768E+02 -0.31411643804E+02  0.58473289569E+02  0.00000000000E+00 0. -1.
        -14    1    4    4    0    0 -0.42906903822E+02 -0.15163889814E+02  0.15733879247E+01  0.45534838305E+02  0.00000000000E+00 0.  1.
</event>
<event>
12    1  0.8135779E-002  0.2123364E+03  0.7818608E-02  0.1139837E+00
         21   -1    0    0  503  502  0.00000000000E+00  0.00000000000E+00  0.82111138421E+02  0.82111138421E+02  0.00000000000E+00 0.  1.
         21   -1    0    0  501  503 -0.00000000000E+00 -0.00000000000E+00 -0.66219463385E+03  0.66219463385E+03  0.00000000000E+00 0. -1.
          6    2    1    2  501    0 -0.45362611497E+02  0.11481522955E+03 -0.44512237858E+03  0.49317407288E+03  0.17276119587E+03 0.  0.
         24    2    3    3    0    0 -0.39680435849E+02  0.15133626066E+03 -0.36154522416E+03  0.40166831583E+03  0.78391874892E+02 0.  0.
         -6    2    1    2    0  502  0.45362611497E+02 -0.11481522955E+03 -0.13496111685E+03  0.25113169938E+03  0.17208231727E+03 0.  0.
        -24    2    5    5    0    0  0.73831689346E+02 -0.14416682018E+02 -0.68116012651E+02  0.12711268998E+03  0.76543358309E+02 0.  0.
          5    1    3    3  501    0 -0.56821756482E+01 -0.36521031115E+02 -0.83577154420E+02  0.91505757058E+02  0.47000000000E+01 0. -1.
        -13    1    4    4    0    0 -0.27938205978E+02  0.74217442051E+02 -0.94000266753E+02  0.12298301593E+03  0.00000000000E+00 0.  1.
         14    1    4    4    0    0 -0.11742229871E+02  0.77118818609E+02 -0.26754495740E+03  0.27868529990E+03  0.00000000000E+00 0. -1.
         -5    1    5    5    0  502 -0.28469077849E+02 -0.10039854753E+03 -0.66845104199E+02  0.12401900941E+03  0.47000000000E+01 0.  1.
         11    1    6    6    0    0 -0.15364060178E+02  0.47438628839E+01 -0.10859547702E+02  0.19403307875E+02  0.00000000000E+00 0. -1.
        -12    1    6    6    0    0  0.89195749524E+02 -0.19160544902E+02 -0.57256464948E+02  0.10770938210E+03  0.00000000000E+00 0.  1.
</event>
<event>
12    1  0.8135779E-002  0.2209923E+03  0.7818608E-02  0.1135235E+00
         21   -1    0    0  501  502  0.00000000000E+00  0.00000000000E+00  0.19678507594E+03  0.19678507594E+03  0.00000000000E+00 0.  1.
         21   -1    0    0  502  503 -0.00000000000E+00 -0.00000000000E+00 -0.28317203692E+03  0.28317203692E+03  0.00000000000E+00 0. -1.
         -6    2    1    2    0  503 -0.13304346717E+03  0.44734931862E+02 -0.14202542346E+03  0.26269530095E+03  0.17069218480E+03 0.  0.
        -24    2    3    3    0    0 -0.15199480867E+03  0.21807359843E+02 -0.75016626820E+02  0.18923037238E+03  0.81256733436E+02 0.  0.
          6    2    1    2  501    0  0.13304346717E+03 -0.44734931862E+02  0.55638462473E+02  0.21726181191E+03  0.15622188746E+03 0.  0.
         24    2    5    5    0    0  0.93574164892E+01 -0.19168613125E+02  0.38424743937E+02  0.89706812428E+02  0.78203927503E+02 0.  0.
          5    1    5    5  501    0  0.12368605068E+03 -0.25566318736E+02  0.17213718536E+02  0.12755499948E+03  0.47000000000E+01 0. -1.
        -13    1    6    6    0    0  0.13371833307E+02 -0.43656132103E+02  0.44926174322E+02  0.64054858796E+02  0.00000000000E+00 0.  1.
         14    1    6    6    0    0 -0.40144168173E+01  0.24487518978E+02 -0.65014303846E+01  0.25651953632E+02  0.00000000000E+00 0. -1.
         -5    1    3    3    0  503  0.18951341499E+02  0.22927572018E+02 -0.67008796635E+02  0.73464928570E+02  0.47000000000E+01 0.  1.
         11    1    4    4    0    0 -0.10927539909E+03 -0.85419943590E+01 -0.81276898390E+02  0.13645516746E+03  0.00000000000E+00 0. -1.
        -12    1    4    4    0    0 -0.42719409575E+02  0.30349354202E+02  0.62602715698E+01  0.52775204927E+02  0.00000000000E+00 0.  1.
</event>
<event>
12    1  0.8135779E-002  0.1750224E+03  0.7818608E-02  0.1172834E+00
         21   -1    0    0  501  502  0.00000000000E+00  0.00000000000E+00  0.54806026596E+03  0.54806026596E+03  0.00000000000E+00 0. -1.
         21   -1    0    0  502  503 -0.00000000000E+00 -0.00000000000E+00 -0.56765890139E+02  0.56765890139E+02  0.00000000000E+00 0. -1.
         -6    2    1    2    0  503 -0.30781950564E+02  0.23850706533E+01  0.20523736346E+03  0.26973175172E+03  0.17227775678E+03 0.  0.
        -24    2    3    3    0    0 -0.31871893865E+02  0.11306831371E+02  0.30232879940E+02  0.94433591304E+02  0.82825201980E+02 0.  0.
          6    2    1    2  501    0  0.30781950564E+02 -0.23850706533E+01  0.28605701236E+03  0.33509440439E+03  0.17177435340E+03 0.  0.
         24    2    5    5    0    0 -0.43096561894E+02  0.20817026076E+02  0.18863139425E+03  0.21055439892E+03  0.80378416187E+02 0.  0.
          5    1    5    5  501    0  0.73878512458E+02 -0.23202096730E+02  0.97425618116E+02  0.12454000546E+03  0.47000000000E+01 0. -1.
        -13    1    6    6    0    0 -0.36064192612E+02 -0.21747442753E+02  0.50038054777E+02  0.65401713898E+02  0.00000000000E+00 0.  1.
         14    1    6    6    0    0 -0.70323692823E+01  0.42564468830E+02  0.13859333947E+03  0.14515268502E+03  0.00000000000E+00 0. -1.
         -5    1    3    3    0  503  0.10899433011E+01 -0.89217607179E+01  0.17500448352E+03  0.17529816041E+03  0.47000000000E+01 0.  1.
         13    1    4    4    0    0  0.74879327390E+01 -0.26832984374E+02  0.28123844917E+02  0.39585715100E+02  0.00000000000E+00 0. -1.
        -14    1    4    4    0    0 -0.39359826604E+02  0.38139815745E+02  0.21090350240E+01  0.54847876204E+02  0.00000000000E+00 0.  1.
</event>
<event>
12    1  0.8135779E-002  0.2282255E+03  0.7818608E-02  0.1127930E+00
         21   -1    0    0  501  502  0.00000000000E+00  0.00000000000E+00  0.35962791606E+03  0.35962791606E+03  0.00000000000E+00 0.  1.
         21   -1    0    0  502  503 -0.00000000000E+00 -0.00000000000E+00 -0.15577422062E+03  0.15577422062E+03  0.00000000000E+00 0.  1.
         -6    2    1    2    0  503 -0.14941561189E+03  0.35990336742E+01  0.17056307205E+03  0.28476139459E+03  0.17221879160E+03 0.  0.
        -24    2    3    3    0    0 -0.74770876021E+01  0.11633543398E+02  0.34827523744E+02  0.88146728049E+02  0.79784980319E+02 0.  0.
          6    2    1    2  501    0  0.14941561189E+03 -0.35990336742E+01  0.33290623386E+02  0.23064074208E+03  0.17247871806E+03 0.  0.
         24    2    5    5    0    0  0.51306922465E+02 -0.42179597596E+02  0.62167410464E+02  0.12123446399E+03  0.80134197380E+02 0.  0.
          5    1    5    5  501    0  0.98108689427E+02  0.38580563922E+02 -0.28876787078E+02  0.10940627809E+03  0.47000000000E+01 0. -1.
        -11    1    6    6    0    0  0.47669580995E+00 -0.46987055315E+02  0.50265240738E+02  0.68808466285E+02  0.00000000000E+00 0.  1.
         12    1    6    6    0    0  0.50830226656E+02  0.48074577182E+01  0.11902169726E+02  0.52425997709E+02  0.00000000000E+00 0. -1.
         -5    1    3    3    0  503 -0.14193852429E+03 -0.80345097237E+01  0.13573554831E+03  0.19661466654E+03  0.47000000000E+01 0.  1.
         13    1    4    4    0    0  0.13959466769E+02  0.38200583636E+02  0.18974740680E+01  0.40715497178E+02  0.00000000000E+00 0. -1.
        -14    1    4    4    0    0 -0.21436554371E+02 -0.26567040238E+02  0.32930049676E+02  0.47431230871E+02  0.00000000000E+00 0.  1.
</event>
<event>
12    1  0.8135779E-002  0.1942550E+03  0.7818608E-02  0.1154950E+00
         21   -1    0    0  503  502  0.00000000000E+00  0.00000000000E+00  0.20750917734E+04  0.20750917734E+04  0.00000000000E+00 0.  1.
         21   -1    0    0  501  503 -0.00000000000E+00 -0.00000000000E+00 -0.25605302949E+02  0.25605302949E+02  0.00000000000E+00 0.  1.
          6    2    1    2  501    0 -0.90321932408E+02  0.94251854287E+01  0.45261195569E+03  0.49205068112E+03  0.17032147477E+03 0.  0.
         24    2    3    3    0    0 -0.12619756279E+03  0.48225162391E+01  0.30052083454E+03  0.33564721393E+03  0.79982490004E+02 0.  0.
         -6    2    1    2    0  502  0.90321932408E+02 -0.94251854287E+01  0.15968745148E+04  0.16086463952E+04  0.17172106272E+03 0.  0.
        -24    2    5    5    0    0  0.64633327951E+02  0.59670933128E+02  0.97269748474E+03  0.98011379241E+03  0.82125281760E+02 0.  0.
          5    1    3    3  501    0  0.35875630382E+02  0.46026691895E+01  0.15209112115E+03  0.15640346719E+03  0.47000000000E+01 0. -1.
        -13    1    4    4    0    0 -0.32077731568E+02 -0.31873530151E+01  0.16263432192E+02  0.36105945610E+02  0.00000000000E+00 0.  1.
         14    1    4    4    0    0 -0.94119831223E+02  0.80098692542E+01  0.28425740235E+03  0.29954126832E+03  0.00000000000E+00 0. -1.
         -5    1    5    5    0  502  0.25688604458E+02 -0.69096118557E+02  0.62417703001E+03  0.62853260281E+03  0.47000000000E+01 0.  1.
         11    1    6    6    0    0  0.24397212896E+02  0.72242153883E+02  0.70594938452E+03  0.71005541073E+03  0.00000000000E+00 0. -1.
        -12    1    6    6    0    0  0.40236115055E+02 -0.12571220755E+02  0.26674810022E+03  0.27005838168E+03  0.00000000000E+00 0.  1.
</event>
<event>
12    1  0.8135779E-002  0.1873426E+03  0.7818608E-02  0.1160931E+00
         21   -1    0    0  501  502  0.00000000000E+00  0.00000000000E+00  0.11456483863E+03  0.11456483863E+03  0.00000000000E+00 0.  1.
         21   -1    0    0  502  503 -0.00000000000E+00 -0.00000000000E+00 -0.69945391075E+03  0.69945391075E+03  0.00000000000E+00 0.  1.
         -6    2    1    2    0  503  0.71502336939E+02 -0.21155527772E+02 -0.59778672440E+03  0.62645529211E+03  0.17186368026E+03 0.  0.
        -24    2    3    3    0    0  0.29456930386E+02  0.21515452004E+02 -0.52489354344E+03  0.53198765448E+03  0.78530294499E+02 0.  0.
          6    2    1    2  501    0 -0.71502336939E+02  0.21155527772E+02  0.12897652277E+02  0.18756345728E+03  0.17162039660E+03 0.  0.
         24    2    5    5    0    0 -0.91389863534E+02  0.17820516130E+02 -0.41107059906E+02  0.12972545113E+03  0.80431488520E+02 0.  0.
          5    1    5    5  501    0  0.19887526595E+02  0.33350116426E+01  0.54004712183E+02  0.57838006144E+02  0.47000000000E+01 0. -1.
        -11    1    6    6    0    0 -0.32542938527E+02  0.24318821777E+02  0.19444850275E+02  0.45039428758E+02  0.00000000000E+00 0.  1.
         12    1    6    6    0    0 -0.58846925007E+02 -0.64983056471E+01 -0.60551910181E+02  0.84686022375E+02  0.00000000000E+00 0. -1.
         -5    1    3    3    0  503  0.42045406554E+02 -0.42670979776E+02 -0.72893180960E+02  0.94467637621E+02  0.47000000000E+01 0.  1.
         13    1    4    4    0    0  0.41694568416E+02 -0.91522202350E+01 -0.15977470233E+03  0.16537882474E+03  0.00000000000E+00 0. -1.
        -14    1    4    4    0    0 -0.12237638030E+02  0.30667672239E+02 -0.36511884112E+03  0.36660882974E+03  0.00000000000E+00 0.  1.
</event>
<event>
12    1  0.8135779E-002  0.2419850E+03  0.7818608E-02  0.1118774E+00
         21   -1    0    0  503  502  0.00000000000E+00  0.00000000000E+00  0.24017628482E+03  0.24017628482E+03  0.00000000000E+00 0.  1.
         21   -1    0    0  501  503 -0.00000000000E+00 -0.00000000000E+00 -0.35448172098E+03  0.35448172098E+03  0.00000000000E+00 0.  1.
          6    2    1    2  501    0  0.14388771507E+03 -0.85483684918E+02  0.11047491119E+03  0.26438096644E+03  0.17228306497E+03 0.  0.
         24    2    3    3    0    0  0.11282192122E+03 -0.39021151994E+02  0.37943550819E+01  0.14385428240E+03  0.80176188639E+02 0.  0.
         -6    2    1    2    0  502 -0.14388771507E+03  0.85483684918E+02 -0.22478034734E+03  0.33027703936E+03  0.17477294769E+03 0.  0.
        -24    2    5    5    0    0 -0.98957210696E+02 -0.16275893711E+02 -0.12046483957E+03  0.17770713005E+03  0.83729398855E+02 0.  0.
          5    1    3    3  501    0  0.31065793855E+02 -0.46462532924E+02  0.10668055610E+03  0.12052668403E+03  0.47000000000E+01 0. -1.
        -11    1    4    4    0    0  0.43089799148E+02 -0.11906526234E+02  0.40675249812E+02  0.60439822178E+02  0.00000000000E+00 0.  1.
         12    1    4    4    0    0  0.69732122069E+02 -0.27114625760E+02 -0.36880894730E+02  0.83414460224E+02  0.00000000000E+00 0. -1.
         -5    1    5    5    0  502 -0.44930504376E+02  0.10175957863E+03 -0.10431550778E+03  0.15256990932E+03  0.47000000000E+01 0.  1.
         11    1    6    6    0    0 -0.38939098751E+02  0.14720895655E+02 -0.24171561138E+01  0.41698930731E+02  0.00000000000E+00 0. -1.
        -12    1    6    6    0    0 -0.60018111945E+02 -0.30996789366E+02 -0.11804768345E+03  0.13600819932E+03  0.00000000000E+00 0.  1.
</event>
<event>
12    1  0.8135779E-002  0.2061293E+03  0.7818608E-02  0.1145701E+00
         21   -1    0    0  501  502  0.00000000000E+00  0.00000000000E+00  0.53591317770E+03  0.53591317770E+03  0.00000000000E+00 0. -1.
         21   -1    0    0  502  503 -0.00000000000E+00 -0.00000000000E+00 -0.81935077305E+02  0.81935077305E+02  0.00000000000E+00 0. -1.
         -6    2    1    2    0  503  0.37573787059E+02 -0.10815932070E+03  0.30261002632E+03  0.36614493322E+03  0.17140319707E+03 0.  0.
        -24    2    3    3    0    0  0.75150964592E+02 -0.99457103043E+02  0.28819510048E+03  0.32470035637E+03  0.82671171869E+02 0.  0.
          6    2    1    2  501    0 -0.37573787059E+02  0.10815932070E+03  0.15136807408E+03  0.25170332179E+03  0.16532404610E+03 0.  0.
         24    2    5    5    0    0  0.20732792669E+02  0.10791761457E+03  0.72183722682E+02  0.15325553274E+03  0.78744576132E+02 0.  0.
          5    1    5    5  501    0 -0.58306579729E+02  0.24170613247E+00  0.79184351399E+02  0.98447789046E+02  0.47000000000E+01 0. -1.
        -13    1    6    6    0    0 -0.20334683540E+02  0.19268172614E+02  0.42945405209E+02  0.51274454255E+02  0.00000000000E+00 0.  1.
         14    1    6    6    0    0  0.41067476209E+02  0.88649441955E+02  0.29238317472E+02  0.10198107849E+03  0.00000000000E+00 0. -1.
         -5    1    3    3    0  503 -0.37577177533E+02 -0.87022176587E+01  0.14414925837E+02  0.41444576852E+02  0.47000000000E+01 0.  1.
         13    1    4    4    0    0 -0.11750237013E+02 -0.20740440053E+02  0.10132157223E+03  0.10408791920E+03  0.00000000000E+00 0. -1.
        -14    1    4    4    0    0  0.86901201606E+02 -0.78716662990E+02  0.18687352825E+03  0.22061243717E+03  0.00000000000E+00 0.  1.
</event>
<event>
12    1  0.8135779E-002  0.2239892E+03  0.7818608E-02  0.1131194E+00
         21   -1    0    0  503  502  0.00000000000E+00  0.00000000000E+00  0.29200343885E+04  0.29200343885E+04  0.00000000000E+00 0.  1.
         21   -1    0    0  501  503 -0.00000000000E+00 -0.00000000000E+00 -0.20673748856E+02  0.20673748856E+02  0.00000000000E+00 0.  1.
          6    2    1    2  501    0  0.11832065498E+02 -0.14155787645E+03  0.84004662425E+03  0.86939604015E+03  0.17318346792E+03 0.  0.
         24    2    3    3    0    0  0.19834021637E+01 -0.25884380603E+02  0.56285659203E+03  0.56884029196E+03  0.78088408356E+02 0.  0.
         -6    2    1    2    0  502 -0.11832065498E+02  0.14155787645E+03  0.20593140154E+04  0.20713120972E+04  0.17140875084E+03 0.  0.
        -24    2    5    5    0    0 -0.65267740690E+02  0.52647594586E+02  0.91588738226E+03  0.92318015140E+03  0.79876453186E+02 0.  0.
          5    1    3    3  501    0  0.98486633344E+01 -0.11567349585E+03  0.27719003222E+03  0.30055574820E+03  0.47000000000E+01 0. -1.
        -13    1    4    4    0    0 -0.24339208040E+02  0.16465773291E+02  0.13978782310E+03  0.14284311053E+03  0.00000000000E+00 0.  1.
         14    1    4    4    0    0  0.26322610204E+02 -0.42350153894E+02  0.42306876893E+03  0.42599718143E+03  0.00000000000E+00 0. -1.
         -5    1    5    5    0  502  0.53435675192E+02  0.88910281865E+02  0.11434266332E+04  0.11481319458E+04  0.47000000000E+01 0.  1.
         13    1    6    6    0    0 -0.30571923816E+02  0.52189953853E+02  0.28541221085E+03  0.29175085932E+03  0.00000000000E+00 0. -1.
        -14    1    6    6    0    0 -0.34695816873E+02  0.45764073317E+00  0.63047517141E+03  0.63142929208E+03  0.00000000000E+00 0.  1.
</event>
<event>
12    1  0.8135779E-002  0.1747849E+03  0.7818608E-02  0.1174834E+00
         21   -1    0    0  501  502  0.00000000000E+00  0.00000000000E+00  0.11705180905E+03  0.11705180905E+03  0.00000000000E+00 0.  1.
         21   -1    0    0  502  503 -0.00000000000E+00 -0.00000000000E+00 -0.49262993333E+03  0.49262993333E+03  0.00000000000E+00 0.  1.
         -6    2    1    2    0  503 -0.22085577754E+02 -0.20244494232E+02 -0.39958705751E+03  0.43325557658E+03  0.16475122403E+03 0.  0.
        -24    2    3    3    0    0 -0.22708378618E+02 -0.19559662124E+01 -0.85864547512E+02  0.11896468996E+03  0.79122567411E+02 0.  0.
          6    2    1    2  501    0  0.22085577754E+02  0.20244494232E+02  0.24008933225E+02  0.17642616579E+03  0.17219799886E+03 0.  0.
         24    2    5    5    0    0  0.33640103522E+02  0.10797318560E+02 -0.49369672409E+02  0.10139773146E+03  0.81215126289E+02 0.  0.
          5    1    5    5  501    0 -0.11554525767E+02  0.94471756721E+01  0.73378605634E+02  0.75028434334E+02  0.47000000000E+01 0. -1.
        -13    1    6    6    0    0  0.60576034536E+02  0.53752425641E+01 -0.37658335580E+02  0.71529710131E+02  0.00000000000E+00 0.  1.
         14    1    6    6    0    0 -0.26935931014E+02  0.54220759954E+01 -0.11711336829E+02  0.29868021328E+02  0.00000000000E+00 0. -1.
         -5    1    3    3    0  503  0.62280086368E+00 -0.18288528019E+02 -0.31372251000E+03  0.31429088663E+03  0.47000000000E+01 0.  1.
         11    1    4    4    0    0 -0.11993536121E+02 -0.39883156274E+02 -0.54526988771E+02  0.68612707041E+02  0.00000000000E+00 0. -1.
        -12    1    4    4    0    0 -0.10714842497E+02  0.37927190061E+02 -0.31337558741E+02  0.50351982915E+02  0.00000000000E+00 0.  1.
</event>
<event>
12    1  0.8135779E-002  0.1749116E+03  0.7818608E-02  0.1172839E+00
         21   -1    0    0  503  502  0.00000000000E+00  0.00000000000E+00  0.22842377177E+03  0.22842377177E+03  0.00000000000E+00 0. -1.
         21   -1    0    0  501  503 -0.00000000000E+00 -0.00000000000E+00 -0.17168805714E+03  0.17168805714E+03  0.00000000000E+00 0. -1.
          6    2    1    2  501    0  0.30111500137E+02  0.81960340725E+01 -0.65510156635E+02  0.18677696874E+03  0.17210513651E+03 0.  0.
         24    2    3    3    0    0  0.29988966225E+02  0.61746987249E+02 -0.54591596561E+01  0.10617962487E+03  0.80822532648E+02 0.  0.
         -6    2    1    2    0  502 -0.30111500137E+02 -0.81960340725E+01  0.12224587127E+03  0.21333486017E+03  0.17202857933E+03 0.  0.
        -24    2    5    5    0    0 -0.45094281180E+02 -0.22301553206E+02  0.61743333838E+01  0.95359687758E+02  0.80774341137E+02 0.  0.
          5    1    3    3  501    0  0.12253391273E+00 -0.53550953176E+02 -0.60050996979E+02  0.80597343869E+02  0.47000000000E+01 0. -1.
        -11    1    4    4    0    0 -0.25787837848E+02  0.47443761840E+01  0.27342963986E+00  0.26222060369E+02  0.00000000000E+00 0.  1.
         12    1    4    4    0    0  0.55776804072E+02  0.57002611065E+02 -0.57325892959E+01  0.79957564500E+02  0.00000000000E+00 0. -1.
         -5    1    5    5    0  502  0.14982781042E+02  0.14105519134E+02  0.11607153789E+03  0.11797517241E+03  0.47000000000E+01 0.  1.
         11    1    6    6    0    0 -0.52937843093E+02 -0.23230020738E+02  0.33568390609E+02  0.66849726574E+02  0.00000000000E+00 0. -1.
        -12    1    6    6    0    0  0.78435619137E+01  0.92846753132E+00 -0.27394057226E+02  0.28509961184E+02  0.00000000000E+00 0.  1.
</event>
<event>
12    1  0.8135779E-002  0.2089707E+03  0.7818608E-02  0.1142463E+00
         21   -1    0    0  503  502  0.00000000000E+00  0.00000000000E+00  0.17344633419E+03  0.17344633419E+03  0.00000000000E+00 0. -1.
         21   -1    0    0  501  503 -0.00000000000E+00 -0.00000000000E+00 -0.32923012002E+03  0.32923012002E+03  0.00000000000E+00 0. -1.
          6    2    1    2  501    0 -0.11586529374E+03 -0.27459680497E+02 -0.20012348206E+03  0.28905352673E+03  0.17124173817E+03 0.  0.
         24    2    3    3    0    0 -0.12392906182E+03  0.60415560628E+01 -0.20625359017E+03  0.25374027947E+03  0.80303631308E+02 0.  0.
         -6    2    1    2    0  502  0.11586529374E+03  0.27459680497E+02  0.44339696230E+02  0.21362292749E+03  0.17172636996E+03 0.  0.
        -24    2    5    5    0    0  0.10972062168E+03  0.77837229461E+02  0.25632588472E+02  0.15933019948E+03  0.81436071621E+02 0.  0.
          5    1    3    3  501    0  0.80637680781E+01 -0.33501236559E+02  0.61301081085E+01  0.35313247260E+02  0.47000000000E+01 0. -1.
        -11    1    4    4    0    0  0.93532236011E-01  0.22338113195E+02 -0.38047941346E+02  0.44120810170E+02  0.00000000000E+00 0.  1.
         12    1    4    4    0    0 -0.12402259406E+03 -0.16296557132E+02 -0.16820564883E+03  0.20961946930E+03  0.00000000000E+00 0. -1.
         -5    1    5    5    0  502  0.61446720607E+01 -0.50377548964E+02  0.18707107758E+02  0.54292728013E+02  0.47000000000E+01 0.  1.
         11    1    6    6    0    0  0.20777966052E+02  0.27122344613E+02  0.43587302235E+02  0.55382292898E+02  0.00000000000E+00 0. -1.
        -12    1    6    6    0    0  0.88942655630E+02  0.50714884848E+02 -0.17954713763E+02  0.10394790658E+03  0.00000000000E+00 0.  1.
</event>
<event>
12    1  0.8135779E-002  0.1778426E+03  0.7818608E-02  0.1170748E+00
         21   -1    0    0  503  502  0.00000000000E+00  0.00000000000E+00  0.59277857368E+02  0.59277857368E+02  0.00000000000E+00 0.  1.
         21   -1    0    0  501  503 -0.00000000000E+00 -0.00000000000E+00 -0.59516758344E+03  0.59516758344E+03  0.00000000000E+00 0.  1.
          6    2    1    2  501    0 -0.11014379400E+02 -0.45646601370E+02 -0.37926504311E+03  0.41746595137E+03  0.16802059058E+03 0.  0.
         24    2    3    3    0    0  0.38365381599E+00 -0.45522541130E+02 -0.91616219251E+02  0.12955300199E+03  0.79485846249E+02 0.  0.
         -6    2    1    2    0  502  0.11014379400E+02  0.45646601370E+02 -0.15662468295E+03  0.23697948943E+03  0.17153150827E+03 0.  0.
        -24    2    5    5    0    0 -0.10080770510E+02  0.90895193190E+02 -0.13812601055E+03  0.18353109102E+03  0.79001952528E+02 0.  0.
          5    1    3    3  501    0 -0.11398033216E+02 -0.12406023952E+00 -0.28764882386E+03  0.28791294938E+03  0.47000000000E+01 0. -1.
        -11    1    4    4    0    0 -0.32793553586E+02 -0.26421835043E+01 -0.16202684712E+02  0.36673222961E+02  0.00000000000E+00 0.  1.
         12    1    4    4    0    0  0.33177207402E+02 -0.42880357626E+02 -0.75413534540E+02  0.92879779031E+02  0.00000000000E+00 0. -1.
         -5    1    5    5    0  502  0.21095149909E+02 -0.45248591820E+02 -0.18498672405E+02  0.53448398406E+02  0.47000000000E+01 0.  1.
         13    1    6    6    0    0 -0.34161641298E+01  0.17906282192E+02 -0.98578109497E+02  0.10024943287E+03  0.00000000000E+00 0. -1.
        -14    1    6    6    0    0 -0.66646063800E+01  0.72988910998E+02 -0.39547901053E+02  0.83281658152E+02  0.00000000000E+00 0.  1.
</event>
<event>
12    1  0.8135779E-002  0.1783945E+03  0.7818608E-02  0.1169461E+00
         21   -1    0    0  503  502  0.00000000000E+00  0.00000000000E+00  0.39988439327E+03  0.39988439327E+03  0.00000000000E+00 0. -1.
         21   -1    0    0  501  503 -0.00000000000E+00 -0.00000000000E+00 -0.11320712210E+03  0.11320712210E+03  0.00000000000E+00 0.  1.
          6    2    1    2  501    0 -0.42044210069E+02  0.22927527360E+02  0.32783624156E+01  0.17842459261E+03  0.17184644447E+03 0.  0.
         24    2    3    3    0    0  0.16051772933E+02  0.39389020393E+02 -0.45076163777E+02  0.10092379135E+03  0.79652977202E+02 0.  0.
         -6    2    1    2    0  502  0.42044210069E+02 -0.22927527360E+02  0.28339890876E+03  0.33466692276E+03  0.17144567825E+03 0.  0.
        -24    2    5    5    0    0 -0.34846737641E+02  0.17472182511E+02  0.17120631980E+03  0.19270347178E+03  0.79394280710E+02 0.  0.
          5    1    3    3  501    0 -0.58095983002E+02 -0.16461493033E+02  0.48354526192E+02  0.77500801268E+02  0.47000000000E+01 0. -1.
        -13    1    4    4    0    0  0.87555182406E+01 -0.12540480587E+02 -0.46000086282E+02  0.48476083701E+02  0.00000000000E+00 0.  1.
         14    1    4    4    0    0  0.72962546922E+01  0.51929500979E+02  0.92392250536E+00  0.52447707646E+02  0.00000000000E+00 0. -1.
         -5    1    5    5    0  502  0.76890947711E+02 -0.40399709871E+02  0.11219258896E+03  0.14196345098E+03  0.47000000000E+01 0.  1.
         11    1    6    6    0    0 -0.47038736913E+02  0.22606246915E+02  0.17170909442E+03  0.17946503358E+03  0.00000000000E+00 0. -1.
        -12    1    6    6    0    0  0.12191999271E+02 -0.51340644048E+01 -0.50277462546E+00  0.13238438196E+02  0.00000000000E+00 0.  1.
</event>
<event>
12    1  0.8135779E-002  0.2527866E+03  0.7818608E-02  0.1111862E+00
         21   -1    0    0  503  502  0.00000000000E+00  0.00000000000E+00  0.25890335575E+03  0.25890335575E+03  0.00000000000E+00 0.  1.
         21   -1    0    0  501  503 -0.00000000000E+00 -0.00000000000E+00 -0.42448617606E+03  0.42448617606E+03  0.00000000000E+00 0.  1.
          6    2    1    2  501    0  0.56565901587E+02 -0.17484532568E+03 -0.30485037446E+03  0.39477821003E+03  0.17072051773E+03 0.  0.
         24    2    3    3    0    0  0.52969379745E+02 -0.19539453496E+03 -0.30363511761E+03  0.37335925066E+03  0.78854714019E+02 0.  0.
         -6    2    1    2    0  502 -0.56565901587E+02  0.17484532568E+03  0.13926755415E+03  0.28861132177E+03  0.17358126132E+03 0.  0.
        -24    2    5    5    0    0  0.24995778761E+02  0.10428426417E+03  0.11749131319E+03  0.17848654812E+03  0.80952099876E+02 0.  0.
          5    1    3    3  501    0  0.35965218428E+01  0.20549209277E+02 -0.12152568433E+01  0.21418959370E+02  0.47000000000E+01 0. -1.
        -11    1    4    4    0    0  0.46991411933E+02 -0.13459367663E+03 -0.14489699352E+03  0.20327023716E+03  0.00000000000E+00 0.  1.
         12    1    4    4    0    0  0.59779678111E+01 -0.60800858329E+02 -0.15873812409E+03  0.17008901350E+03  0.00000000000E+00 0. -1.
         -5    1    5    5    0  502 -0.81561680348E+02  0.70561061511E+02  0.21776240966E+02  0.11012477366E+03  0.47000000000E+01 0.  1.
         13    1    6    6    0    0  0.52676727259E+00 -0.86585281589E+01 -0.50594609841E+01  0.10042197921E+02  0.00000000000E+00 0. -1.
        -14    1    6    6    0    0  0.24469011488E+02  0.11294279233E+03  0.12255077417E+03  0.16844435019E+03  0.00000000000E+00 0.  1.
</event>
<event>
12    1  0.8135779E-002  0.2851363E+03  0.7818608E-02  0.1093163E+00
         21   -1    0    0  503  502  0.00000000000E+00  0.00000000000E+00  0.44513187890E+03  0.44513187890E+03  0.00000000000E+00 0.  1.
         21   -1    0    0  501  503 -0.00000000000E+00 -0.00000000000E+00 -0.19800266202E+03  0.19800266202E+03  0.00000000000E+00 0.  1.
          6    2    1    2  501    0 -0.45501533063E+02  0.22348787721E+03  0.21611948875E+03  0.35631697836E+03  0.16803849224E+03 0.  0.
         24    2    3    3    0    0 -0.91082411530E+02  0.13185640743E+03  0.11652116546E+03  0.21343290388E+03  0.79336653493E+02 0.  0.
         -6    2    1    2    0  502  0.45501533063E+02 -0.22348787721E+03  0.31009728127E+02  0.28681756256E+03  0.17113003881E+03 0.  0.
        -24    2    5    5    0    0  0.57719978753E+02 -0.17191033589E+03 -0.37159071705E+02  0.20033861452E+03  0.76615953452E+02 0.  0.
          5    1    3    3  501    0  0.45580878468E+02  0.91631469782E+02  0.99598323290E+02  0.14288407447E+03  0.47000000000E+01 0. -1.
        -13    1    4    4    0    0 -0.22163938974E+02  0.84710226457E+02  0.90606606492E+02  0.12600245949E+03  0.00000000000E+00 0.  1.
         14    1    4    4    0    0 -0.68918472556E+02  0.47146180975E+02  0.25914558970E+02  0.87430444392E+02  0.00000000000E+00 0. -1.
         -5    1    5    5    0  502 -0.12218445690E+02 -0.51577541324E+02  0.68168799833E+02  0.86478948044E+02  0.47000000000E+01 0.  1.
         11    1    6    6    0    0  0.70178166908E+02 -0.90644339370E+02 -0.20590130423E+02  0.11647027450E+03  0.00000000000E+00 0. -1.
        -12    1    6    6    0    0 -0.12458188156E+02 -0.81265996521E+02 -0.16568941282E+02  0.83868340021E+02  0.00000000000E+00 0.  1.
</event>
<event>
12    1  0.8135779E-002  0.1863853E+03  0.7818608E-02  0.1162053E+00
         21   -1    0    0  503  502  0.00000000000E+00  0.00000000000E+00  0.13731385731E+03  0.13731385731E+03  0.00000000000E+00 0.  1.
         21   -1    0    0  501  503 -0.00000000000E+00 -0.00000000000E+00 -0.25594260655E+03  0.25594260655E+03  0.00000000000E+00 0.  1.
          6    2    1    2  501    0  0.71246542486E+02 -0.17821279906E+02 -0.33022219076E+02  0.18928802483E+03  0.17130622160E+03 0.  0.
         24    2    3    3    0    0  0.83978797407E+02 -0.51707637553E+02 -0.74725995250E+02  0.13386519112E+03  0.51086170650E+02 0.  0.
         -6    2    1    2    0  502 -0.71246542486E+02  0.17821279906E+02 -0.85606530161E+02  0.20396843903E+03  0.16994404455E+03 0.  0.
        -24    2    5    5    0    0 -0.54612484330E+02 -0.30148514647E+02 -0.10834353042E+03  0.14813964484E+03  0.79470607203E+02 0.  0.
          5    1    3    3  501    0 -0.12732254921E+02  0.33886357647E+02  0.41703776174E+02  0.55422833716E+02  0.47000000000E+01 0. -1.
        -11    1    4    4    0    0  0.81875229048E+02 -0.33888362993E+02 -0.45600440171E+02  0.99656281396E+02  0.00000000000E+00 0.  1.
         12    1    4    4    0    0  0.21035683596E+01 -0.17819274559E+02 -0.29125555079E+02  0.34208909722E+02  0.00000000000E+00 0. -1.
         -5    1    5    5    0  502 -0.16634058156E+02  0.47969794553E+02  0.22737000254E+02  0.55828794190E+02  0.47000000000E+01 0.  1.
         11    1    6    6    0    0 -0.65181569363E+02 -0.35704885646E+01 -0.97945153709E+02  0.11770572844E+03  0.00000000000E+00 0. -1.
        -12    1    6    6    0    0  0.10569085034E+02 -0.26578026082E+02 -0.10398376706E+02  0.30433916393E+02  0.00000000000E+00 0.  1.
</event>
<event>
12    1  0.8135779E-002  0.1771306E+03  0.7818608E-02  0.1171041E+00
         21   -1    0    0  501  502  0.00000000000E+00  0.00000000000E+00  0.13048097436E+03  0.13048097436E+03  0.00000000000E+00 0.  1.
         21   -1    0    0  502  503 -0.00000000000E+00 -0.00000000000E+00 -0.32451683098E+03  0.32451683098E+03  0.00000000000E+00 0.  1.
         -6    2    1    2    0  503 -0.29400708848E+02 -0.20990528728E+02 -0.21405911436E+03  0.27673910566E+03  0.17163398318E+03 0.  0.
        -24    2    3    3    0    0  0.49425233626E+02 -0.98738728387E+01 -0.95362250335E+02  0.13374209599E+03  0.79073651531E+02 0.  0.
          6    2    1    2  501    0  0.29400708848E+02  0.20990528728E+02  0.20023257745E+02  0.17825869968E+03  0.17340769644E+03 0.  0.
         24    2    5    5    0    0  0.53968553150E+02  0.34229695780E+02 -0.43352105668E+02  0.10885134268E+03  0.76713316548E+02 0.  0.
          5    1    5    5  501    0 -0.24567844303E+02 -0.13239167052E+02  0.63375363413E+02  0.69407356999E+02  0.47000000000E+01 0. -1.
        -11    1    6    6    0    0  0.25546849956E+02  0.50873537697E+02 -0.33382025894E+01  0.57025450257E+02  0.00000000000E+00 0.  1.
         12    1    6    6    0    0  0.28421703194E+02 -0.16643841917E+02 -0.40013903079E+02  0.51825892427E+02  0.00000000000E+00 0. -1.
         -5    1    3    3    0  503 -0.78825942474E+02 -0.11116655890E+02 -0.11869686402E+03  0.14299700967E+03  0.47000000000E+01 0.  1.
         11    1    4    4    0    0  0.30900846881E+02  0.27198401972E+02 -0.15914462697E+02  0.44134856188E+02  0.00000000000E+00 0. -1.
        -12    1    4    4    0    0  0.18524386745E+02 -0.37072274811E+02 -0.79447787638E+02  0.89607239800E+02  0.00000000000E+00 0.  1.
</event>
<event>
12    1  0.8135779E-002  0.1804296E+03  0.7818608E-02  0.1167593E+00
         21   -1    0    0  503  502  0.00000000000E+00  0.00000000000E+00  0.67344081533E+02  0.67344081533E+02  0.00000000000E+00 0.  1.
         21   -1    0    0  501  503 -0.00000000000E+00 -0.00000000000E+00 -0.75360828941E+03  0.75360828941E+03  0.00000000000E+00 0.  1.
          6    2    1    2  501    0  0.48572488434E+02 -0.20041022250E+02 -0.58943135672E+03  0.61618064955E+03  0.17172169167E+03 0.  0.
         24    2    3    3    0    0 -0.34622577559E+02  0.16554502703E+02 -0.22904987743E+03  0.24448513967E+03  0.76396091065E+02 0.  0.
         -6    2    1    2    0  502 -0.48572488434E+02  0.20041022250E+02 -0.96832851152E+02  0.20477172139E+03  0.17260917592E+03 0.  0.
        -24    2    5    5    0    0  0.18364855277E+02  0.54623603615E+02 -0.27114670506E+02  0.10201337560E+03  0.79690134040E+02 0.  0.
          5    1    3    3  501    0  0.83195065993E+02 -0.36595524953E+02 -0.36038147929E+03  0.37169550988E+03  0.47000000000E+01 0. -1.
        -13    1    4    4    0    0  0.23647788048E+02 -0.29005299383E+01 -0.56132574828E+02  0.60979479419E+02  0.00000000000E+00 0.  1.
         14    1    4    4    0    0 -0.58270365607E+02  0.19455032641E+02 -0.17291730261E+03  0.18350566025E+03  0.00000000000E+00 0. -1.
         -5    1    5    5    0  502 -0.66937343711E+02 -0.34582581365E+02 -0.69718180646E+02  0.10275834579E+03  0.47000000000E+01 0.  1.
         13    1    6    6    0    0  0.35328649192E+02  0.27895480919E+02 -0.46639858183E+02  0.64819346500E+02  0.00000000000E+00 0. -1.
        -14    1    6    6    0    0 -0.16963793915E+02  0.26728122696E+02  0.19525187677E+02  0.37194029100E+02  0.00000000000E+00 0.  1.
</event>
<event>
12    1  0.8135779E-002  0.1934990E+03  0.7818608E-02  0.1155927E+00
         21   -1    0    0  503  502  0.00000000000E+00  0.00000000000E+00  0.14067735977E+03  0.14067735977E+03  0.00000000000E+00 0.  1.
         21   -1    0    0  501  503 -0.00000000000E+00 -0.00000000000E+00 -0.26490259861E+03  0.26490259861E+03  0.00000000000E+00 0.  1.
          6    2    1    2  501    0  0.74151346855E+02 -0.32834560809E+02 -0.81659246886E+02  0.21002403962E+03  0.17568532663E+03 0.  0.
         24    2    3    3    0    0  0.87480684794E+02 -0.15973093208E+02 -0.11773922507E+03  0.16776489664E+03  0.79840625649E+02 0.  0.
         -6    2    1    2    0  502 -0.74151346855E+02  0.32834560809E+02 -0.42565991956E+02  0.19555591876E+03  0.17278229964E+03 0.  0.
        -24    2    5    5    0    0 -0.47680866610E+02  0.84973259656E+02 -0.52847339517E+01  0.12604971443E+03  0.79791492019E+02 0.  0.
          5    1    3    3  501    0 -0.13329337940E+02 -0.16861467601E+02  0.36079978189E+02  0.42259142983E+02  0.47000000000E+01 0. -1.
        -11    1    4    4    0    0  0.42593793453E+02 -0.40114734912E+02 -0.95847700557E+02  0.11229516864E+03  0.00000000000E+00 0.  1.
         12    1    4    4    0    0  0.44886891341E+02  0.24141641704E+02 -0.21891524518E+02  0.55469727998E+02  0.00000000000E+00 0. -1.
         -5    1    5    5    0  502 -0.26470480245E+02 -0.52138698847E+02 -0.37281258004E+02  0.69506204329E+02  0.47000000000E+01 0.  1.
         11    1    6    6    0    0 -0.20802204117E+02  0.87902941344E+02 -0.23636420789E+02  0.93372047106E+02  0.00000000000E+00 0. -1.
        -12    1    6    6    0    0 -0.26878662493E+02 -0.29296816878E+01  0.18351686837E+02  0.32677667328E+02  0.00000000000E+00 0.  1.
</event>
<event>
12    1  0.8135779E-002  0.1824228E+03  0.7818608E-02  0.1165850E+00
         21   -1    0    0  503  502  0.00000000000E+00  0.00000000000E+00  0.11869073365E+03  0.11869073365E+03  0.00000000000E+00 0.  1.
         21   -1    0    0  501  503 -0.00000000000E+00 -0.00000000000E+00 -0.49374493320E+03  0.49374493320E+03  0.00000000000E+00 0.  1.
          6    2    1    2  501    0  0.58631780990E+02  0.63644200132E+01 -0.38949687490E+03  0.42944206468E+03  0.17098093396E+03 0.  0.
         24    2    3    3    0    0  0.93214853271E+02  0.28784453273E+02 -0.35078901064E+03  0.37270551971E+03  0.79617339920E+02 0.  0.
         -6    2    1    2    0  502 -0.58631780990E+02 -0.63644200132E+01  0.14442675351E+02  0.18299360217E+03  0.17262640580E+03 0.  0.
        -24    2    5    5    0    0 -0.53650653766E+02 -0.65490647259E+02  0.27378930829E+02  0.12208252696E+03  0.83588994543E+02 0.  0.
          5    1    3    3  501    0 -0.34583072281E+02 -0.22420033260E+02 -0.38707864256E+02  0.56736544969E+02  0.47000000000E+01 0. -1.
        -11    1    4    4    0    0  0.76487906141E+02  0.37624583516E+02 -0.16278952698E+03  0.18375646700E+03  0.00000000000E+00 0.  1.
         12    1    4    4    0    0  0.16726947130E+02 -0.88401302431E+01 -0.18799948366E+03  0.18894905271E+03  0.00000000000E+00 0. -1.
         -5    1    5    5    0  502 -0.49811272238E+01  0.59126227246E+02 -0.12936255478E+02  0.60911075204E+02  0.47000000000E+01 0.  1.
         13    1    6    6    0    0  0.14848643595E+02 -0.15864641736E+02 -0.16035006017E+02  0.27005378945E+02  0.00000000000E+00 0. -1.
        -14    1    6    6    0    0 -0.68499297360E+02 -0.49626005523E+02  0.43413936846E+02  0.95077148019E+02  0.00000000000E+00 0.  1.
</event>
<event>
12    1  0.8135779E-002  0.2212807E+03  0.7818608E-02  0.1134906E+00
         21   -1    0    0  503  502  0.00000000000E+00  0.00000000000E+00  0.13274770241E+04  0.13274770241E+04  0.00000000000E+00 0. -1.
         21   -1    0    0  501  503 -0.00000000000E+00 -0.00000000000E+00 -0.35484087303E+02  0.35484087303E+02  0.00000000000E+00 0.  1.
          6    2    1    2  501    0 -0.70178411066E+02 -0.11487551985E+03  0.59754909731E+03  0.63720488178E+03  0.17562386862E+03 0.  0.
         24    2    3    3    0    0  0.22702434038E+02 -0.42970192601E+02  0.15664718144E+03  0.18090035968E+03  0.76320133092E+02 0.  0.
         -6    2    1    2    0  502  0.70178411066E+02  0.11487551985E+03  0.69444383954E+03  0.72575622968E+03  0.16232210015E+03 0.  0.
        -24    2    5    5    0    0 -0.49007404283E+01  0.10582200428E+03  0.51343430133E+03  0.52952833141E+03  0.74586581513E+02 0.  0.
          5    1    3    3  501    0 -0.92880845104E+02 -0.71905327245E+02  0.44090191586E+03  0.45630452210E+03  0.47000000000E+01 0. -1.
        -13    1    4    4    0    0  0.11459077754E+02 -0.44886249668E+02  0.33361704585E+02  0.57088433198E+02  0.00000000000E+00 0.  1.
         14    1    4    4    0    0  0.11243356284E+02  0.19160570667E+01  0.12328547686E+03  0.12381192648E+03  0.00000000000E+00 0. -1.
         -5    1    5    5    0  502  0.75079151494E+02  0.90535155655E+01  0.18100953821E+03  0.19622789826E+03  0.47000000000E+01 0.  1.
         11    1    6    6    0    0 -0.41156993597E+01  0.87054564851E+01  0.22453615925E+03  0.22474254329E+03  0.00000000000E+00 0. -1.
        -12    1    6    6    0    0 -0.78504106859E+00  0.97116547795E+02  0.28889814207E+03  0.30478578812E+03  0.00000000000E+00 0.  1.
</event>
<event>
12    1  0.8135779E-002  0.1900013E+03  0.7818608E-02  0.1158626E+00
         21   -1    0    0  501  502  0.00000000000E+00  0.00000000000E+00  0.52432357002E+02  0.52432357002E+02  0.00000000000E+00 0. -1.
         21   -1    0    0  502  503 -0.00000000000E+00 -0.00000000000E+00 -0.68622838632E+03  0.68622838632E+03  0.00000000000E+00 0. -1.
         -6    2    1    2    0  503  0.77345834903E+02 -0.20396422503E+02 -0.32609602639E+03  0.37741106686E+03  0.17234297994E+03 0.  0.
        -24    2    3    3    0    0  0.16963482063E+02  0.17588995557E+02 -0.61312483693E+02  0.10314598523E+03  0.79263744067E+02 0.  0.
          6    2    1    2  501    0 -0.77345834903E+02  0.20396422503E+02 -0.30770000293E+03  0.36124967646E+03  0.17153321753E+03 0.  0.
         24    2    5    5    0    0  0.10417905124E+02 -0.13021864075E+02 -0.75524156625E+02  0.11075622436E+03  0.79277621740E+02 0.  0.
          5    1    5    5  501    0 -0.87763740027E+02  0.33418286577E+02 -0.23217584630E+03  0.25049345210E+03  0.47000000000E+01 0. -1.
        -13    1    6    6    0    0 -0.29041177468E+02 -0.15541843909E+02 -0.59668266414E+02  0.68156004267E+02  0.00000000000E+00 0.  1.
         14    1    6    6    0    0  0.39459082592E+02  0.25199798339E+01 -0.15855890211E+02  0.42600220090E+02  0.00000000000E+00 0. -1.
         -5    1    3    3    0  503  0.60382352840E+02 -0.37985418060E+02 -0.26478354270E+03  0.27426508163E+03  0.47000000000E+01 0.  1.
         13    1    4    4    0    0 -0.17759249995E+02 -0.19840764099E+02 -0.49261999619E+01  0.27079777076E+02  0.00000000000E+00 0. -1.
        -14    1    4    4    0    0  0.34722732058E+02  0.37429759656E+02 -0.56386283731E+02  0.76066208151E+02  0.00000000000E+00 0.  1.
</event>
<event>
12    1  0.8135779E-002  0.2374648E+03  0.7818608E-02  0.1121810E+00
         21   -1    0    0  501  502  0.00000000000E+00  0.00000000000E+00  0.22158255934E+03  0.22158255934E+03  0.00000000000E+00 0.  1.
         21   -1    0    0  502  503 -0.00000000000E+00 -0.00000000000E+00 -0.26802107328E+03  0.26802107328E+03  0.00000000000E+00 0.  1.
         -6    2    1    2    0  503 -0.16197528678E+02 -0.16179756463E+03 -0.82244400644E+02  0.25130396420E+03  0.17305701121E+03 0.  0.
        -24    2    3    3    0    0 -0.28538527024E+02 -0.16019093834E+03 -0.14223290848E+02  0.18199420395E+03  0.80274553988E+02 0.  0.
          6    2    1    2  501    0  0.16197528678E+02  0.16179756463E+03  0.35805886697E+02  0.23829966842E+03  0.17048125583E+03 0.  0.
         24    2    5    5    0    0  0.41805892330E+02  0.49226655309E+02  0.62594037225E+02  0.11969236290E+03  0.78976275002E+02 0.  0.
          5    1    5    5  501    0 -0.25608363652E+02  0.11257090932E+03 -0.26788150528E+02  0.11860730552E+03  0.47000000000E+01 0. -1.
        -11    1    6    6    0    0  0.22496966979E+02  0.60862228035E+02  0.70487987993E+02  0.95806475647E+02  0.00000000000E+00 0.  1.
         12    1    6    6    0    0  0.19308925352E+02 -0.11635572727E+02 -0.78939507685E+01  0.23885887249E+02  0.00000000000E+00 0. -1.
         -5    1    3    3    0  503  0.12340998346E+02 -0.16066262916E+01 -0.68021109796E+02  0.69309760251E+02  0.47000000000E+01 0.  1.
         13    1    4    4    0    0 -0.37332674699E+02 -0.10310173049E+03  0.24624298045E+02  0.11238350184E+03  0.00000000000E+00 0. -1.
        -14    1    4    4    0    0  0.87941476749E+01 -0.57089207845E+02 -0.38847588893E+02  0.69610702112E+02  0.00000000000E+00 0.  1.
</event>
<event>
12    1  0.8135779E-002  0.1839481E+03  0.7818608E-02  0.1166406E+00
         21   -1    0    0  501  502  0.00000000000E+00  0.00000000000E+00  0.46916887638E+03  0.46916887638E+03  0.00000000000E+00 0. -1.
         21   -1    0    0  502  503 -0.00000000000E+00 -0.00000000000E+00 -0.11649644371E+03  0.11649644371E+03  0.00000000000E+00 0. -1.
         -6    2    1    2    0  503 -0.42302510507E+01 -0.35436459805E+02 -0.14732110306E+02  0.17478457170E+03  0.17046692853E+03 0.  0.
        -24    2    3    3    0    0  0.48290319798E+02 -0.66256287609E+02 -0.94184369433E+01  0.11347717188E+03  0.77887810012E+02 0.  0.
          6    2    1    2  501    0  0.42302510507E+01  0.35436459805E+02  0.36740454298E+03  0.41088074838E+03  0.18045291210E+03 0.  0.
         24    2    5    5    0    0 -0.24250917881E+02  0.80718290974E+02  0.19316733782E+03  0.22855599724E+03  0.88434574457E+02 0.  0.
          5    1    5    5  501    0  0.28481168932E+02 -0.45281831169E+02  0.17423720516E+03  0.18232475114E+03  0.47000000000E+01 0. -1.
        -11    1    6    6    0    0 -0.44738254783E+02  0.53530562678E+02  0.62964629279E+02  0.93976471108E+02  0.00000000000E+00 0.  1.
         12    1    6    6    0    0  0.20487336902E+02  0.27187728295E+02  0.13020270854E+03  0.13457952613E+03  0.00000000000E+00 0. -1.
         -5    1    3    3    0  503 -0.52520570849E+02  0.30819827805E+02 -0.53136733631E+01  0.61307399821E+02  0.47000000000E+01 0.  1.
         13    1    4    4    0    0 -0.21410430346E+02 -0.15551895601E+02 -0.64320314148E+01  0.27233050004E+02  0.00000000000E+00 0. -1.
        -14    1    4    4    0    0  0.69700750144E+02 -0.50704392008E+02 -0.29864055284E+01  0.86244121872E+02  0.00000000000E+00 0.  1.
</event>
<event>
12    1  0.8135779E-002  0.2147111E+03  0.7818608E-02  0.1138059E+00
         21   -1    0    0  503  502  0.00000000000E+00  0.00000000000E+00  0.81025165521E+02  0.81025165521E+02  0.00000000000E+00 0.  1.
         21   -1    0    0  501  503 -0.00000000000E+00 -0.00000000000E+00 -0.70778577420E+03  0.70778577420E+03  0.00000000000E+00 0. -1.
          6    2    1    2  501    0 -0.12481974881E+02 -0.12828725692E+03 -0.13776269588E+03  0.25510668138E+03  0.17171906861E+03 0.  0.
         24    2    3    3    0    0  0.39063499745E+02 -0.11223798023E+03 -0.50072365551E+02  0.15202322359E+03  0.80501537258E+02 0.  0.
         -6    2    1    2    0  502  0.12481974881E+02  0.12828725692E+03 -0.48899791280E+03  0.53370425834E+03  0.17061024782E+03 0.  0.
        -24    2    5    5    0    0  0.13017359423E+02  0.13895604859E+03 -0.26261370144E+03  0.30701943109E+03  0.76267554017E+02 0.  0.
          5    1    3    3  501    0 -0.51545474627E+02 -0.16049276695E+02 -0.87690330328E+02  0.10308345779E+03  0.47000000000E+01 0. -1.
        -11    1    4    4    0    0  0.36502214894E+02 -0.29583618866E+02 -0.50973070438E+02  0.69324282234E+02  0.00000000000E+00 0.  1.
         12    1    4    4    0    0  0.25612848511E+01 -0.82654361360E+02  0.90070488678E+00  0.82698941355E+02  0.00000000000E+00 0. -1.
         -5    1    5    5    0  502 -0.53538454139E+00 -0.10668791673E+02 -0.22638421136E+03  0.22668482725E+03  0.47000000000E+01 0.  1.
         11    1    6    6    0    0  0.14442975023E+01  0.21035934395E+02 -0.11892097392E+03  0.12077580291E+03  0.00000000000E+00 0. -1.
        -12    1    6    6    0    0  0.11573061920E+02  0.11792011420E+03 -0.14369272752E+03  0.18624362818E+03  0.00000000000E+00 0.  1.
</event>
<event>
12    1  0.8135779E-002  0.2853619E+03  0.7818608E-02  0.1093044E+00
         21   -1    0    0  501  502  0.00000000000E+00  0.00000000000E+00  0.15953985543E+03  0.15953985543E+03  0.00000000000E+00 0.  1.
         21   -1    0    0  502  503 -0.00000000000E+00 -0.00000000000E+00 -0.63888383597E+03  0.63888383597E+03  0.00000000000E+00 0. -1.
         -6    2    1    2    0  503  0.21264021288E+03  0.79310358362E+02 -0.42036109684E+03  0.50702979458E+03  0.16991105842E+03 0.  0.
        -24    2    3    3    0    0  0.22360261779E+03  0.78619457938E+02 -0.42592032971E+03  0.49385228590E+03  0.79390195757E+02 0.  0.
          6    2    1    2  501    0 -0.21264021288E+03 -0.79310358362E+02 -0.58982883704E+02  0.29139389683E+03  0.17298968021E+03 0.  0.
         24    2    5    5    0    0 -0.22509459575E+03 -0.50595560195E+02 -0.23131513639E+02  0.24357065957E+03  0.74592972404E+02 0.  0.
          5    1    5    5  501    0  0.12454382867E+02 -0.28714798167E+02 -0.35851370065E+02  0.47823237259E+02  0.47000000000E+01 0. -1.
        -11    1    6    6    0    0 -0.17883893738E+03 -0.41433812558E+02  0.13190370162E+02  0.18404921139E+03  0.00000000000E+00 0.  1.
         12    1    6    6    0    0 -0.46255658370E+02 -0.91617476374E+01 -0.36321883801E+02  0.59521448184E+02  0.00000000000E+00 0. -1.
         -5    1    3    3    0  503 -0.10962404902E+02  0.69090042387E+00  0.55592328763E+01  0.13177508672E+02  0.47000000000E+01 0.  1.
         13    1    4    4    0    0  0.16902872357E+03  0.88309199918E+02 -0.36265353464E+03  0.40973993016E+03  0.00000000000E+00 0. -1.
        -14    1    4    4    0    0  0.54573894219E+02 -0.96897419800E+01 -0.63266795072E+02  0.84112355743E+02  0.00000000000E+00 0.  1.
</event>
<event>
12    1  0.8135779E-002  0.2024869E+03  0.7818608E-02  0.1147766E+00
         21   -1    0    0  503  502  0.00000000000E+00  0.00000000000E+00  0.24493364208E+03  0.24493364208E+03  0.00000000000E+00 0.  1.
         21   -1    0    0  501  503 -0.00000000000E+00 -0.00000000000E+00 -0.17730852124E+03  0.17730852124E+03  0.00000000000E+00 0.  1.
          6    2    1    2  501    0  0.88341052208E+02  0.58648125823E+02 -0.17141051058E+02  0.20321107611E+03  0.17250270043E+03 0.  0.
         24    2    3    3    0    0  0.32608893333E+02 -0.14550974087E+02  0.40216163102E+02  0.94693235290E+02  0.77938426105E+02 0.  0.
         -6    2    1    2    0  502 -0.88341052208E+02 -0.58648125823E+02  0.84766171903E+02  0.21903108721E+03  0.17188824595E+03 0.  0.
        -24    2    5    5    0    0 -0.87533929850E+02  0.30807701379E-01  0.10294566331E+03  0.15741572716E+03  0.80744731966E+02 0.  0.
          5    1    3    3  501    0  0.55732158875E+02  0.73199099910E+02 -0.57357214160E+02  0.10851784082E+03  0.47000000000E+01 0. -1.
        -13    1    4    4    0    0  0.18860648715E+02  0.12647303023E+02 -0.18003607755E+02  0.28979445059E+02  0.00000000000E+00 0.  1.
         14    1    4    4    0    0  0.13748244618E+02 -0.27198277110E+02  0.58219770858E+02  0.65713790231E+02  0.00000000000E+00 0. -1.
         -5    1    5    5    0  502 -0.80712235759E+00 -0.58678933525E+02 -0.18179491403E+02  0.61615360048E+02  0.47000000000E+01 0.  1.
         11    1    6    6    0    0  0.10366693613E+02 -0.88509166691E+01 -0.18199383318E+01  0.13752063041E+02  0.00000000000E+00 0. -1.
        -12    1    6    6    0    0 -0.97900623463E+02  0.88817243704E+01  0.10476560164E+03  0.14366366412E+03  0.00000000000E+00 0.  1.
</event>
<event>
12    1  0.8135779E-002  0.1712791E+03  0.7818608E-02  0.1178101E+00
         21   -1    0    0  501  502  0.00000000000E+00  0.00000000000E+00  0.21672203265E+03  0.21672203265E+03  0.00000000000E+00 0. -1.
         21   -1    0    0  502  503 -0.00000000000E+00 -0.00000000000E+00 -0.17483499876E+03  0.17483499876E+03  0.00000000000E+00 0. -1.
         -6    2    1    2    0  503  0.37535879120E+01 -0.89669315010E+00  0.11906372422E+03  0.20369332165E+03  0.16522683008E+03 0.  0.
        -24    2    3    3    0    0  0.37518073305E+02 -0.64155877347E+01  0.13798711147E+03  0.16431460587E+03  0.80685074077E+02 0.  0.
          6    2    1    2  501    0 -0.37535879120E+01  0.89669315010E+00 -0.77176690326E+02  0.18786370976E+03  0.17123562256E+03 0.  0.
         24    2    5    5    0    0  0.21804295947E+02  0.15168017700E+02  0.19064390406E+02  0.87159629639E+02  0.80795135835E+02 0.  0.
          5    1    5    5  501    0 -0.25557883859E+02 -0.14271324550E+02 -0.96241080732E+02  0.10070408012E+03  0.47000000000E+01 0. -1.
        -13    1    6    6    0    0 -0.20234385985E+02  0.61172390942E+01  0.35340828201E+02  0.41180397378E+02  0.00000000000E+00 0.  1.
         14    1    6    6    0    0  0.42038681932E+02  0.90507786056E+01 -0.16276437795E+02  0.45979232260E+02  0.00000000000E+00 0. -1.
         -5    1    3    3    0  503 -0.33764485393E+02  0.55188945846E+01 -0.18923387254E+02  0.39378715779E+02  0.47000000000E+01 0.  1.
         13    1    4    4    0    0 -0.18343609326E+02 -0.17791544762E+02  0.75607337096E+02  0.79809125361E+02  0.00000000000E+00 0. -1.
        -14    1    4    4    0    0  0.55861682631E+02  0.11375957028E+02  0.62379774376E+02  0.84505480508E+02  0.00000000000E+00 0.  1.
</event>
<event>
12    1  0.8135779E-002  0.1919664E+03  0.7818608E-02  0.1156744E+00
         21   -1    0    0  501  502  0.00000000000E+00  0.00000000000E+00  0.66771957372E+03  0.66771957372E+03  0.00000000000E+00 0.  1.
         21   -1    0    0  502  503 -0.00000000000E+00 -0.00000000000E+00 -0.27939191543E+03  0.27939191543E+03  0.00000000000E+00 0.  1.
         -6    2    1    2    0  503 -0.29121725810E+02 -0.82622644287E+02 -0.23012295796E+03  0.29955278193E+03  0.17058932299E+03 0.  0.
        -24    2    3    3    0    0 -0.78232214842E+02 -0.43498383478E+02 -0.19043075858E+03  0.22512087608E+03  0.80019661510E+02 0.  0.
          6    2    1    2  501    0  0.29121725810E+02  0.82622644287E+02  0.61845061625E+03  0.64755870722E+03  0.17081141148E+03 0.  0.
         24    2    5    5    0    0 -0.25157287049E+02  0.87942107779E+02  0.28751231911E+03  0.31212353548E+03  0.79944132650E+02 0.  0.
          5    1    5    5  501    0  0.54279012859E+02 -0.53194634923E+01  0.33093829714E+03  0.33543517174E+03  0.47000000000E+01 0. -1.
        -11    1    6    6    0    0 -0.17588023689E+02  0.73104363937E+02  0.28562962206E+03  0.29536057219E+03  0.00000000000E+00 0.  1.
         12    1    6    6    0    0 -0.75692633596E+01  0.14837743842E+02  0.18826970526E+01  0.16762963291E+02  0.00000000000E+00 0. -1.
         -5    1    3    3    0  503  0.49110489032E+02 -0.39124260809E+02 -0.39692199377E+02  0.74431905848E+02  0.47000000000E+01 0.  1.
         11    1    4    4    0    0  0.94518059363E+01  0.12751758949E+02 -0.26455089662E+02  0.30851511482E+02  0.00000000000E+00 0. -1.
        -12    1    4    4    0    0 -0.87684020779E+02 -0.56250142427E+02 -0.16397566892E+03  0.19426936460E+03  0.00000000000E+00 0.  1.
</event>
<event>
12    1  0.8135779E-002  0.1827561E+03  0.7818608E-02  0.1165558E+00
         21   -1    0    0  503  502  0.00000000000E+00  0.00000000000E+00  0.41402070724E+03  0.41402070724E+03  0.00000000000E+00 0. -1.
         21   -1    0    0  501  503 -0.00000000000E+00 -0.00000000000E+00 -0.10483959271E+03  0.10483959271E+03  0.00000000000E+00 0. -1.
          6    2    1    2  501    0  0.60995651076E+02  0.11826864977E+02  0.28700545622E+02  0.18499600697E+03  0.17187046602E+03 0.  0.
         24    2    3    3    0    0  0.14940547089E+02  0.20009940927E+02  0.79430959688E+02  0.11583170804E+03  0.80523844588E+02 0.  0.
         -6    2    1    2    0  502 -0.60995651076E+02 -0.11826864977E+02  0.28048056891E+03  0.33386429298E+03  0.17010488649E+03 0.  0.
        -24    2    5    5    0    0 -0.72120016118E+02  0.44483391491E+02  0.14186057983E+03  0.18375703848E+03  0.80387537835E+02 0.  0.
          5    1    3    3  501    0  0.46055103987E+02 -0.81830759494E+01 -0.50730414066E+02  0.69164298931E+02  0.47000000000E+01 0. -1.
        -11    1    4    4    0    0  0.41907117531E+02  0.14636621608E+01  0.16815509215E+02  0.45178647133E+02  0.00000000000E+00 0.  1.
         12    1    4    4    0    0 -0.26966570442E+02  0.18546278766E+02  0.62615450473E+02  0.70653060906E+02  0.00000000000E+00 0. -1.
         -5    1    5    5    0  502  0.11124365042E+02 -0.56310256468E+02  0.13861998908E+03  0.15010725450E+03  0.47000000000E+01 0.  1.
         11    1    6    6    0    0 -0.69465758273E+01  0.50761945967E+02  0.58715473715E+02  0.77926484122E+02  0.00000000000E+00 0. -1.
        -12    1    6    6    0    0 -0.65173440291E+02 -0.62785544757E+01  0.83145106114E+02  0.10583055436E+03  0.00000000000E+00 0.  1.
</event>
<event>
12    1  0.8135779E-002  0.2387887E+03  0.7818608E-02  0.1120651E+00
         21   -1    0    0  503  502  0.00000000000E+00  0.00000000000E+00  0.94885609030E+03  0.94885609030E+03  0.00000000000E+00 0.  1.
         21   -1    0    0  501  503 -0.00000000000E+00 -0.00000000000E+00 -0.31137349074E+03  0.31137349074E+03  0.00000000000E+00 0.  1.
          6    2    1    2  501    0  0.13967597924E+03 -0.89270562640E+02 -0.24743328875E+03  0.34366196696E+03  0.17146924688E+03 0.  0.
         24    2    3    3    0    0  0.88203072996E+02 -0.12300625017E+03 -0.20768916157E+03  0.27025050781E+03  0.83607592195E+02 0.  0.
         -6    2    1    2    0  502 -0.13967597924E+03  0.89270562640E+02  0.88491588831E+03  0.91656761407E+03  0.17187626147E+03 0.  0.
        -24    2    5    5    0    0 -0.26633133329E+02 -0.15096640667E+02  0.28919473978E+03  0.30128152213E+03  0.78738336971E+02 0.  0.
          5    1    3    3  501    0  0.51472906241E+02  0.33735687525E+02 -0.39744127181E+02  0.73411459153E+02  0.47000000000E+01 0. -1.
        -13    1    4    4    0    0  0.80293085632E+02 -0.57427143072E+02 -0.82284496660E+02  0.12851301394E+03  0.00000000000E+00 0.  1.
         14    1    4    4    0    0  0.79099873643E+01 -0.65579107093E+02 -0.12540466491E+03  0.14173749387E+03  0.00000000000E+00 0. -1.
         -5    1    5    5    0  502 -0.11304284591E+03  0.10436720331E+03  0.59572114853E+03  0.61528609195E+03  0.47000000000E+01 0.  1.
         11    1    6    6    0    0 -0.46503749927E+02  0.11177914848E+02  0.12549704585E+03  0.13430209624E+03  0.00000000000E+00 0. -1.
        -12    1    6    6    0    0  0.19870616598E+02 -0.26274555516E+02  0.16369769393E+03  0.16697942589E+03  0.00000000000E+00 0.  1.
</event>
<event>
12    1  0.8135779E-002  0.2004738E+03  0.7818608E-02  0.1149546E+00
         21   -1    0    0  503  502  0.00000000000E+00  0.00000000000E+00  0.17307884963E+04  0.17307884963E+04  0.00000000000E+00 0.  1.
         21   -1    0    0  501  503 -0.00000000000E+00 -0.00000000000E+00 -0.24039619022E+02  0.24039619022E+02  0.00000000000E+00 0.  1.
          6    2    1    2  501    0 -0.84319511938E+02  0.58780409022E+02  0.67855525228E+03  0.70727291767E+03  0.17097611847E+03 0.  0.
         24    2    3    3    0    0 -0.76844806948E+02  0.10163778142E+03  0.59156895402E+03  0.60990078783E+03  0.76090608300E+02 0.  0.
         -6    2    1    2    0  502  0.84319511938E+02 -0.58780409022E+02  0.10281936250E+04  0.10475551977E+04  0.17211869474E+03 0.  0.
        -24    2    5    5    0    0  0.26460189951E+02 -0.67854443912E+02  0.90105668145E+03  0.90749831041E+03  0.79659732693E+02 0.  0.
          5    1    3    3  501    0 -0.74747049907E+01 -0.42857372394E+02  0.86986298267E+02  0.97372129839E+02  0.47000000000E+01 0. -1.
        -13    1    4    4    0    0 -0.45233902474E+02  0.49996794127E+02  0.15332958174E+03  0.16749849549E+03  0.00000000000E+00 0.  1.
         14    1    4    4    0    0 -0.31610904474E+02  0.51640987289E+02  0.43823937228E+03  0.44240229234E+03  0.00000000000E+00 0. -1.
         -5    1    5    5    0  502  0.57859321988E+02  0.90740348901E+01  0.12713694359E+03  0.14005688728E+03  0.47000000000E+01 0.  1.
         13    1    6    6    0    0 -0.73871164708E+01 -0.56772344540E+02  0.30167321661E+03  0.30705764641E+03  0.00000000000E+00 0. -1.
        -14    1    6    6    0    0  0.33847306421E+02 -0.11082099372E+02  0.59938346483E+03  0.60044066401E+03  0.00000000000E+00 0.  1.
</event>
<event>
12    1  0.8135779E-002  0.1948757E+03  0.7818608E-02  0.1154175E+00
         21   -1    0    0  501  502  0.00000000000E+00  0.00000000000E+00  0.54665762731E+02  0.54665762731E+02  0.00000000000E+00 0. -1.
         21   -1    0    0  502  503 -0.00000000000E+00 -0.00000000000E+00 -0.69812323772E+03  0.69812323772E+03  0.00000000000E+00 0. -1.
         -6    2    1    2    0  503  0.89396714180E+02  0.11244717030E+01 -0.35028680433E+03  0.40075837436E+03  0.17295488541E+03 0.  0.
        -24    2    3    3    0    0  0.57738064019E+01 -0.37482519516E+02 -0.24897241261E+03  0.26375477424E+03  0.78364804488E+02 0.  0.
          6    2    1    2  501    0 -0.89396714180E+02 -0.11244717030E+01 -0.29317067066E+03  0.35203062610E+03  0.17315739265E+03 0.  0.
         24    2    5    5    0    0 -0.61075294929E+02 -0.68585805070E+02 -0.16992524649E+03  0.20862679467E+03  0.78843806050E+02 0.  0.
          5    1    5    5  501    0 -0.28321419251E+02  0.67461333367E+02 -0.12324542417E+03  0.14340383142E+03  0.47000000000E+01 0. -1.
        -11    1    6    6    0    0  0.97892510197E+01 -0.63967405402E+01 -0.71045682832E+02  0.72001644246E+02  0.00000000000E+00 0.  1.
         12    1    6    6    0    0 -0.70864545949E+02 -0.62189064530E+02 -0.98879563660E+02  0.13662515043E+03  0.00000000000E+00 0. -1.
         -5    1    3    3    0  503  0.83622907778E+02  0.38606991219E+02 -0.10131439172E+03  0.13700360012E+03  0.47000000000E+01 0.  1.
         13    1    4    4    0    0  0.32231239567E+02 -0.32389574795E+02 -0.21784747175E+03  0.22258809111E+03  0.00000000000E+00 0. -1.
        -14    1    4    4    0    0 -0.26457433165E+02 -0.50929447218E+01 -0.31124940865E+02  0.41166683124E+02  0.00000000000E+00 0.  1.
</event>
<event>
12    1  0.8135779E-002  0.1766043E+03  0.7818608E-02  0.1171204E+00
         21   -1    0    0  501  502  0.00000000000E+00  0.00000000000E+00  0.39069746904E+02  0.39069746904E+02  0.00000000000E+00 0.  1.
         21   -1    0    0  502  503 -0.00000000000E+00 -0.00000000000E+00 -0.84816424690E+03  0.84816424690E+03  0.00000000000E+00 0.  1.
         -6    2    1    2    0  503  0.39479099497E+02 -0.39420028953E+01 -0.51323396284E+03  0.54267264649E+03  0.17178580254E+03 0.  0.
        -24    2    3    3    0    0 -0.12650556995E+02  0.17667818626E+02 -0.45973067968E+03  0.46476772507E+03  0.64688113475E+02 0.  0.
          6    2    1    2  501    0 -0.39479099497E+02  0.39420028953E+01 -0.29586053716E+03  0.34456134731E+03  0.17208987748E+03 0.  0.
         24    2    5    5    0    0  0.42438222159E+02 -0.16559368939E+02 -0.16667133998E+03  0.19015055591E+03  0.79389438482E+02 0.  0.
          5    1    5    5  501    0 -0.81917321657E+02  0.20501371834E+02 -0.12918919717E+03  0.15441079140E+03  0.47000000000E+01 0. -1.
        -13    1    6    6    0    0 -0.16223143939E+02  0.42348012705E+01 -0.59361915666E+01  0.17786576719E+02  0.00000000000E+00 0.  1.
         14    1    6    6    0    0  0.58661366098E+02 -0.20794170210E+02 -0.16073514842E+03  0.17236397920E+03  0.00000000000E+00 0. -1.
         -5    1    3    3    0  503  0.52129656492E+02 -0.21609821521E+02 -0.53503283163E+02  0.77904921419E+02  0.47000000000E+01 0.  1.
         13    1    4    4    0    0 -0.19493722444E+00  0.40730217878E+02 -0.23375712298E+03  0.23727912085E+03  0.00000000000E+00 0. -1.
        -14    1    4    4    0    0 -0.12455619770E+02 -0.23062399252E+02 -0.22597355670E+03  0.22748860422E+03  0.00000000000E+00 0.  1.
</event>
<event>
12    1  0.8135779E-002  0.1900415E+03  0.7818608E-02  0.1160218E+00
         21   -1    0    0  503  502  0.00000000000E+00  0.00000000000E+00  0.48454137960E+03  0.48454137960E+03  0.00000000000E+00 0.  1.
         21   -1    0    0  501  503 -0.00000000000E+00 -0.00000000000E+00 -0.73414684039E+02  0.73414684039E+02  0.00000000000E+00 0. -1.
          6    2    1    2  501    0  0.22639662429E+02 -0.76466051962E+02  0.24623950670E+03  0.30635410499E+03  0.16388816787E+03 0.  0.
         24    2    3    3    0    0  0.61107425142E+02 -0.74784844086E+02  0.23772399135E+03  0.26664013730E+03  0.72507768157E+02 0.  0.
         -6    2    1    2    0  502 -0.22639662429E+02  0.76466051962E+02  0.16488718886E+03  0.25160195865E+03  0.17249970762E+03 0.  0.
        -24    2    5    5    0    0 -0.58509468736E+02  0.12960704512E+02  0.61946527096E+02  0.12535441608E+03  0.91022083140E+02 0.  0.
          5    1    3    3  501    0 -0.38467762713E+02 -0.16812078763E+01  0.85155153494E+01  0.39713967690E+02  0.47000000000E+01 0. -1.
        -11    1    4    4    0    0  0.38766272340E+02 -0.49408513214E+02  0.21934424111E+03  0.22815766732E+03  0.00000000000E+00 0.  1.
         12    1    4    4    0    0  0.22341152801E+02 -0.25376330871E+02  0.18379750247E+02  0.38482469985E+02  0.00000000000E+00 0. -1.
         -5    1    5    5    0  502  0.35869806307E+02  0.63505347451E+02  0.10294066177E+03  0.12624754257E+03  0.47000000000E+01 0.  1.
         13    1    6    6    0    0  0.22781134507E+02 -0.35908799521E+01  0.22955781606E+01  0.23176371315E+02  0.00000000000E+00 0. -1.
        -14    1    6    6    0    0 -0.81290603242E+02  0.16551584464E+02  0.59650948935E+02  0.10217804477E+03  0.00000000000E+00 0.  1.
</event>
<event>
12    1  0.8135779E-002  0.1857103E+03  0.7818608E-02  0.1162519E+00
         21   -1    0    0  503  502  0.00000000000E+00  0.00000000000E+00  0.49767487115E+03  0.49767487115E+03  0.00000000000E+00 0.  1.
         21   -1    0    0  501  503 -0.00000000000E+00 -0.00000000000E+00 -0.87392219628E+02  0.87392219628E+02  0.00000000000E+00 0.  1.
          6    2    1    2  501    0  0.45395983963E+02  0.51663564651E+02  0.71511301336E+02  0.19900296786E+03  0.17250621938E+03 0.  0.
         24    2    3    3    0    0 -0.25456878484E+02  0.71204413687E+02  0.26664067972E+02  0.11277456628E+03  0.79303272871E+02 0.  0.
         -6    2    1    2    0  502 -0.45395983963E+02 -0.51663564651E+02  0.33877135018E+03  0.38606412292E+03  0.17189985465E+03 0.  0.
        -24    2    5    5    0    0 -0.29668386339E+02 -0.94124570771E+02  0.17210618353E+03  0.21329357525E+03  0.78319619898E+02 0.  0.
          5    1    3    3  501    0  0.70852862448E+02 -0.19540849036E+02  0.44847233364E+02  0.86228401577E+02  0.47000000000E+01 0. -1.
        -13    1    4    4    0    0  0.18757230333E+02  0.56088706827E+02  0.29243299296E+02  0.65976869257E+02  0.00000000000E+00 0.  1.
         14    1    4    4    0    0 -0.44214108817E+02  0.15115706860E+02 -0.25792313238E+01  0.46797697022E+02  0.00000000000E+00 0. -1.
         -5    1    5    5    0  502 -0.15727597625E+02  0.42461006120E+02  0.16666516665E+03  0.17277054767E+03  0.47000000000E+01 0.  1.
         13    1    6    6    0    0 -0.14806402625E+01 -0.65972863916E+02  0.44445672727E+02  0.79561478701E+02  0.00000000000E+00 0. -1.
        -14    1    6    6    0    0 -0.28187746076E+02 -0.28151706855E+02  0.12766051081E+03  0.13373209655E+03  0.00000000000E+00 0.  1.
</event>
<event>
12    1  0.8135779E-002  0.1999112E+03  0.7818608E-02  0.1150554E+00
         21   -1    0    0  503  502  0.00000000000E+00  0.00000000000E+00  0.38097797327E+03  0.38097797327E+03  0.00000000000E+00 0. -1.
         21   -1    0    0  501  503 -0.00000000000E+00 -0.00000000000E+00 -0.10381555926E+03  0.10381555926E+03  0.00000000000E+00 0.  1.
          6    2    1    2  501    0 -0.51009592111E+02  0.85292734918E+02  0.15770548670E+03  0.25191066170E+03  0.16944359482E+03 0.  0.
         24    2    3    3    0    0 -0.42360740224E+01  0.98438967699E+02  0.52817991195E+02  0.13622115421E+03  0.77835004818E+02 0.  0.
         -6    2    1    2    0  502  0.51009592111E+02 -0.85292734918E+02  0.11945692730E+03  0.23288287082E+03  0.17345790533E+03 0.  0.
        -24    2    5    5    0    0  0.43435314074E+02  0.24929568404E-01  0.11501095400E+03  0.14698566342E+03  0.80564499495E+02 0.  0.
          5    1    3    3  501    0 -0.46773518089E+02 -0.13146232781E+02  0.10488749551E+03  0.11568950750E+03  0.47000000000E+01 0. -1.
        -11    1    4    4    0    0 -0.34235912270E+02  0.52127050430E+02  0.39104322248E+01  0.62486947082E+02  0.00000000000E+00 0.  1.
         12    1    4    4    0    0  0.29999838247E+02  0.46311917269E+02  0.48907558970E+02  0.73734207126E+02  0.00000000000E+00 0. -1.
         -5    1    5    5    0  502  0.75742780373E+01 -0.85317664486E+02  0.44459733023E+01  0.85897207404E+02  0.47000000000E+01 0.  1.
         11    1    6    6    0    0 -0.12204797242E+00 -0.31928122056E+02  0.68988810735E+02  0.76018917911E+02  0.00000000000E+00 0. -1.
        -12    1    6    6    0    0  0.43557362046E+02  0.31953051624E+02  0.46022143268E+02  0.70966745505E+02  0.00000000000E+00 0.  1.
</event>
<event>
12    1  0.8135779E-002  0.1982058E+03  0.7818608E-02  0.1153526E+00
         21   -1    0    0  501  502  0.00000000000E+00  0.00000000000E+00  0.13080573648E+03  0.13080573648E+03  0.00000000000E+00 0. -1.
         21   -1    0    0  502  503 -0.00000000000E+00 -0.00000000000E+00 -0.33917769250E+03  0.33917769250E+03  0.00000000000E+00 0. -1.
         -6    2    1    2    0  503  0.17917447547E+02 -0.73701811693E+02 -0.19581226270E+03  0.27138008450E+03  0.17190612574E+03 0.  0.
        -24    2    3    3    0    0 -0.27183426799E+02 -0.78316066540E+02 -0.19444324488E+03  0.22578025528E+03  0.79348618288E+02 0.  0.
          6    2    1    2  501    0 -0.17917447547E+02  0.73701811693E+02 -0.12559693315E+02  0.19860334448E+03  0.18311895197E+03 0.  0.
         24    2    5    5    0    0  0.11474376499E+02  0.70932288707E+02 -0.73983087303E+02  0.13029175756E+03  0.79620311382E+02 0.  0.
          5    1    5    5  501    0 -0.29391824046E+02  0.27695229862E+01  0.61423393987E+02  0.68311586918E+02  0.47000000000E+01 0. -1.
        -13    1    6    6    0    0 -0.27127177015E+02  0.22440201817E+01 -0.10756117458E+02  0.29267958968E+02  0.00000000000E+00 0.  1.
         14    1    6    6    0    0  0.38601553514E+02  0.68688268525E+02 -0.63226969844E+02  0.10102379859E+03  0.00000000000E+00 0. -1.
         -5    1    3    3    0  503  0.45100874345E+02  0.46142548470E+01 -0.13690178145E+01  0.45599829213E+02  0.47000000000E+01 0.  1.
         11    1    4    4    0    0 -0.37237275552E+02 -0.41426699453E+01 -0.88094131147E+02  0.95730623874E+02  0.00000000000E+00 0. -1.
        -12    1    4    4    0    0  0.10053848753E+02 -0.74173396595E+02 -0.10634911374E+03  0.13004963141E+03  0.00000000000E+00 0.  1.
</event>
<event>
12    1  0.8135779E-002  0.1866143E+03  0.7818608E-02  0.1161590E+00
         21   -1    0    0  503  502  0.00000000000E+00  0.00000000000E+00  0.62052820059E+03  0.62052820059E+03  0.00000000000E+00 0.  1.
         21   -1    0    0  501  503 -0.00000000000E+00 -0.00000000000E+00 -0.77624430252E+02  0.77624430252E+02  0.00000000000E+00 0.  1.
          6    2    1    2  501    0 -0.27601385300E+00 -0.72338263185E+02  0.87595762925E+02  0.20615022415E+03  0.17202324474E+03 0.  0.
         24    2    3    3    0    0 -0.60511725879E+02 -0.12737612006E+02  0.34006552494E+02  0.10577855435E+03  0.78795565990E+02 0.  0.
         -6    2    1    2    0  502  0.27601385300E+00  0.72338263185E+02  0.45530800741E+03  0.49200240669E+03  0.17183738263E+03 0.  0.
        -24    2    5    5    0    0 -0.38118925721E+02  0.97557273416E+02  0.26452034510E+03  0.29570622243E+03  0.80626812661E+02 0.  0.
          5    1    3    3  501    0  0.60235712026E+02 -0.59600651180E+02  0.53589210430E+02  0.10037166980E+03  0.47000000000E+01 0. -1.
        -11    1    4    4    0    0  0.23114694127E+00  0.23461153061E+02 -0.64229224462E+01  0.24325564015E+02  0.00000000000E+00 0.  1.
         12    1    4    4    0    0 -0.60742872821E+02 -0.36198765067E+02  0.40429474941E+02  0.81452990337E+02  0.00000000000E+00 0. -1.
         -5    1    5    5    0  502  0.38394939574E+02 -0.25219010231E+02  0.19078766231E+03  0.19629618425E+03  0.47000000000E+01 0.  1.
         13    1    6    6    0    0 -0.10540387826E+02  0.34583881512E+02  0.19202411924E+02  0.40937479889E+02  0.00000000000E+00 0. -1.
        -14    1    6    6    0    0 -0.27578537895E+02  0.62973391904E+02  0.24531793317E+03  0.25476874254E+03  0.00000000000E+00 0.  1.
</event>
<event>
12    1  0.8135779E-002  0.2016499E+03  0.7818608E-02  0.1149878E+00
         21   -1    0    0  503  502  0.00000000000E+00  0.00000000000E+00  0.37608820471E+03  0.37608820471E+03  0.00000000000E+00 0.  1.
         21   -1    0    0  501  503 -0.00000000000E+00 -0.00000000000E+00 -0.10631557806E+03  0.10631557806E+03  0.00000000000E+00 0.  1.
          6    2    1    2  501    0  0.22011756706E+02  0.10189076446E+03  0.16557505717E+03  0.25542404822E+03  0.16419530912E+03 0.  0.
         24    2    3    3    0    0  0.41337849358E+02  0.10410861816E+03  0.65962161985E+02  0.15382072338E+03  0.82233727638E+02 0.  0.
         -6    2    1    2    0  502 -0.22011756706E+02 -0.10189076446E+03  0.10419756948E+03  0.22697973455E+03  0.17261639869E+03 0.  0.
        -24    2    5    5    0    0 -0.74713661906E+02 -0.41282636289E+02  0.86936711236E+02  0.14469447925E+03  0.78051990566E+02 0.  0.
          5    1    3    3  501    0 -0.19326092653E+02 -0.22178536986E+01  0.99612895188E+02  0.10160332485E+03  0.47000000000E+01 0. -1.
        -11    1    4    4    0    0  0.49113671381E+02  0.41708803733E+02  0.25031294854E+01  0.64482886742E+02  0.00000000000E+00 0.  1.
         12    1    4    4    0    0 -0.77758220221E+01  0.62399814430E+02  0.63459032500E+02  0.89337836636E+02  0.00000000000E+00 0. -1.
         -5    1    5    5    0  502  0.52701905201E+02 -0.60608128176E+02  0.17260858240E+02  0.82285255301E+02  0.47000000000E+01 0.  1.
         13    1    6    6    0    0 -0.11942006132E+02  0.22918870247E+02  0.20876999344E+02  0.33222510824E+02  0.00000000000E+00 0. -1.
        -14    1    6    6    0    0 -0.62771655775E+02 -0.64201506536E+02  0.66059711892E+02  0.11147196843E+03  0.00000000000E+00 0.  1.
</event>
<event>
12    1  0.8135779E-002  0.1787164E+03  0.7818608E-02  0.1169144E+00
         21   -1    0    0  501  502  0.00000000000E+00  0.00000000000E+00  0.76772776791E+03  0.76772776791E+03  0.00000000000E+00 0. -1.
         21   -1    0    0  502  503 -0.00000000000E+00 -0.00000000000E+00 -0.13839786665E+03  0.13839786665E+03  0.00000000000E+00 0. -1.
         -6    2    1    2    0  503  0.22407260225E+01 -0.48799838151E+02 -0.64304198034E+02  0.18993305948E+03  0.17191012809E+03 0.  0.
        -24    2    3    3    0    0  0.67367444665E+02 -0.23218244007E+02 -0.53606459524E+02  0.11899337348E+03  0.78792835805E+02 0.  0.
          6    2    1    2  501    0 -0.22407260225E+01  0.48799838151E+02  0.69363409930E+03  0.71619257509E+03  0.17151412724E+03 0.  0.
         24    2    5    5    0    0 -0.35423581989E+02  0.12821342995E+02  0.18218961806E+03  0.20238998514E+03  0.79683324230E+02 0.  0.
          5    1    5    5  501    0  0.33182855966E+02  0.35978495156E+02  0.51144448124E+03  0.51380258994E+03  0.47000000000E+01 0. -1.
        -11    1    6    6    0    0 -0.29220427907E+02  0.11503286090E+02  0.18985885916E+03  0.19243841976E+03  0.00000000000E+00 0.  1.
         12    1    6    6    0    0 -0.62031540823E+01  0.13180569055E+01 -0.76692410992E+01  0.99515653850E+01  0.00000000000E+00 0. -1.
         -5    1    3    3    0  503 -0.65126718642E+02 -0.25581594144E+02 -0.10697738510E+02  0.70939685997E+02  0.47000000000E+01 0.  1.
         11    1    4    4    0    0  0.78294786259E+01 -0.82686665061E+01 -0.56405465082E+02  0.57543445087E+02  0.00000000000E+00 0. -1.
        -12    1    4    4    0    0  0.59537966039E+02 -0.14949577501E+02  0.27990055582E+01  0.61449928394E+02  0.00000000000E+00 0.  1.
</event>
<event>
12    1  0.8135779E-002  0.2224089E+03  0.7818608E-02  0.1132126E+00
         21   -1    0    0  501  502  0.00000000000E+00  0.00000000000E+00  0.33439463644E+02  0.33439463644E+02  0.00000000000E+00 0.  1.
         21   -1    0    0  502  503 -0.00000000000E+00 -0.00000000000E+00 -0.17005110445E+04  0.17005110445E+04  0.00000000000E+00 0.  1.
         -6    2    1    2    0  503  0.16790925602E+02 -0.13878080884E+03 -0.51992682804E+03  0.56544427327E+03  0.17280414223E+03 0.  0.
        -24    2    3    3    0    0 -0.37271785566E+02 -0.12266862148E+03 -0.45458146802E+03  0.47898916702E+03  0.79683965505E+02 0.  0.
          6    2    1    2  501    0 -0.16790925602E+02  0.13878080884E+03 -0.11471447528E+04  0.11685062349E+04  0.17298464946E+03 0.  0.
         24    2    5    5    0    0  0.36270536939E+02  0.89923350107E+02 -0.43367258322E+03  0.45138198004E+03  0.79196096674E+02 0.  0.
          5    1    5    5  501    0 -0.53061462541E+02  0.48857458730E+02 -0.71347216961E+03  0.71712425484E+03  0.47000000000E+01 0. -1.
        -11    1    6    6    0    0 -0.29909767153E+01  0.35418878545E+02 -0.29673395925E+03  0.29885529185E+03  0.00000000000E+00 0.  1.
         12    1    6    6    0    0  0.39261513654E+02  0.54504471562E+02 -0.13693862397E+03  0.15252668819E+03  0.00000000000E+00 0. -1.
         -5    1    3    3    0  503  0.54062711168E+02 -0.16112187361E+02 -0.65345360016E+02  0.86455106246E+02  0.47000000000E+01 0.  1.
         11    1    4    4    0    0  0.16975548574E+02 -0.32536104945E+01 -0.87212926419E+02  0.88909222049E+02  0.00000000000E+00 0. -1.
        -12    1    4    4    0    0 -0.54247334141E+02 -0.11941501098E+03 -0.36736854160E+03  0.39007994497E+03  0.00000000000E+00 0.  1.
</event>
<event>
12    1  0.8135779E-002  0.2155465E+03  0.7818608E-02  0.1137296E+00
         21   -1    0    0  501  502  0.00000000000E+00  0.00000000000E+00  0.86817302089E+02  0.86817302089E+02  0.00000000000E+00 0.  1.
         21   -1    0    0  502  503 -0.00000000000E+00 -0.00000000000E+00 -0.74255421264E+03  0.74255421264E+03  0.00000000000E+00 0. -1.
         -6    2    1    2    0  503 -0.11449375851E+03 -0.60208382322E+02 -0.54749960450E+03  0.58840131380E+03  0.17241351197E+03 0.  0.
        -24    2    3    3    0    0 -0.12445689888E+03 -0.85578394765E+02 -0.52673538440E+03  0.55381599128E+03  0.80304456206E+02 0.  0.
          6    2    1    2  501    0  0.11449375851E+03  0.60208382322E+02 -0.10823730605E+03  0.24097020094E+03  0.17209722043E+03 0.  0.
         24    2    5    5    0    0  0.25775535397E+02  0.68496070882E+02 -0.14520266917E+02  0.11156934191E+03  0.82950527126E+02 0.  0.
          5    1    5    5  501    0  0.88718223111E+02 -0.82876885599E+01 -0.93717039136E+02  0.12940085903E+03  0.47000000000E+01 0. -1.
        -13    1    6    6    0    0  0.16394205137E+02  0.45183180551E+02 -0.49173907002E+02  0.68763092547E+02  0.00000000000E+00 0.  1.
         14    1    6    6    0    0  0.93813302598E+01  0.23312890331E+02  0.34653640084E+02  0.42806249358E+02  0.00000000000E+00 0. -1.
         -5    1    3    3    0  503  0.99631403675E+01  0.25370012443E+02 -0.20764220100E+02  0.34585322518E+02  0.47000000000E+01 0.  1.
         11    1    4    4    0    0 -0.47741407492E+02  0.71981940831E+01 -0.11204098792E+03  0.12200097934E+03  0.00000000000E+00 0. -1.
        -12    1    4    4    0    0 -0.76715491383E+02 -0.92776588848E+02 -0.41469439648E+03  0.43181501193E+03  0.00000000000E+00 0.  1.
</event>
<event>
12    1  0.8135779E-002  0.2217756E+03  0.7818608E-02  0.1132946E+00
         21   -1    0    0  503  502  0.00000000000E+00  0.00000000000E+00  0.25764594832E+03  0.25764594832E+03  0.00000000000E+00 0.  1.
         21   -1    0    0  501  503 -0.00000000000E+00 -0.00000000000E+00 -0.20106253471E+03  0.20106253471E+03  0.00000000000E+00 0. -1.
          6    2    1    2  501    0 -0.13091197214E+03 -0.40592048523E+02  0.84017192722E+02  0.23524255863E+03  0.17173966888E+03 0.  0.
         24    2    3    3    0    0 -0.37405572527E+02 -0.16090266892E+01 -0.19745181939E+02  0.90150025554E+02  0.79595157357E+02 0.  0.
         -6    2    1    2    0  502  0.13091197214E+03  0.40592048523E+02 -0.27433779115E+02  0.22346592439E+03  0.17435236813E+03 0.  0.
        -24    2    5    5    0    0  0.15735400270E+03  0.63988019007E+02 -0.21563206271E+02  0.18736736430E+03  0.76071075966E+02 0.  0.
          5    1    3    3  501    0 -0.93506399615E+02 -0.38983021834E+02  0.10376237466E+03  0.14509253308E+03  0.47000000000E+01 0. -1.
        -11    1    4    4    0    0 -0.27112190267E+02 -0.39716375755E+02 -0.15108081753E+02  0.50405510596E+02  0.00000000000E+00 0.  1.
         12    1    4    4    0    0 -0.10293382260E+02  0.38107349065E+02 -0.46371001861E+01  0.39744514958E+02  0.00000000000E+00 0. -1.
         -5    1    5    5    0  502 -0.26442030558E+02 -0.23395970483E+02 -0.58705728436E+01  0.36098560087E+02  0.47000000000E+01 0.  1.
         11    1    6    6    0    0  0.84807575118E+02  0.39811557603E+02 -0.49493927220E+02  0.10595722603E+03  0.00000000000E+00 0. -1.
        -12    1    6    6    0    0  0.72546427581E+02  0.24176461404E+02  0.27930720949E+02  0.81410138272E+02  0.00000000000E+00 0.  1.
</event>
<event>
12    1  0.8135779E-002  0.2377933E+03  0.7818608E-02  0.1121989E+00
         21   -1    0    0  501  502  0.00000000000E+00  0.00000000000E+00  0.31781329096E+03  0.31781329096E+03  0.00000000000E+00 0. -1.
         21   -1    0    0  502  503 -0.00000000000E+00 -0.00000000000E+00 -0.33205875331E+03  0.33205875331E+03  0.00000000000E+00 0.  1.
         -6    2    1    2    0  503  0.98397108660E+02  0.13173182408E+03 -0.23071270219E+03  0.32830758345E+03  0.16589832408E+03 0.  0.
        -24    2    3    3    0    0  0.35306678568E+01  0.99625848096E+02 -0.10920957512E+03  0.17077810947E+03  0.85443877206E+02 0.  0.
          6    2    1    2  501    0 -0.98397108660E+02 -0.13173182408E+03  0.21646723984E+03  0.32156446082E+03  0.17178583199E+03 0.  0.
         24    2    5    5    0    0 -0.34766323882E+02 -0.70709265151E+01  0.39624489561E+02  0.95988166682E+02  0.79905773833E+02 0.  0.
          5    1    5    5  501    0 -0.63630784778E+02 -0.12466089756E+03  0.17684275028E+03  0.22557629414E+03  0.47000000000E+01 0. -1.
        -11    1    6    6    0    0  0.24419265227E+02 -0.11482464358E+02  0.55390025361E+01  0.27546833775E+02  0.00000000000E+00 0.  1.
         12    1    6    6    0    0 -0.59185589109E+02  0.44115378426E+01  0.34085487025E+02  0.68441332907E+02  0.00000000000E+00 0. -1.
         -5    1    3    3    0  503  0.94866440803E+02  0.32105975982E+02 -0.12150312707E+03  0.15752947398E+03  0.47000000000E+01 0.  1.
         11    1    4    4    0    0  0.24175997318E+02  0.36211432141E+02 -0.85960688402E+00  0.43548657706E+02  0.00000000000E+00 0. -1.
        -12    1    4    4    0    0 -0.20645329461E+02  0.63414415956E+02 -0.10834996824E+03  0.12722945177E+03  0.00000000000E+00 0.  1.
</event>
<event>
12    1  0.8135779E-002  0.2669006E+03  0.7818608E-02  0.1103153E+00
         21   -1    0    0  503  502  0.00000000000E+00  0.00000000000E+00  0.55235955413E+03  0.55235955413E+03  0.00000000000E+00 0.  1.
         21   -1    0    0  501  503 -0.00000000000E+00 -0.00000000000E+00 -0.14995266810E+03  0.14995266810E+03  0.00000000000E+00 0. -1.
          6    2    1    2  501    0  0.18335894156E+03 -0.88243864771E+02  0.33366177782E+03  0.42727754585E+03  0.17270911409E+03 0.  0.
         24    2    3    3    0    0  0.57606589455E+02 -0.79448768995E+02  0.97173729386E+02  0.15924826606E+03  0.79288400905E+02 0.  0.
         -6    2    1    2    0  502 -0.18335894156E+03  0.88243864771E+02  0.68745108209E+02  0.27503467638E+03  0.17178679283E+03 0.  0.
        -24    2    5    5    0    0 -0.11155090646E+03  0.12196723662E+03  0.27696901338E+02  0.18558801629E+03  0.79725666542E+02 0.  0.
          5    1    3    3  501    0  0.12575235211E+03 -0.87950957764E+01  0.23648804843E+03  0.26802927978E+03  0.47000000000E+01 0. -1.
        -11    1    4    4    0    0 -0.18658251589E+02 -0.29010018381E+02  0.31045370594E+02  0.46406104708E+02  0.00000000000E+00 0.  1.
         12    1    4    4    0    0  0.76264841044E+02 -0.50438750613E+02  0.66128358792E+02  0.11284216136E+03  0.00000000000E+00 0. -1.
         -5    1    5    5    0  502 -0.71808035097E+02 -0.33723371853E+02  0.41048206871E+02  0.89446660089E+02  0.47000000000E+01 0.  1.
         11    1    6    6    0    0 -0.39529019242E+02  0.86274881342E+02 -0.12495498757E+02  0.95718524863E+02  0.00000000000E+00 0. -1.
        -12    1    6    6    0    0 -0.72021887223E+02  0.35692355282E+02  0.40192400094E+02  0.89869491431E+02  0.00000000000E+00 0.  1.
</event>
<event>
12    1  0.8135779E-002  0.2278562E+03  0.7818608E-02  0.1128296E+00
         21   -1    0    0  503  502  0.00000000000E+00  0.00000000000E+00  0.26034174538E+03  0.26034174538E+03  0.00000000000E+00 0.  1.
         21   -1    0    0  501  503 -0.00000000000E+00 -0.00000000000E+00 -0.19891098793E+03  0.19891098793E+03  0.00000000000E+00 0. -1.
          6    2    1    2  501    0  0.39263997893E+02 -0.14442588592E+03  0.24042242780E+02  0.22834940232E+03  0.17077740497E+03 0.  0.
         24    2    3    3    0    0 -0.43705775041E+02 -0.95379902337E+02  0.10932373384E+02  0.13096639352E+03  0.77621897060E+02 0.  0.
         -6    2    1    2    0  502 -0.39263997893E+02  0.14442588592E+03  0.37388514663E+02  0.23090333099E+03  0.17180788451E+03 0.  0.
        -24    2    5    5    0    0 -0.10118381565E+02  0.13447289244E+03  0.75641508194E+02  0.18156865207E+03  0.95185068188E+02 0.  0.
          5    1    3    3  501    0  0.82969772934E+02 -0.49045983582E+02  0.13109869396E+02  0.97383008794E+02  0.47000000000E+01 0. -1.
        -11    1    4    4    0    0 -0.22927720969E+01 -0.88497899858E+02  0.76271428873E+01  0.88855547895E+02  0.00000000000E+00 0.  1.
         12    1    4    4    0    0 -0.41413002944E+02 -0.68820024794E+01  0.33052304967E+01  0.42110845629E+02  0.00000000000E+00 0. -1.
         -5    1    5    5    0  502 -0.29145616329E+02  0.99529934838E+01 -0.38252993531E+02  0.49334678924E+02  0.47000000000E+01 0.  1.
         11    1    6    6    0    0  0.10802464089E+02  0.52627878773E+02 -0.16849577154E+02  0.56305373676E+02  0.00000000000E+00 0. -1.
        -12    1    6    6    0    0 -0.20920845654E+02  0.81845013662E+02  0.92491085348E+02  0.12526327839E+03  0.00000000000E+00 0.  1.
</event>
<event>
12    1  0.8135779E-002  0.1767017E+03  0.7818608E-02  0.1171076E+00
         21   -1    0    0  501  502  0.00000000000E+00  0.00000000000E+00  0.14419633400E+03  0.14419633400E+03  0.00000000000E+00 0. -1.
         21   -1    0    0  502  503 -0.00000000000E+00 -0.00000000000E+00 -0.41667346907E+03  0.41667346907E+03  0.00000000000E+00 0. -1.
         -6    2    1    2    0  503  0.22871785153E+02  0.28933977634E+02 -0.33066299558E+03  0.37483458808E+03  0.17263446399E+03 0.  0.
        -24    2    3    3    0    0  0.15572989288E+02 -0.50310232585E+02 -0.15397509078E+03  0.18099542027E+03  0.79229893855E+02 0.  0.
          6    2    1    2  501    0 -0.22871785153E+02 -0.28933977634E+02  0.58185860510E+02  0.18603521498E+03  0.17280976024E+03 0.  0.
         24    2    5    5    0    0 -0.20244809083E+02  0.49927070210E+02  0.43066608573E+02  0.10555759294E+03  0.79906870914E+02 0.  0.
          5    1    5    5  501    0 -0.26269760699E+01 -0.78861047844E+02  0.15119251937E+02  0.80477622042E+02  0.47000000000E+01 0. -1.
        -11    1    6    6    0    0  0.13867522010E+02  0.26678724392E+01 -0.16838968203E+02  0.21976727695E+02  0.00000000000E+00 0.  1.
         12    1    6    6    0    0 -0.34112331093E+02  0.47259197771E+02  0.59905576776E+02  0.83580865247E+02  0.00000000000E+00 0. -1.
         -5    1    3    3    0  503  0.72987958644E+01  0.79244210219E+02 -0.17668790480E+03  0.19383916781E+03  0.47000000000E+01 0.  1.
         13    1    4    4    0    0 -0.17690334903E+02  0.13478049823E+02 -0.48089965178E+02  0.52983492965E+02  0.00000000000E+00 0. -1.
        -14    1    4    4    0    0  0.33263324191E+02 -0.63788282408E+02 -0.10588512560E+03  0.12801192731E+03  0.00000000000E+00 0.  1.
</event>
<event>
12    1  0.8135779E-002  0.1873803E+03  0.7818608E-02  0.1160921E+00
         21   -1    0    0  501  502  0.00000000000E+00  0.00000000000E+00  0.73236446330E+02  0.73236446330E+02  0.00000000000E+00 0.  1.
         21   -1    0    0  502  503 -0.00000000000E+00 -0.00000000000E+00 -0.47946917654E+03  0.47946917654E+03  0.00000000000E+00 0. -1.
         -6    2    1    2    0  503  0.39237015438E+02 -0.62993523689E+02 -0.21513768332E+03  0.28529914333E+03  0.17205711550E+03 0.  0.
        -24    2    3    3    0    0  0.65371217920E+02 -0.10471910953E+00 -0.70437222138E+02  0.12530441921E+03  0.80413855232E+02 0.  0.
          6    2    1    2  501    0 -0.39237015438E+02  0.62993523689E+02 -0.19109504689E+03  0.26740647953E+03  0.17170084724E+03 0.  0.
         24    2    5    5    0    0  0.26288184181E+02 -0.95531625729E+01 -0.61000136871E+02  0.10460798726E+03  0.80246387821E+02 0.  0.
          5    1    5    5  501    0 -0.65525199620E+02  0.72546686262E+02 -0.13009491002E+03  0.16279849227E+03  0.47000000000E+01 0. -1.
        -11    1    6    6    0    0 -0.22680488114E+02 -0.23052276784E+02 -0.13433419511E+02  0.35018120534E+02  0.00000000000E+00 0.  1.
         12    1    6    6    0    0  0.48968672295E+02  0.13499114211E+02 -0.47566717360E+02  0.69589866728E+02  0.00000000000E+00 0. -1.
         -5    1    3    3    0  503 -0.26134202481E+02 -0.62888804580E+02 -0.14470046118E+03  0.15999472412E+03  0.47000000000E+01 0.  1.
         11    1    4    4    0    0 -0.23034339282E+01 -0.59487622656E+01  0.14914939890E+02  0.16221868335E+02  0.00000000000E+00 0. -1.
        -12    1    4    4    0    0  0.67674651848E+02  0.58440431560E+01 -0.85352162028E+02  0.10908255088E+03  0.00000000000E+00 0.  1.
</event>
<event>
12    1  0.8135779E-002  0.1764077E+03  0.7818608E-02  0.1171460E+00
         21   -1    0    0  501  502  0.00000000000E+00  0.00000000000E+00  0.10450246435E+03  0.10450246435E+03  0.00000000000E+00 0. -1.
         21   -1    0    0  502  503 -0.00000000000E+00 -0.00000000000E+00 -0.37783632746E+03  0.37783632746E+03  0.00000000000E+00 0. -1.
         -6    2    1    2    0  503  0.37021099717E+02 -0.47642950136E+01 -0.24846662624E+03  0.30472173996E+03  0.17241349749E+03 0.  0.
        -24    2    3    3    0    0  0.79685088022E+02  0.30139552349E+02 -0.13163662060E+03  0.17545521422E+03  0.78728815848E+02 0.  0.
          6    2    1    2  501    0 -0.37021099717E+02  0.47642950136E+01 -0.24867236874E+02  0.17761705186E+03  0.17186092432E+03 0.  0.
         24    2    5    5    0    0 -0.59965802487E+01 -0.47690302704E+02 -0.55076305585E+02  0.10943579738E+03  0.81439980134E+02 0.  0.
          5    1    5    5  501    0 -0.31024519468E+02  0.52454597718E+02  0.30209068711E+02  0.68181254479E+02  0.47000000000E+01 0. -1.
        -11    1    6    6    0    0  0.20806498259E+02  0.14979238188E+02 -0.21472186647E+02  0.33441631927E+02  0.00000000000E+00 0.  1.
         12    1    6    6    0    0 -0.26803078508E+02 -0.62669540892E+02 -0.33604118938E+02  0.75994165452E+02  0.00000000000E+00 0. -1.
         -5    1    3    3    0  503 -0.42663988305E+02 -0.34903847362E+02 -0.11683000564E+03  0.12926652574E+03  0.47000000000E+01 0.  1.
         11    1    4    4    0    0  0.47844105749E+02  0.26284618097E+02 -0.18155710377E+02  0.57528857304E+02  0.00000000000E+00 0. -1.
        -12    1    4    4    0    0  0.31840982273E+02  0.38549342522E+01 -0.11348091022E+03  0.11792635692E+03  0.00000000000E+00 0.  1.
</event>
<event>
12    1  0.8135779E-002  0.1718873E+03  0.7818608E-02  0.1176897E+00
         21   -1    0    0  503  502  0.00000000000E+00  0.00000000000E+00  0.71166176494E+02  0.71166176494E+02  0.00000000000E+00 0.  1.
         21   -1    0    0  501  503 -0.00000000000E+00 -0.00000000000E+00 -0.59320850279E+03  0.59320850279E+03  0.00000000000E+00 0.  1.
          6    2    1    2  501    0  0.46055378983E+01  0.71462577947E+01 -0.44565229205E+03  0.47627717877E+03  0.16781449766E+03 0.  0.
         24    2    3    3    0    0 -0.29393116378E+02  0.10403774338E+02 -0.42982645919E+03  0.43834214361E+03  0.80130244218E+02 0.  0.
         -6    2    1    2    0  502 -0.46055378983E+01 -0.71462577947E+01 -0.76390034239E+02  0.18809750051E+03  0.17167688367E+03 0.  0.
        -24    2    5    5    0    0 -0.38212553352E+02  0.52843134183E+02 -0.46815048278E+02  0.11309797763E+03  0.79667482293E+02 0.  0.
          5    1    3    3  501    0  0.33998654276E+02 -0.32575165434E+01 -0.15825832868E+02  0.37935035160E+02  0.47000000000E+01 0. -1.
        -11    1    4    4    0    0 -0.26275327921E+02  0.18787416377E+02 -0.42799474323E+03  0.42921190582E+03  0.00000000000E+00 0.  1.
         12    1    4    4    0    0 -0.31177884571E+01 -0.83836420390E+01 -0.18317159599E+01  0.91302377876E+01  0.00000000000E+00 0. -1.
         -5    1    5    5    0  502  0.33607015454E+02 -0.59989391977E+02 -0.29574985961E+02  0.74999522879E+02  0.47000000000E+01 0.  1.
         11    1    6    6    0    0 -0.28820016824E+02 -0.16050073035E+02 -0.10276755288E+02  0.34551554428E+02  0.00000000000E+00 0. -1.
        -12    1    6    6    0    0 -0.93925365279E+01  0.68893207218E+02 -0.36538292991E+02  0.78546423202E+02  0.00000000000E+00 0.  1.
</event>
<event>
12    1  0.8135779E-002  0.1874948E+03  0.7818608E-02  0.1160779E+00
         21   -1    0    0  503  502  0.00000000000E+00  0.00000000000E+00  0.15893137361E+03  0.15893137361E+03  0.00000000000E+00 0.  1.
         21   -1    0    0  501  503 -0.00000000000E+00 -0.00000000000E+00 -0.60100958343E+03  0.60100958343E+03  0.00000000000E+00 0. -1.
          6    2    1    2  501    0  0.18310121433E+02 -0.73758024266E+02 -0.52321728638E+03  0.55579729400E+03  0.17140244037E+03 0.  0.
         24    2    3    3    0    0  0.44291791904E+02 -0.89879072738E+02 -0.25657223134E+03  0.28736366947E+03  0.81905787884E+02 0.  0.
         -6    2    1    2    0  502 -0.18310121433E+02  0.73758024266E+02  0.81139076560E+02  0.20414366303E+03  0.17121792757E+03 0.  0.
        -24    2    5    5    0    0 -0.14124864616E+02  0.30709242366E+02 -0.23988898025E+02  0.90368907319E+02  0.80302570410E+02 0.  0.
          5    1    3    3  501    0 -0.25981670472E+02  0.16121048473E+02 -0.26664505503E+03  0.26843362453E+03  0.47000000000E+01 0. -1.
        -11    1    4    4    0    0 -0.78465214086E+00 -0.29433796698E+02 -0.12638762809E+02  0.32042197059E+02  0.00000000000E+00 0.  1.
         12    1    4    4    0    0  0.45076444045E+02 -0.60445276040E+02 -0.24393346853E+03  0.25532147241E+03  0.00000000000E+00 0. -1.
         -5    1    5    5    0  502 -0.41852568162E+01  0.43048781899E+02  0.10512797459E+03  0.11377475572E+03  0.47000000000E+01 0.  1.
         13    1    6    6    0    0 -0.45626603911E+02  0.26132862307E+02 -0.38942621912E+01  0.52724555520E+02  0.00000000000E+00 0. -1.
        -14    1    6    6    0    0  0.31501739295E+02  0.45763800599E+01 -0.20094635834E+02  0.37644351799E+02  0.00000000000E+00 0.  1.
</event>
<event>
12    1  0.8135779E-002  0.2521059E+03  0.7818608E-02  0.1112004E+00
         21   -1    0    0  503  502  0.00000000000E+00  0.00000000000E+00  0.35811450361E+03  0.35811450361E+03  0.00000000000E+00 0.  1.
         21   -1    0    0  501  503 -0.00000000000E+00 -0.00000000000E+00 -0.25381124628E+03  0.25381124628E+03  0.00000000000E+00 0. -1.
          6    2    1    2  501    0 -0.17138500563E+03 -0.68902967068E+02 -0.11576486968E+03  0.27728063571E+03  0.17135520669E+03 0.  0.
         24    2    3    3    0    0 -0.27342143127E+02 -0.62734002802E+02 -0.24771053067E+02  0.10672751489E+03  0.78064136874E+02 0.  0.
         -6    2    1    2    0  502  0.17138500563E+03  0.68902967068E+02  0.22006812701E+03  0.33464511419E+03  0.17157194671E+03 0.  0.
        -24    2    5    5    0    0  0.18152405785E+03  0.96705516414E+02  0.20506410400E+03  0.30113402891E+03  0.79545434424E+02 0.  0.
          5    1    3    3  501    0 -0.14404286251E+03 -0.61689642659E+01 -0.90993816614E+02  0.17055312082E+03  0.47000000000E+01 0. -1.
        -11    1    4    4    0    0 -0.32812949573E+02 -0.19885824844E+01  0.12591376295E+02  0.35202086259E+02  0.00000000000E+00 0.  1.
         12    1    4    4    0    0  0.54708064459E+01 -0.60745420318E+02 -0.37362429362E+02  0.71525428630E+02  0.00000000000E+00 0. -1.
         -5    1    5    5    0  502 -0.10139052211E+02 -0.27802549346E+02  0.15004023008E+02  0.33511085275E+02  0.47000000000E+01 0.  1.
         13    1    6    6    0    0  0.32028294830E+02  0.57207742968E+02  0.68766647863E+02  0.95012574870E+02  0.00000000000E+00 0. -1.
        -14    1    6    6    0    0  0.14949576302E+03  0.39497773447E+02  0.13629745614E+03  0.20612145404E+03  0.00000000000E+00 0.  1.
</event>
<event>
12    1  0.8135779E-002  0.2078375E+03  0.7818608E-02  0.1143385E+00
         21   -1    0    0  501  502  0.00000000000E+00  0.00000000000E+00  0.12749388525E+04  0.12749388525E+04  0.00000000000E+00 0. -1.
         21   -1    0    0  502  503 -0.00000000000E+00 -0.00000000000E+00 -0.44995766359E+02  0.44995766359E+02  0.00000000000E+00 0. -1.
         -6    2    1    2    0  503  0.36071858089E+02 -0.10838394002E+03  0.28530967698E+03  0.35270728612E+03  0.17306808056E+03 0.  0.
        -24    2    3    3    0    0  0.38022050576E+02 -0.10038919223E+03  0.99838255774E+02  0.16699391201E+03  0.79972639602E+02 0.  0.
          6    2    1    2  501    0 -0.36071858089E+02  0.10838394002E+03  0.94463340918E+03  0.96722733275E+03  0.17363230713E+03 0.  0.
         24    2    5    5    0    0 -0.81263110028E+02  0.40833914208E+02  0.66837104140E+03  0.67921996984E+03  0.79679463136E+02 0.  0.
          5    1    5    5  501    0  0.45191251940E+02  0.67550025813E+02  0.27626236778E+03  0.28800736291E+03  0.47000000000E+01 0. -1.
        -13    1    6    6    0    0 -0.58677954144E+02 -0.12684118289E+02  0.26689700102E+03  0.27356534560E+03  0.00000000000E+00 0.  1.
         14    1    6    6    0    0 -0.22585155885E+02  0.53518032497E+02  0.40147404038E+03  0.40565462424E+03  0.00000000000E+00 0. -1.
         -5    1    3    3    0  503 -0.19501924873E+01 -0.79947477930E+01  0.18547142120E+03  0.18571337412E+03  0.47000000000E+01 0.  1.
         11    1    4    4    0    0  0.50695834557E+02 -0.29985673867E+02  0.26637442708E+02  0.64643341751E+02  0.00000000000E+00 0. -1.
        -12    1    4    4    0    0 -0.12673783981E+02 -0.70403518361E+02  0.73200813065E+02  0.10235057025E+03  0.00000000000E+00 0.  1.
</event>
<event>
12    1  0.8135779E-002  0.5925143E+03  0.7818608E-02  0.9921122E-01
         21   -1    0    0  503  502  0.00000000000E+00  0.00000000000E+00  0.17499391981E+04  0.17499391981E+04  0.00000000000E+00 0.  1.
         21   -1    0    0  501  503 -0.00000000000E+00 -0.00000000000E+00 -0.22961174284E+03  0.22961174284E+03  0.00000000000E+00 0. -1.
          6    2    1    2  501    0  0.42656510986E+03 -0.37326317100E+03  0.40828440432E+03  0.71956193426E+03  0.17259789872E+03 0.  0.
         24    2    3    3    0    0  0.21905042979E+03 -0.27687522917E+03  0.27722447081E+03  0.45583523112E+03  0.79305531936E+02 0.  0.
         -6    2    1    2    0  502 -0.42656510986E+03  0.37326317100E+03  0.11120430510E+04  0.12599890067E+04  0.17218990112E+03 0.  0.
        -24    2    5    5    0    0 -0.22176811347E+03  0.18935095101E+03  0.44318522691E+03  0.53669211525E+03  0.81181293526E+02 0.  0.
          5    1    3    3  501    0  0.20751468007E+03 -0.96387941832E+02  0.13105993351E+03  0.26372670314E+03  0.47000000000E+01 0. -1.
        -11    1    4    4    0    0  0.39406119536E+02 -0.10194446745E+03  0.63766650219E+02  0.12653735567E+03  0.00000000000E+00 0.  1.
         12    1    4    4    0    0  0.17964431026E+03 -0.17493076172E+03  0.21345782059E+03  0.32929787545E+03  0.00000000000E+00 0. -1.
         -5    1    5    5    0  502 -0.20479699640E+03  0.18391221999E+03  0.66885782408E+03  0.72329689148E+03  0.47000000000E+01 0.  1.
         11    1    6    6    0    0 -0.11175579706E+03  0.14124935454E+03  0.23135003876E+03  0.29319546171E+03  0.00000000000E+00 0. -1.
        -12    1    6    6    0    0 -0.11001231641E+03  0.48101596472E+02  0.21183518815E+03  0.24349665354E+03  0.00000000000E+00 0.  1.
</event>
<event>
12    1  0.8135779E-002  0.1938275E+03  0.7818608E-02  0.1155429E+00
         21   -1    0    0  501  502  0.00000000000E+00  0.00000000000E+00  0.19178911156E+03  0.19178911156E+03  0.00000000000E+00 0.  1.
         21   -1    0    0  502  503 -0.00000000000E+00 -0.00000000000E+00 -0.26730647064E+03  0.26730647064E+03  0.00000000000E+00 0.  1.
         -6    2    1    2    0  503 -0.54378577401E+02  0.70258551579E+02 -0.15794786189E+03  0.25003322014E+03  0.17226662575E+03 0.  0.
        -24    2    3    3    0    0 -0.67332370512E+01  0.11575065181E+02 -0.15889942407E+03  0.17429138557E+03  0.70350135052E+02 0.  0.
          6    2    1    2  501    0  0.54378577401E+02 -0.70258551579E+02  0.82430502800E+02  0.20906236206E+03  0.17034961018E+03 0.  0.
         24    2    5    5    0    0  0.47762293643E+02  0.67595639677E+01  0.91466323506E+02  0.13109248718E+03  0.80574334992E+02 0.  0.
          5    1    5    5  501    0  0.66162837573E+01 -0.77018115546E+02 -0.90358207059E+01  0.77969874881E+02  0.47000000000E+01 0. -1.
        -13    1    6    6    0    0  0.36881528294E+02 -0.33437569248E+02  0.64511077493E+02  0.81486178496E+02  0.00000000000E+00 0.  1.
         14    1    6    6    0    0  0.10880765350E+02  0.40197133216E+02  0.26955246013E+02  0.49606308681E+02  0.00000000000E+00 0. -1.
         -5    1    3    3    0  503 -0.47645340349E+02  0.58683486397E+02  0.95156217852E+00  0.75741834565E+02  0.47000000000E+01 0.  1.
         11    1    4    4    0    0 -0.43225969012E+01 -0.16544289662E+02 -0.49858916350E+01  0.17811723100E+02  0.00000000000E+00 0. -1.
        -12    1    4    4    0    0 -0.24106401499E+01  0.28119354844E+02 -0.15391353243E+03  0.15647966247E+03  0.00000000000E+00 0.  1.
</event>
<event>
12    1  0.8135779E-002  0.2277342E+03  0.7818608E-02  0.1128533E+00
         21   -1    0    0  503  502  0.00000000000E+00  0.00000000000E+00  0.37042974627E+03  0.37042974627E+03  0.00000000000E+00 0.  1.
         21   -1    0    0  501  503 -0.00000000000E+00 -0.00000000000E+00 -0.16349801410E+03  0.16349801410E+03  0.00000000000E+00 0. -1.
          6    2    1    2  501    0  0.11552605111E+03 -0.92809427600E+02 -0.14448544575E+00  0.22612357392E+03  0.17079810148E+03 0.  0.
         24    2    3    3    0    0  0.10244316554E+03 -0.72725236406E+02 -0.60516265909E+02  0.16099770727E+03  0.80464160530E+02 0.  0.
         -6    2    1    2    0  502 -0.11552605111E+03  0.92809427600E+02  0.20707621762E+03  0.30780418646E+03  0.17292483617E+03 0.  0.
        -24    2    5    5    0    0 -0.11104720390E+02  0.21443535135E+02  0.32321948881E+02  0.92031043186E+02  0.82715563931E+02 0.  0.
          5    1    3    3  501    0  0.13082885571E+02 -0.20084191194E+02  0.60371780463E+02  0.65125866651E+02  0.47000000000E+01 0. -1.
        -11    1    4    4    0    0  0.12408579838E+02 -0.56276271081E+02 -0.25164138550E+02  0.62882632017E+02  0.00000000000E+00 0.  1.
         12    1    4    4    0    0  0.90034585702E+02 -0.16448965325E+02 -0.35352127358E+02  0.98115075251E+02  0.00000000000E+00 0. -1.
         -5    1    5    5    0  502 -0.10442133072E+03  0.71365892465E+02  0.17475426874E+03  0.21577314327E+03  0.47000000000E+01 0.  1.
         13    1    6    6    0    0  0.32910930496E+02  0.18914587127E+02  0.29091242495E+02  0.47824589305E+02  0.00000000000E+00 0. -1.
        -14    1    6    6    0    0 -0.44015650886E+02  0.25289480075E+01  0.32307063859E+01  0.44206453880E+02  0.00000000000E+00 0.  1.
</event>
<event>
12    1  0.8135779E-002  0.2121447E+03  0.7818608E-02  0.1140713E+00
         21   -1    0    0  501  502  0.00000000000E+00  0.00000000000E+00  0.78149629762E+02  0.78149629762E+02  0.00000000000E+00 0. -1.
         21   -1    0    0  502  503 -0.00000000000E+00 -0.00000000000E+00 -0.63426503537E+03  0.63426503537E+03  0.00000000000E+00 0. -1.
         -6    2    1    2    0  503 -0.76242891683E+02 -0.89082765044E+02 -0.39371810359E+03  0.44524755852E+03  0.17170534561E+03 0.  0.
        -24    2    3    3    0    0 -0.73542171135E+02 -0.12364873980E+01 -0.28531438484E+03  0.30561332695E+03  0.81149415110E+02 0.  0.
          6    2    1    2  501    0  0.76242891683E+02  0.89082765044E+02 -0.16239730202E+03  0.26716710661E+03  0.17679553612E+03 0.  0.
         24    2    5    5    0    0 -0.17889802019E+02  0.54944284726E+02 -0.12843318419E+03  0.16132736379E+03  0.78692541350E+02 0.  0.
          5    1    5    5  501    0  0.94132693703E+02  0.34138480319E+02 -0.33964117824E+02  0.10583974283E+03  0.47000000000E+01 0. -1.
        -11    1    6    6    0    0 -0.26407624329E+02  0.15312547980E+02 -0.11444317411E+03  0.11844440404E+03  0.00000000000E+00 0.  1.
         12    1    6    6    0    0  0.85178223095E+01  0.39631736745E+02 -0.13990010082E+02  0.42882959744E+02  0.00000000000E+00 0. -1.
         -5    1    3    3    0  503 -0.27007205481E+01 -0.87846277646E+02 -0.10840371875E+03  0.13963423157E+03  0.47000000000E+01 0.  1.
         11    1    4    4    0    0  0.77363170349E+01 -0.22153980358E+02 -0.90440475073E+02  0.93435159220E+02  0.00000000000E+00 0. -1.
        -12    1    4    4    0    0 -0.81278488170E+02  0.20917492960E+02 -0.19487390977E+03  0.21217816773E+03  0.00000000000E+00 0.  1.
</event>
<event>
12    1  0.8135779E-002  0.2086400E+03  0.7818608E-02  0.1142738E+00
         21   -1    0    0  503  502  0.00000000000E+00  0.00000000000E+00  0.93475717231E+03  0.93475717231E+03  0.00000000000E+00 0. -1.
         21   -1    0    0  501  503 -0.00000000000E+00 -0.00000000000E+00 -0.46470289828E+02  0.46470289828E+02  0.00000000000E+00 0.  1.
          6    2    1    2  501    0 -0.34066072000E+02 -0.11127629066E+03  0.43979818151E+03  0.48658339013E+03  0.17262110233E+03 0.  0.
         24    2    3    3    0    0 -0.56460001541E+02 -0.71899501172E+02  0.14077369426E+03  0.18411065813E+03  0.75645432105E+02 0.  0.
         -6    2    1    2    0  502  0.34066072000E+02  0.11127629066E+03  0.44848870097E+03  0.49464407201E+03  0.17316966521E+03 0.  0.
        -24    2    5    5    0    0  0.53767171548E+02  0.42787718468E+02  0.38567912800E+03  0.39953387118E+03  0.78467998943E+02 0.  0.
          5    1    3    3  501    0  0.22393929540E+02 -0.39376789485E+02  0.29902448725E+03  0.30247273200E+03  0.47000000000E+01 0. -1.
        -11    1    4    4    0    0 -0.78145947705E+00 -0.61188549592E+02  0.62612783823E+02  0.87550042709E+02  0.00000000000E+00 0.  1.
         12    1    4    4    0    0 -0.55678542064E+02 -0.10710951579E+02  0.78160910441E+02  0.96560615424E+02  0.00000000000E+00 0. -1.
         -5    1    5    5    0  502 -0.19701099548E+02  0.68488572189E+02  0.62809572967E+02  0.95110200821E+02  0.47000000000E+01 0.  1.
         11    1    6    6    0    0 -0.90276311950E+01  0.23096672111E+02  0.35990883352E+02  0.43706956792E+02  0.00000000000E+00 0. -1.
        -12    1    6    6    0    0  0.62794802743E+02  0.19691046357E+02  0.34968824465E+03  0.35582691439E+03  0.00000000000E+00 0.  1.
</event>
<event>
12    1  0.8135779E-002  0.3133862E+03  0.7818608E-02  0.1079207E+00
         21   -1    0    0  503  502  0.00000000000E+00  0.00000000000E+00  0.29038101610E+03  0.29038101610E+03  0.00000000000E+00 0. -1.
         21   -1    0    0  501  503 -0.00000000000E+00 -0.00000000000E+00 -0.33538164333E+03  0.33538164333E+03  0.00000000000E+00 0.  1.
          6    2    1    2  501    0 -0.25859840700E+03  0.35186550837E+02 -0.43193147722E+02  0.31634878722E+03  0.17349258687E+03 0.  0.
         24    2    3    3    0    0 -0.42702527573E+02  0.38465982909E+00 -0.35428815895E+02  0.97477644258E+02  0.80143847612E+02 0.  0.
         -6    2    1    2    0  502  0.25859840700E+03 -0.35186550837E+02 -0.18074795097E+01  0.30941387221E+03  0.16620002367E+03 0.  0.
        -24    2    5    5    0    0  0.91078275065E+02 -0.45741230084E+02  0.38952450781E+02  0.13661960791E+03  0.82219897374E+02 0.  0.
          5    1    3    3  501    0 -0.21589587943E+03  0.34801891008E+02 -0.77643318271E+01  0.21887114296E+03  0.47000000000E+01 0. -1.
        -11    1    4    4    0    0 -0.14769251295E+02  0.33479953909E+02  0.65375108460E+01  0.37172263122E+02  0.00000000000E+00 0.  1.
         12    1    4    4    0    0 -0.27933276278E+02 -0.33095294080E+02 -0.41966326741E+02  0.60305381136E+02  0.00000000000E+00 0. -1.
         -5    1    5    5    0  502  0.16752013193E+03  0.10554679248E+02 -0.40759930290E+02  0.17279426430E+03  0.47000000000E+01 0.  1.
         13    1    6    6    0    0 -0.87503400224E+01  0.11652232710E+02  0.10628423050E+02  0.18036251111E+02  0.00000000000E+00 0. -1.
        -14    1    6    6    0    0  0.99828615088E+02 -0.57393462794E+02  0.28324027731E+02  0.11858335679E+03  0.00000000000E+00 0.  1.
</event>
<event>
12    1  0.8135779E-002  0.2062404E+03  0.7818608E-02  0.1144679E+00
         21   -1    0    0  503  502  0.00000000000E+00  0.00000000000E+00  0.10037611238E+03  0.10037611238E+03  0.00000000000E+00 0. -1.
         21   -1    0    0  501  503 -0.00000000000E+00 -0.00000000000E+00 -0.52020453366E+03  0.52020453366E+03  0.00000000000E+00 0.  1.
          6    2    1    2  501    0  0.17651756699E+02  0.11016514202E+03 -0.34442922565E+03  0.40145557708E+03  0.17345646674E+03 0.  0.
         24    2    3    3    0    0  0.28751305444E+02  0.33596696933E+02 -0.66759133262E+02  0.11316978663E+03  0.79970263995E+02 0.  0.
         -6    2    1    2    0  502 -0.17651756699E+02 -0.11016514202E+03 -0.75399195628E+02  0.21912506896E+03  0.17286646325E+03 0.  0.
        -24    2    5    5    0    0  0.58914735680E+01 -0.12921859175E+03 -0.97752326296E+02  0.18118999168E+03  0.80883508034E+02 0.  0.
          5    1    3    3  501    0 -0.11099548745E+02  0.76568445083E+02 -0.27767009239E+03  0.28828579045E+03  0.47000000000E+01 0. -1.
        -13    1    4    4    0    0  0.46711204872E+02  0.31934370638E+02 -0.74491701876E+02  0.93545466683E+02  0.00000000000E+00 0.  1.
         14    1    4    4    0    0 -0.17959899428E+02  0.16623262950E+01  0.77325686135E+01  0.19624319951E+02  0.00000000000E+00 0. -1.
         -5    1    5    5    0  502 -0.23543230267E+02  0.19053449736E+02  0.22353130668E+02  0.37935077289E+02  0.47000000000E+01 0.  1.
         13    1    6    6    0    0  0.11369891322E+02 -0.56849023291E+02  0.17857224590E+01  0.58002367904E+02  0.00000000000E+00 0. -1.
        -14    1    6    6    0    0 -0.54784177538E+01 -0.72369568461E+02 -0.99538048755E+02  0.12318762377E+03  0.00000000000E+00 0.  1.
</event>
<event>
12    1  0.8135779E-002  0.2339800E+03  0.7818608E-02  0.1124703E+00
         21   -1    0    0  503  502  0.00000000000E+00  0.00000000000E+00  0.46775893826E+02  0.46775893826E+02  0.00000000000E+00 0.  1.
         21   -1    0    0  501  503 -0.00000000000E+00 -0.00000000000E+00 -0.19981010622E+04  0.19981010622E+04  0.00000000000E+00 0.  1.
          6    2    1    2  501    0  0.11424000341E+03 -0.10329020801E+03 -0.16488933654E+04  0.16654116531E+04  0.17614482165E+03 0.  0.
         24    2    3    3    0    0  0.90677907339E+02 -0.70599802928E+02 -0.15745636916E+04  0.15807309270E+04  0.79073570960E+02 0.  0.
         -6    2    1    2    0  502 -0.11424000341E+03  0.10329020801E+03 -0.30243180294E+03  0.37946530295E+03  0.16973295278E+03 0.  0.
        -24    2    5    5    0    0 -0.11188170482E+03  0.13756890227E+03 -0.25172053941E+03  0.31802986773E+03  0.79605578067E+02 0.  0.
          5    1    3    3  501    0  0.23562096070E+02 -0.32690405084E+02 -0.74329673778E+02  0.84680726022E+02  0.47000000000E+01 0. -1.
        -11    1    4    4    0    0  0.84141550197E+02 -0.54446396003E+02 -0.83955616211E+03  0.84551685958E+03  0.00000000000E+00 0.  1.
         12    1    4    4    0    0  0.65363571422E+01 -0.16153406925E+02 -0.73500752952E+03  0.73521406745E+03  0.00000000000E+00 0. -1.
         -5    1    5    5    0  502 -0.23582985862E+01 -0.34278694254E+02 -0.50711263528E+02  0.61435435219E+02  0.47000000000E+01 0.  1.
         11    1    6    6    0    0 -0.50602179560E+02  0.10962593661E+03 -0.19786551614E+03  0.23179557595E+03  0.00000000000E+00 0. -1.
        -12    1    6    6    0    0 -0.61279525264E+02  0.27942965656E+02 -0.53855023273E+02  0.86234291775E+02  0.00000000000E+00 0.  1.
</event>
<event>
12    1  0.8135779E-002  0.2353739E+03  0.7818608E-02  0.1122945E+00
         21   -1    0    0  503  502  0.00000000000E+00  0.00000000000E+00  0.13135522037E+04  0.13135522037E+04  0.00000000000E+00 0.  1.
         21   -1    0    0  501  503 -0.00000000000E+00 -0.00000000000E+00 -0.57667994394E+02  0.57667994394E+02  0.00000000000E+00 0.  1.
          6    2    1    2  501    0 -0.10835727014E+03 -0.11809709679E+03  0.27202937902E+03  0.35960207691E+03  0.17212044739E+03 0.  0.
         24    2    3    3    0    0 -0.60724810082E+01 -0.76649297087E+02  0.17833492039E+03  0.21475443362E+03  0.91674059374E+02 0.  0.
         -6    2    1    2    0  502  0.10835727014E+03  0.11809709679E+03  0.98385483028E+03  0.10116181212E+04  0.17237364579E+03 0.  0.
        -24    2    5    5    0    0  0.96538443800E+02  0.12425080190E+03  0.55003985635E+03  0.57757310698E+03  0.79302694952E+02 0.  0.
          5    1    3    3  501    0 -0.10228478913E+03 -0.41447799702E+02  0.93694458632E+02  0.14484764329E+03  0.47000000000E+01 0. -1.
        -11    1    4    4    0    0 -0.38642525213E+02 -0.93110854451E+01  0.93813410281E+02  0.10188668714E+03  0.00000000000E+00 0.  1.
         12    1    4    4    0    0  0.32570044205E+02 -0.67338211642E+02  0.84521510106E+02  0.11286774649E+03  0.00000000000E+00 0. -1.
         -5    1    5    5    0  502  0.11818826341E+02 -0.61537051130E+01  0.43381497393E+03  0.43404501420E+03  0.47000000000E+01 0.  1.
         11    1    6    6    0    0  0.22173997794E+02  0.77089235853E+02  0.17776410248E+03  0.19502438974E+03  0.00000000000E+00 0. -1.
        -12    1    6    6    0    0  0.74364446006E+02  0.47161566049E+02  0.37227575387E+03  0.38254871724E+03  0.00000000000E+00 0.  1.
</event>
<event>
12    1  0.8135779E-002  0.1781177E+03  0.7818608E-02  0.1170803E+00
         21   -1    0    0  501  502  0.00000000000E+00  0.00000000000E+00  0.27176587236E+03  0.27176587236E+03  0.00000000000E+00 0.  1.
         21   -1    0    0  502  503 -0.00000000000E+00 -0.00000000000E+00 -0.13778797723E+03  0.13778797723E+03  0.00000000000E+00 0.  1.
         -6    2    1    2    0  503 -0.45273384396E+02 -0.50576249893E+01 -0.19377569488E+02  0.17451383934E+03  0.16734494620E+03 0.  0.
        -24    2    3    3    0    0 -0.77854186380E+02  0.40957379699E+01  0.27871197412E+02  0.11620578943E+03  0.81540986288E+02 0.  0.
          6    2    1    2  501    0  0.45273384396E+02  0.50576249893E+01  0.15335546462E+03  0.23504001026E+03  0.17219363806E+03 0.  0.
         24    2    5    5    0    0  0.64506629376E+02  0.27792373435E+02  0.16870440033E+03  0.20121004829E+03  0.84206814358E+02 0.  0.
          5    1    5    5  501    0 -0.19233244980E+02 -0.22734748445E+02 -0.15348935715E+02  0.33829961970E+02  0.47000000000E+01 0. -1.
        -13    1    6    6    0    0  0.51652728472E+02  0.33157321336E+02  0.17534642398E+03  0.18577884896E+03  0.00000000000E+00 0.  1.
         14    1    6    6    0    0  0.12853900904E+02 -0.53649479016E+01 -0.66420236504E+01  0.15431199325E+02  0.00000000000E+00 0. -1.
         -5    1    3    3    0  503  0.32580801983E+02 -0.91533629592E+01 -0.47248766900E+02  0.58308049915E+02  0.47000000000E+01 0.  1.
         11    1    4    4    0    0  0.87974069804E+00  0.22532616014E+02  0.27209818939E+02  0.35339312031E+02  0.00000000000E+00 0. -1.
        -12    1    4    4    0    0 -0.78733927078E+02 -0.18436878044E+02  0.66137847315E+00  0.80866477397E+02  0.00000000000E+00 0.  1.
</event>
<event>
12    1  0.8135779E-002  0.2214814E+03  0.7818608E-02  0.1133111E+00
         21   -1    0    0  503  502  0.00000000000E+00  0.00000000000E+00  0.80292251766E+02  0.80292251766E+02  0.00000000000E+00 0. -1.
         21   -1    0    0  501  503 -0.00000000000E+00 -0.00000000000E+00 -0.91916435642E+03  0.91916435642E+03  0.00000000000E+00 0. -1.
          6    2    1    2  501    0 -0.13818940570E+03  0.32888132720E+01 -0.71219366304E+03  0.74583765569E+03  0.17305163055E+03 0.  0.
         24    2    3    3    0    0 -0.34178628837E+02  0.30910850659E+02 -0.48648080592E+03  0.49573847032E+03  0.83482914872E+02 0.  0.
         -6    2    1    2    0  502  0.13818940570E+03 -0.32888132720E+01 -0.12667844162E+03  0.25361895250E+03  0.17078646713E+03 0.  0.
        -24    2    5    5    0    0  0.14721943176E+03  0.29380984265E+02 -0.64723431878E+02  0.18284204755E+03  0.81885825364E+02 0.  0.
          5    1    3    3  501    0 -0.10401077686E+03 -0.27622037387E+02 -0.22571285712E+03  0.25009918537E+03  0.47000000000E+01 0. -1.
        -11    1    4    4    0    0 -0.22641096668E+01  0.17194483493E+02 -0.14855293330E+02  0.22835415369E+02  0.00000000000E+00 0.  1.
         12    1    4    4    0    0 -0.31914519171E+02  0.13716367166E+02 -0.47162551259E+03  0.47290305495E+03  0.00000000000E+00 0. -1.
         -5    1    5    5    0  502 -0.90300260590E+01 -0.32669797537E+02 -0.61955009742E+02  0.70776904947E+02  0.47000000000E+01 0.  1.
         13    1    6    6    0    0  0.19582564655E+02  0.20369072443E+01  0.19327343429E+02  0.27589346379E+02  0.00000000000E+00 0. -1.
        -14    1    6    6    0    0  0.12763686710E+03  0.27344077020E+02 -0.84050775307E+02  0.15525270117E+03  0.00000000000E+00 0.  1.
</event>
<event>
12    1  0.8135779E-002  0.2237102E+03  0.7818608E-02  0.1131476E+00
         21   -1    0    0  501  502  0.00000000000E+00  0.00000000000E+00  0.40293804588E+03  0.40293804588E+03  0.00000000000E+00 0. -1.
         21   -1    0    0  502  503 -0.00000000000E+00 -0.00000000000E+00 -0.12571322161E+03  0.12571322161E+03  0.00000000000E+00 0. -1.
         -6    2    1    2    0  503  0.11001150641E+03  0.89960498679E+02  0.17538839366E+03  0.28285272630E+03  0.17043812156E+03 0.  0.
        -24    2    3    3    0    0  0.30212405533E+02  0.88397602648E+02  0.16044400160E+03  0.20151537941E+03  0.78353333623E+02 0.  0.
          6    2    1    2  501    0 -0.11001150641E+03 -0.89960498679E+02  0.10183643061E+03  0.24579854119E+03  0.17277396039E+03 0.  0.
         24    2    5    5    0    0 -0.47555554084E+01 -0.65644759738E+01  0.71768528612E+02  0.10810365910E+03  0.80436134660E+02 0.  0.
          5    1    5    5  501    0 -0.10525595100E+03 -0.83396022705E+02  0.30067901995E+02  0.13769488209E+03  0.47000000000E+01 0. -1.
        -11    1    6    6    0    0  0.19428310381E+02 -0.29325384186E+02  0.78052902651E+01  0.36032762287E+02  0.00000000000E+00 0.  1.
         12    1    6    6    0    0 -0.24183865790E+02  0.22760908212E+02  0.63963238347E+02  0.72070896810E+02  0.00000000000E+00 0. -1.
         -5    1    3    3    0  503  0.79799100878E+02  0.15628960309E+01  0.14944392062E+02  0.81337346889E+02  0.47000000000E+01 0.  1.
         11    1    4    4    0    0  0.27111279495E+02  0.78536807003E+02  0.64937426374E+02  0.10545103543E+03  0.00000000000E+00 0. -1.
        -12    1    4    4    0    0  0.31011260380E+01  0.98607956457E+01  0.95506575223E+02  0.96064343980E+02  0.00000000000E+00 0.  1.
</event>
<event>
12    1  0.8135779E-002  0.1809963E+03  0.7818608E-02  0.1166969E+00
         21   -1    0    0  501  502  0.00000000000E+00  0.00000000000E+00  0.49288266175E+03  0.49288266175E+03  0.00000000000E+00 0. -1.
         21   -1    0    0  502  503 -0.00000000000E+00 -0.00000000000E+00 -0.33645985440E+03  0.33645985440E+03  0.00000000000E+00 0. -1.
         -6    2    1    2    0  503 -0.60533729327E+01 -0.56335899438E+02 -0.29340644198E+03  0.34446519476E+03  0.17134337837E+03 0.  0.
        -24    2    3    3    0    0 -0.38021688312E+02 -0.58453755686E+02 -0.29549106276E+03  0.31201686434E+03  0.71951825003E+02 0.  0.
          6    2    1    2  501    0  0.60533729327E+01  0.56335899438E+02  0.44982924933E+03  0.48487732140E+03  0.17189905866E+03 0.  0.
         24    2    5    5    0    0 -0.37111100081E+02  0.65425418185E+02  0.17446052704E+03  0.20595831112E+03  0.79527550761E+02 0.  0.
          5    1    5    5  501    0  0.43164473014E+02 -0.90895187466E+01  0.27536872228E+03  0.27891901027E+03  0.47000000000E+01 0. -1.
        -11    1    6    6    0    0  0.15298705184E+00 -0.16734147656E+02  0.46283146492E+02  0.49215696196E+02  0.00000000000E+00 0.  1.
         12    1    6    6    0    0 -0.37264087133E+02  0.82159565841E+02  0.12817738055E+03  0.15674261493E+03  0.00000000000E+00 0. -1.
         -5    1    3    3    0  503  0.31968315379E+02  0.21178562479E+01  0.20846207808E+01  0.32448330420E+02  0.47000000000E+01 0.  1.
         13    1    4    4    0    0 -0.55836111339E+02 -0.24326040469E+02 -0.16140698074E+03  0.17251562540E+03  0.00000000000E+00 0. -1.
        -14    1    4    4    0    0  0.17814423027E+02 -0.34127715217E+02 -0.13408408202E+03  0.13950123894E+03  0.00000000000E+00 0.  1.
</event>
<event>
12    1  0.8135779E-002  0.1755733E+03  0.7818608E-02  0.1172479E+00
         21   -1    0    0  501  502  0.00000000000E+00  0.00000000000E+00  0.20117895442E+03  0.20117895442E+03  0.00000000000E+00 0.  1.
         21   -1    0    0  502  503 -0.00000000000E+00 -0.00000000000E+00 -0.17557167976E+03  0.17557167976E+03  0.00000000000E+00 0.  1.
         -6    2    1    2    0  503 -0.24431164524E+02  0.18988372544E+02 -0.56018067729E+02  0.18429322801E+03  0.17282514252E+03 0.  0.
        -24    2    3    3    0    0 -0.59712761513E+02  0.10969618993E+02  0.18514340097E+02  0.10130972778E+03  0.78961596524E+02 0.  0.
          6    2    1    2  501    0  0.24431164524E+02 -0.18988372544E+02  0.81625342397E+02  0.19245740616E+03  0.17152176706E+03 0.  0.
         24    2    5    5    0    0  0.78080141674E+02 -0.60069401578E+01  0.32942325631E+02  0.11870880308E+03  0.82909536580E+02 0.  0.
          5    1    5    5  501    0 -0.53648977149E+02 -0.12981432387E+02  0.48683016766E+02  0.73748603088E+02  0.47000000000E+01 0. -1.
        -13    1    6    6    0    0 -0.16684393926E+02  0.10184721622E+01  0.14024143166E+02  0.21819323494E+02  0.00000000000E+00 0.  1.
         14    1    6    6    0    0  0.94764535600E+02 -0.70254123200E+01  0.18918182465E+02  0.96889479581E+02  0.00000000000E+00 0. -1.
         -5    1    3    3    0  503  0.35281596988E+02  0.80187535515E+01 -0.74532407826E+02  0.82983500233E+02  0.47000000000E+01 0.  1.
         11    1    4    4    0    0 -0.75065632256E+02  0.21610961580E+02  0.24210510473E+02  0.81780386547E+02  0.00000000000E+00 0. -1.
        -12    1    4    4    0    0  0.15352870743E+02 -0.10641342587E+02 -0.56961703764E+01  0.19529341235E+02  0.00000000000E+00 0.  1.
</event>
<event>
12    1  0.8135779E-002  0.1792024E+03  0.7818608E-02  0.1168582E+00
         21   -1    0    0  503  502  0.00000000000E+00  0.00000000000E+00  0.70991113326E+02  0.70991113326E+02  0.00000000000E+00 0. -1.
         21   -1    0    0  501  503 -0.00000000000E+00 -0.00000000000E+00 -0.46506337934E+03  0.46506337934E+03  0.00000000000E+00 0. -1.
          6    2    1    2  501    0 -0.38942804303E+02 -0.33717630709E+02 -0.15265556550E+03  0.23540865193E+03  0.17163942175E+03 0.  0.
         24    2    3    3    0    0 -0.87813216695E+02  0.16379523452E+01 -0.10415320869E+03  0.15786574073E+03  0.79748713493E+02 0.  0.
         -6    2    1    2    0  502  0.38942804303E+02  0.33717630709E+02 -0.24141670051E+03  0.30064584073E+03  0.17161724166E+03 0.  0.
        -24    2    5    5    0    0 -0.92882568255E+01 -0.26581870846E+02 -0.19037137540E+03  0.20796369380E+03  0.78833811220E+02 0.  0.
          5    1    3    3  501    0  0.48870412392E+02 -0.35355583054E+02 -0.48502356815E+02  0.77542911198E+02  0.47000000000E+01 0. -1.
        -13    1    4    4    0    0  0.91090323091E+01  0.11132287375E+02 -0.36651258427E+02  0.39372795635E+02  0.00000000000E+00 0.  1.
         14    1    4    4    0    0 -0.96922249004E+02 -0.94943350293E+01 -0.67501950259E+02  0.11849294510E+03  0.00000000000E+00 0. -1.
         -5    1    5    5    0  502  0.48231061128E+02  0.60299501554E+02 -0.51045325107E+02  0.92682146935E+02  0.47000000000E+01 0.  1.
         13    1    6    6    0    0  0.29015627318E+02 -0.12965935547E+02 -0.34623723324E+02  0.46998131134E+02  0.00000000000E+00 0. -1.
        -14    1    6    6    0    0 -0.38303884144E+02 -0.13615935299E+02 -0.15574765208E+03  0.16096556266E+03  0.00000000000E+00 0.  1.
</event>
<event>
12    1  0.8135779E-002  0.1920276E+03  0.7818608E-02  0.1156852E+00
         21   -1    0    0  501  502  0.00000000000E+00  0.00000000000E+00  0.44483336530E+03  0.44483336530E+03  0.00000000000E+00 0. -1.
         21   -1    0    0  502  503 -0.00000000000E+00 -0.00000000000E+00 -0.12106649929E+03  0.12106649929E+03  0.00000000000E+00 0. -1.
         -6    2    1    2    0  503  0.31877077853E+02  0.75957264641E+02  0.19058475484E+01  0.19110778617E+03  0.17243230422E+03 0.  0.
        -24    2    3    3    0    0  0.45009095599E+02  0.94618715400E+02  0.48369827244E+02  0.13912999242E+03  0.77710968416E+02 0.  0.
          6    2    1    2  501    0 -0.31877077853E+02 -0.75957264641E+02  0.32186101846E+03  0.37479207842E+03  0.17346161737E+03 0.  0.
         24    2    5    5    0    0 -0.26543037402E+02  0.12509013291E+02  0.79562628127E+02  0.11675073624E+03  0.80246584783E+02 0.  0.
          5    1    5    5  501    0 -0.53340404510E+01 -0.88466277933E+02  0.24229839033E+03  0.25804134218E+03  0.47000000000E+01 0. -1.
        -11    1    6    6    0    0 -0.33792445196E+01  0.95397252211E+01 -0.15693425068E+02  0.18673758089E+02  0.00000000000E+00 0.  1.
         12    1    6    6    0    0 -0.23163792882E+02  0.29692880703E+01  0.95256053195E+02  0.98076978148E+02  0.00000000000E+00 0. -1.
         -5    1    3    3    0  503 -0.13132017746E+02 -0.18661450759E+02 -0.46463979696E+02  0.51977793755E+02  0.47000000000E+01 0.  1.
         13    1    4    4    0    0  0.44771418927E+02  0.89573104630E+02  0.10233439176E+02  0.10066053995E+03  0.00000000000E+00 0. -1.
        -14    1    4    4    0    0  0.23767667194E+00  0.50456107699E+01  0.38136388069E+02  0.38469452468E+02  0.00000000000E+00 0.  1.
</event>
<event>
12    1  0.8135779E-002  0.2303511E+03  0.7818608E-02  0.1126760E+00
         21   -1    0    0  503  502  0.00000000000E+00  0.00000000000E+00  0.22027968244E+03  0.22027968244E+03  0.00000000000E+00 0.  1.
         21   -1    0    0  501  503 -0.00000000000E+00 -0.00000000000E+00 -0.26164934554E+03  0.26164934554E+03  0.00000000000E+00 0. -1.
          6    2    1    2  501    0  0.59679637879E+01 -0.15294965670E+03  0.50744497634E+02  0.23384302704E+03  0.16934681331E+03 0.  0.
         24    2    3    3    0    0 -0.31595062319E+02 -0.95754851183E+02  0.87972353135E+02  0.15580310178E+03  0.79801203759E+02 0.  0.
         -6    2    1    2    0  502 -0.59679637879E+01  0.15294965670E+03 -0.92114160738E+02  0.24808600094E+03  0.17214073073E+03 0.  0.
        -24    2    5    5    0    0  0.10425983330E+01  0.17793194908E+03 -0.10140573742E+03  0.22012734734E+03  0.80697335468E+02 0.  0.
          5    1    3    3  501    0  0.37563026107E+02 -0.57194805517E+02 -0.37227855500E+02  0.78039925254E+02  0.47000000000E+01 0. -1.
        -11    1    4    4    0    0  0.41127406943E+01 -0.68308518348E+02  0.87087270951E+02  0.11075721681E+03  0.00000000000E+00 0.  1.
         12    1    4    4    0    0 -0.35707803014E+02 -0.27446332835E+02  0.88508218402E+00  0.45045884969E+02  0.00000000000E+00 0. -1.
         -5    1    5    5    0  502 -0.70105621209E+01 -0.24982292379E+02  0.92915766799E+01  0.27958653597E+02  0.47000000000E+01 0.  1.
         13    1    6    6    0    0 -0.16389940579E+02  0.12461496479E+03 -0.29811944552E+02  0.12917535229E+03  0.00000000000E+00 0. -1.
        -14    1    6    6    0    0  0.17432538912E+02  0.53316984291E+02 -0.71593792866E+02  0.90951995051E+02  0.00000000000E+00 0.  1.
</event>
<event>
12    1  0.8135779E-002  0.2657603E+03  0.7818608E-02  0.1104132E+00
         21   -1    0    0  501  502  0.00000000000E+00  0.00000000000E+00  0.16894253494E+04  0.16894253494E+04  0.00000000000E+00 0. -1.
         21   -1    0    0  502  503 -0.00000000000E+00 -0.00000000000E+00 -0.46760017891E+02  0.46760017891E+02  0.00000000000E+00 0.  1.
         -6    2    1    2    0  503 -0.15195492514E+03 -0.12815514644E+03  0.52306974019E+03  0.58548001408E+03  0.17225229448E+03 0.  0.
        -24    2    3    3    0    0 -0.71669392381E+02 -0.51547820449E+02  0.40997453597E+03  0.42696482748E+03  0.80163359225E+02 0.  0.
          6    2    1    2  501    0  0.15195492514E+03  0.12815514644E+03  0.11195955913E+04  0.11507053532E+04  0.17639297313E+03 0.  0.
         24    2    5    5    0    0  0.14562538011E+03  0.15961608913E+03  0.10256372862E+04  0.10513066251E+04  0.81423152908E+02 0.  0.
          5    1    5    5  501    0  0.63295450321E+01 -0.31460942689E+02  0.93958305139E+02  0.99398728160E+02  0.47000000000E+01 0. -1.
        -11    1    6    6    0    0  0.15281049866E+03  0.13969019129E+03  0.87343611593E+03  0.89763859468E+03  0.00000000000E+00 0.  1.
         12    1    6    6    0    0 -0.71851185453E+01  0.19925897844E+02  0.15220117027E+03  0.15366803040E+03  0.00000000000E+00 0. -1.
         -5    1    3    3    0  503 -0.80285532763E+02 -0.76607325992E+02  0.11309520422E+03  0.15851518660E+03  0.47000000000E+01 0.  1.
         13    1    4    4    0    0 -0.52328853757E+02 -0.13647446049E+02  0.96537444475E+02  0.11065278987E+03  0.00000000000E+00 0. -1.
        -14    1    4    4    0    0 -0.19340538624E+02 -0.37900374400E+02  0.31343709150E+03  0.31631203762E+03  0.00000000000E+00 0.  1.
</event>
<event>
12    1  0.8135779E-002  0.1854246E+03  0.7818608E-02  0.1164401E+00
         21   -1    0    0  501  502  0.00000000000E+00  0.00000000000E+00  0.45430475039E+02  0.45430475039E+02  0.00000000000E+00 0.  1.
         21   -1    0    0  502  503 -0.00000000000E+00 -0.00000000000E+00 -0.10246460361E+04  0.10246460361E+04  0.00000000000E+00 0.  1.
         -6    2    1    2    0  503 -0.67447692779E+02  0.17562708707E+02 -0.77085040231E+03  0.79115302673E+03  0.16387534583E+03 0.  0.
        -24    2    3    3    0    0 -0.20379913679E+02  0.47788175674E+02 -0.25918820240E+03  0.27642081335E+03  0.80813929315E+02 0.  0.
          6    2    1    2  501    0  0.67447692779E+02 -0.17562708707E+02 -0.20836515875E+03  0.27892348440E+03  0.17182732836E+03 0.  0.
         24    2    5    5    0    0  0.23240286469E+02 -0.75010330730E+02 -0.11041679371E+03  0.15697884015E+03  0.79270595367E+02 0.  0.
          5    1    5    5  501    0  0.44207406309E+02  0.57447622023E+02 -0.97948365039E+02  0.12194464425E+03  0.47000000000E+01 0. -1.
        -11    1    6    6    0    0  0.44751024093E+02 -0.66194658149E+02 -0.55335123658E+02  0.97192401118E+02  0.00000000000E+00 0.  1.
         12    1    6    6    0    0 -0.21510737624E+02 -0.88156725802E+01 -0.55081670054E+02  0.59786439032E+02  0.00000000000E+00 0. -1.
         -5    1    3    3    0  503 -0.47067779099E+02 -0.30225466967E+02 -0.51166219991E+03  0.51473221339E+03  0.47000000000E+01 0.  1.
         11    1    4    4    0    0 -0.48453444476E+02  0.19705164459E+02 -0.10647493100E+03  0.11862942603E+03  0.00000000000E+00 0. -1.
        -12    1    4    4    0    0  0.28073530797E+02  0.28083011215E+02 -0.15271327140E+03  0.15779138732E+03  0.00000000000E+00 0.  1.
</event>
<event>
12    1  0.8135779E-002  0.2528448E+03  0.7818608E-02  0.1111560E+00
         21   -1    0    0  501  502  0.00000000000E+00  0.00000000000E+00  0.16725676641E+04  0.16725676641E+04  0.00000000000E+00 0. -1.
         21   -1    0    0  502  503 -0.00000000000E+00 -0.00000000000E+00 -0.47005823118E+02  0.47005823118E+02  0.00000000000E+00 0.  1.
         -6    2    1    2    0  503 -0.33879998457E+02 -0.18216000583E+03  0.11855772492E+04  0.12122392215E+04  0.17204765143E+03 0.  0.
        -24    2    3    3    0    0 -0.17149713163E+02 -0.35940648959E+02  0.25231335636E+03  0.26743046498E+03  0.79190787917E+02 0.  0.
          6    2    1    2  501    0  0.33879998457E+02  0.18216000583E+03  0.43998459181E+03  0.50733426572E+03  0.17167263651E+03 0.  0.
         24    2    5    5    0    0  0.32402860541E+02  0.16922405698E+03  0.45120985551E+03  0.48951244611E+03  0.79657858105E+02 0.  0.
          5    1    5    5  501    0  0.14771379157E+01  0.12935948854E+02 -0.11225263698E+02  0.17821819612E+02  0.47000000000E+01 0. -1.
        -13    1    6    6    0    0  0.26847017422E+02  0.11994053343E+03  0.21057889982E+03  0.24382363904E+03  0.00000000000E+00 0.  1.
         14    1    6    6    0    0  0.55558431188E+01  0.49283523550E+02  0.24063095569E+03  0.24568880707E+03  0.00000000000E+00 0. -1.
         -5    1    3    3    0  503 -0.16730285294E+02 -0.14621935687E+03  0.93326389285E+03  0.94480875656E+03  0.47000000000E+01 0.  1.
         13    1    4    4    0    0 -0.38150839623E+01  0.16014323589E+02  0.15860006577E+03  0.15945216928E+03  0.00000000000E+00 0. -1.
        -14    1    4    4    0    0 -0.13334629201E+02 -0.51954972549E+02  0.93713290588E+02  0.10797829570E+03  0.00000000000E+00 0.  1.
</event>
<event>
12    1  0.8135779E-002  0.2090139E+03  0.7818608E-02  0.1142517E+00
         21   -1    0    0  503  502  0.00000000000E+00  0.00000000000E+00  0.28881355638E+03  0.28881355638E+03  0.00000000000E+00 0. -1.
         21   -1    0    0  501  503 -0.00000000000E+00 -0.00000000000E+00 -0.16430967901E+03  0.16430967901E+03  0.00000000000E+00 0. -1.
          6    2    1    2  501    0  0.86375651995E+02  0.79744708472E+02 -0.29458361020E+01  0.20903469539E+03  0.17282029435E+03 0.  0.
         24    2    3    3    0    0  0.68109450893E+02 -0.23287089161E+01  0.44823990180E+02  0.11221658630E+03  0.77065244818E+02 0.  0.
         -6    2    1    2    0  502 -0.86375651995E+02 -0.79744708472E+02  0.12744971347E+03  0.24408854000E+03  0.17180167086E+03 0.  0.
        -24    2    5    5    0    0 -0.10273674760E+03 -0.11097935089E+03  0.11740822306E+03  0.20712626375E+03  0.79027480430E+02 0.  0.
          5    1    3    3  501    0  0.18266201102E+02  0.82073417388E+02 -0.47769826282E+02  0.96818109089E+02  0.47000000000E+01 0. -1.
        -13    1    4    4    0    0 -0.16908595335E+02  0.33443580675E+01  0.11523152548E+02  0.20733267271E+02  0.00000000000E+00 0.  1.
         14    1    4    4    0    0  0.85018046228E+02 -0.56730669836E+01  0.33300837632E+02  0.91483319028E+02  0.00000000000E+00 0. -1.
         -5    1    5    5    0  502  0.16361095603E+02  0.31234642415E+02  0.10041490410E+02  0.36962276252E+02  0.47000000000E+01 0.  1.
         13    1    6    6    0    0 -0.71427830161E+01 -0.15138125351E+02  0.56064621418E+02  0.58510033012E+02  0.00000000000E+00 0. -1.
        -14    1    6    6    0    0 -0.95593964582E+02 -0.95841225536E+02  0.61343601645E+02  0.14861623074E+03  0.00000000000E+00 0.  1.
</event>
<event>
12    1  0.8135779E-002  0.2175961E+03  0.7818608E-02  0.1136107E+00
         21   -1    0    0  503  502  0.00000000000E+00  0.00000000000E+00  0.25057009520E+03  0.25057009520E+03  0.00000000000E+00 0.  1.
         21   -1    0    0  501  503 -0.00000000000E+00 -0.00000000000E+00 -0.19678363856E+03  0.19678363856E+03  0.00000000000E+00 0.  1.
          6    2    1    2  501    0 -0.70300082475E+02  0.11076586981E+03  0.76764572528E+02  0.23073980045E+03  0.17359975923E+03 0.  0.
         24    2    3    3    0    0 -0.77890737705E+02  0.62894697649E+01  0.53427267769E+02  0.12331700954E+03  0.79032192497E+02 0.  0.
         -6    2    1    2    0  502  0.70300082475E+02 -0.11076586981E+03 -0.22978115890E+02  0.21661393331E+03  0.17082863572E+03 0.  0.
        -24    2    5    5    0    0  0.48753225304E+02 -0.12612206345E+03 -0.61798788599E+02  0.16939937658E+03  0.81199794625E+02 0.  0.
          5    1    3    3  501    0  0.75906552298E+01  0.10447640005E+03  0.23337304759E+02  0.10742279091E+03  0.47000000000E+01 0. -1.
        -11    1    4    4    0    0 -0.41533646680E+02  0.83233445946E+01 -0.15708130012E+02  0.45178171944E+02  0.00000000000E+00 0.  1.
         12    1    4    4    0    0 -0.36357091026E+02 -0.20338748296E+01  0.69135397781E+02  0.78138837597E+02  0.00000000000E+00 0. -1.
         -5    1    5    5    0  502  0.21546857171E+02  0.15356193642E+02  0.38820672708E+02  0.47214556724E+02  0.47000000000E+01 0.  1.
         13    1    6    6    0    0  0.98104214050E+01  0.11100742692E+02 -0.87933549931E+01  0.17227708742E+02  0.00000000000E+00 0. -1.
        -14    1    6    6    0    0  0.38942803899E+02 -0.13722280614E+03 -0.53005433605E+02  0.15217166784E+03  0.00000000000E+00 0.  1.
</event>
<event>
12    1  0.8135779E-002  0.1870267E+03  0.7818608E-02  0.1161291E+00
         21   -1    0    0  501  502  0.00000000000E+00  0.00000000000E+00  0.11954309301E+03  0.11954309301E+03  0.00000000000E+00 0. -1.
         21   -1    0    0  502  503 -0.00000000000E+00 -0.00000000000E+00 -0.30895940305E+03  0.30895940305E+03  0.00000000000E+00 0. -1.
         -6    2    1    2    0  503  0.71766045013E+02  0.85543525711E+01 -0.14533932284E+03  0.23685965935E+03  0.17249764433E+03 0.  0.
        -24    2    3    3    0    0  0.76103132238E+01 -0.31048464755E+02 -0.13571192172E+03  0.16070771969E+03  0.79920719711E+02 0.  0.
          6    2    1    2  501    0 -0.71766045013E+02 -0.85543525711E+01 -0.44076987198E+02  0.19164283671E+03  0.17193212003E+03 0.  0.
         24    2    5    5    0    0 -0.98012482050E+02  0.30681208027E+02 -0.39513977258E+02  0.14398556306E+03  0.92858520376E+02 0.  0.
          5    1    5    5  501    0  0.26246437037E+02 -0.39235560598E+02 -0.45630099401E+01  0.47657273656E+02  0.47000000000E+01 0. -1.
        -11    1    6    6    0    0 -0.27522219311E+02  0.38817382632E+01 -0.59755575462E+02  0.65903484328E+02  0.00000000000E+00 0.  1.
         12    1    6    6    0    0 -0.70490262740E+02  0.26799469764E+02  0.20241598205E+02  0.78082078729E+02  0.00000000000E+00 0. -1.
         -5    1    3    3    0  503  0.64155731789E+02  0.39602817326E+02 -0.96274011159E+01  0.76151939659E+02  0.47000000000E+01 0.  1.
         13    1    4    4    0    0  0.38642238716E+02  0.44756888149E+01 -0.62363283621E+02  0.73501248611E+02  0.00000000000E+00 0. -1.
        -14    1    4    4    0    0 -0.31031925493E+02 -0.35524153570E+02 -0.73348638101E+02  0.87206471078E+02  0.00000000000E+00 0.  1.
</event>
<event>
12    1  0.8135779E-002  0.1838683E+03  0.7818608E-02  0.1164187E+00
         21   -1    0    0  503  502  0.00000000000E+00  0.00000000000E+00  0.16823327690E+03  0.16823327690E+03  0.00000000000E+00 0.  1.
         21   -1    0    0  501  503 -0.00000000000E+00 -0.00000000000E+00 -0.20880089233E+03  0.20880089233E+03  0.00000000000E+00 0.  1.
          6    2    1    2  501    0 -0.37866252383E+02  0.54286876095E+02 -0.57624142161E+02  0.19237644320E+03  0.17119356341E+03 0.  0.
         24    2    3    3    0    0 -0.60872283216E+02  0.64125928289E+02 -0.91853366816E+02  0.14971716258E+03  0.78489605880E+02 0.  0.
         -6    2    1    2    0  502  0.37866252383E+02 -0.54286876095E+02  0.17056526724E+02  0.18465772603E+03  0.17154192693E+03 0.  0.
        -24    2    5    5    0    0  0.25846485406E+02 -0.27517578019E+02 -0.57556096511E+02  0.10434456607E+03  0.78420828319E+02 0.  0.
          5    1    3    3  501    0  0.23006030832E+02 -0.98390521947E+01  0.34229224655E+02  0.42659280623E+02  0.47000000000E+01 0. -1.
        -13    1    4    4    0    0 -0.34661050976E+02  0.62822239017E+02 -0.21922535568E+02  0.75024127690E+02  0.00000000000E+00 0.  1.
         14    1    4    4    0    0 -0.26211232239E+02  0.13036892718E+01 -0.69930831249E+02  0.74693034885E+02  0.00000000000E+00 0. -1.
         -5    1    5    5    0  502  0.12019766978E+02 -0.26769298076E+02  0.74612623235E+02  0.80313159966E+02  0.47000000000E+01 0.  1.
         11    1    6    6    0    0 -0.17999543470E+02 -0.84660618820E+01 -0.52656137250E+02  0.56287889986E+02  0.00000000000E+00 0. -1.
        -12    1    6    6    0    0  0.43846028875E+02 -0.19051516137E+02 -0.48999592608E+01  0.48056676081E+02  0.00000000000E+00 0.  1.
</event>
<event>
12    1  0.8135779E-002  0.1945090E+03  0.7818608E-02  0.1154726E+00
         21   -1    0    0  503  502  0.00000000000E+00  0.00000000000E+00  0.10644230587E+03  0.10644230587E+03  0.00000000000E+00 0.  1.
         21   -1    0    0  501  503 -0.00000000000E+00 -0.00000000000E+00 -0.24712288943E+04  0.24712288943E+04  0.00000000000E+00 0.  1.
          6    2    1    2  501    0  0.85597589892E+02 -0.14061548768E+02 -0.23761123395E+04  0.23840603164E+04  0.17409499644E+03 0.  0.
         24    2    3    3    0    0  0.97437970237E+02 -0.53914321838E+02 -0.13474857885E+04  0.13545832115E+04  0.82321409676E+02 0.  0.
         -6    2    1    2    0  502 -0.85597589892E+02  0.14061548768E+02  0.11325751096E+02  0.19361088373E+03  0.17272008312E+03 0.  0.
        -24    2    5    5    0    0 -0.11076674984E+03 -0.15325719193E+02  0.42108958279E+02  0.14394405400E+03  0.80265657513E+02 0.  0.
          5    1    3    3  501    0 -0.11840380345E+02  0.39852773070E+02 -0.10286265510E+04  0.10294771049E+04  0.47000000000E+01 0. -1.
        -13    1    4    4    0    0 -0.79154912492E+01  0.20506514589E+01 -0.33407158824E+03  0.33417164189E+03  0.00000000000E+00 0.  1.
         14    1    4    4    0    0  0.10535346149E+03 -0.55964973297E+02 -0.10134142003E+04  0.10204115696E+04  0.00000000000E+00 0. -1.
         -5    1    5    5    0  502  0.25169159953E+02  0.29387267961E+02 -0.30783207183E+02  0.49666829730E+02  0.47000000000E+01 0.  1.
         11    1    6    6    0    0 -0.17577296555E+02  0.27992262172E+02  0.20614280430E+02  0.38954802699E+02  0.00000000000E+00 0. -1.
        -12    1    6    6    0    0 -0.93189453290E+02 -0.43317981364E+02  0.21494677849E+02  0.10498925131E+03  0.00000000000E+00 0.  1.
</event>
<event>
12    1  0.8135779E-002  0.2143661E+03  0.7818608E-02  0.1138366E+00
         21   -1    0    0  503  502  0.00000000000E+00  0.00000000000E+00  0.65991876348E+03  0.65991876348E+03  0.00000000000E+00 0. -1.
         21   -1    0    0  501  503 -0.00000000000E+00 -0.00000000000E+00 -0.10431052461E+03  0.10431052461E+03  0.00000000000E+00 0. -1.
          6    2    1    2  501    0 -0.11695411194E+03 -0.52836809423E+02  0.55894257917E+02  0.22047670178E+03  0.17034029245E+03 0.  0.
         24    2    3    3    0    0 -0.11965198402E+02 -0.67941976631E+02  0.32323017380E+02  0.11171764964E+03  0.81711551373E+02 0.  0.
         -6    2    1    2    0  502  0.11695411194E+03  0.52836809423E+02  0.49971398095E+03  0.54375258631E+03  0.17170561912E+03 0.  0.
        -24    2    5    5    0    0  0.23439186082E+02 -0.21955481721E+02  0.12419307133E+03  0.14957372877E+03  0.76921666322E+02 0.  0.
          5    1    3    3  501    0 -0.10498891353E+03  0.15105167209E+02  0.23571240536E+02  0.10875905214E+03  0.47000000000E+01 0. -1.
        -11    1    4    4    0    0 -0.10319987978E+02  0.13133747505E+02  0.25306992551E+02  0.30322291262E+02  0.00000000000E+00 0.  1.
         12    1    4    4    0    0 -0.16452104246E+01 -0.81075724136E+02  0.70160248289E+01  0.81395358381E+02  0.00000000000E+00 0. -1.
         -5    1    5    5    0  502  0.93514925854E+02  0.74792291144E+02  0.37552090962E+03  0.39417885754E+03  0.47000000000E+01 0.  1.
         13    1    6    6    0    0  0.87607806011E+01 -0.86199666870E+01  0.12865967200E+03  0.12924537246E+03  0.00000000000E+00 0. -1.
        -14    1    6    6    0    0  0.14678405481E+02 -0.13335515034E+02 -0.44666006732E+01  0.20328356310E+02  0.00000000000E+00 0.  1.
</event>
<event>
12    1  0.8135779E-002  0.2337177E+03  0.7818608E-02  0.1124098E+00
         21   -1    0    0  501  502  0.00000000000E+00  0.00000000000E+00  0.14322066809E+04  0.14322066809E+04  0.00000000000E+00 0.  1.
         21   -1    0    0  502  503 -0.00000000000E+00 -0.00000000000E+00 -0.56909427771E+02  0.56909427771E+02  0.00000000000E+00 0. -1.
         -6    2    1    2    0  503 -0.13876671301E+03  0.74696951473E+02  0.25980998298E+03  0.34946415621E+03  0.17259239271E+03 0.  0.
        -24    2    3    3    0    0 -0.13274063937E+02  0.57423300411E+02  0.15921806100E+03  0.18763829685E+03  0.79900583798E+02 0.  0.
          6    2    1    2  501    0  0.13876671301E+03 -0.74696951473E+02  0.11154872701E+04  0.11396519524E+04  0.17221755915E+03 0.  0.
         24    2    5    5    0    0 -0.63962739924E+00 -0.20606287357E+02  0.36118784868E+03  0.37065934201E+03  0.80663855514E+02 0.  0.
          5    1    5    5  501    0  0.13940634041E+03 -0.54090664116E+02  0.75429942142E+03  0.76899261040E+03  0.47000000000E+01 0. -1.
        -11    1    6    6    0    0  0.11539271485E+02 -0.43099456843E+02  0.31242643463E+03  0.31559625318E+03  0.00000000000E+00 0.  1.
         12    1    6    6    0    0 -0.12178898885E+02  0.22493169486E+02  0.48761414047E+02  0.55063088829E+02  0.00000000000E+00 0. -1.
         -5    1    3    3    0  503 -0.12549264907E+03  0.17273651062E+02  0.10059192198E+03  0.16182585937E+03  0.47000000000E+01 0.  1.
         13    1    4    4    0    0 -0.18121358371E+02 -0.12996045260E+02  0.14431595648E+02  0.26562224578E+02  0.00000000000E+00 0. -1.
        -14    1    4    4    0    0  0.48472944342E+01  0.70419345671E+02  0.14478646535E+03  0.16107607227E+03  0.00000000000E+00 0.  1.
</event>
<event>
12    1  0.8135779E-002  0.1798576E+03  0.7818608E-02  0.1168185E+00
         21   -1    0    0  503  502  0.00000000000E+00  0.00000000000E+00  0.51510488853E+02  0.51510488853E+02  0.00000000000E+00 0. -1.
         21   -1    0    0  501  503 -0.00000000000E+00 -0.00000000000E+00 -0.64516744310E+03  0.64516744310E+03  0.00000000000E+00 0. -1.
          6    2    1    2  501    0 -0.41944222037E+02 -0.22452328670E+02 -0.35998949659E+03  0.40241919246E+03  0.17345127263E+03 0.  0.
         24    2    3    3    0    0 -0.48914448068E+02  0.43110283129E+02 -0.15711781975E+03  0.18905085512E+03  0.82480887450E+02 0.  0.
         -6    2    1    2    0  502  0.41944222037E+02  0.22452328670E+02 -0.23366745765E+03  0.29425873949E+03  0.17240736695E+03 0.  0.
        -24    2    5    5    0    0  0.46515544064E+02 -0.49190165528E+02 -0.15351672888E+03  0.18655649586E+03  0.81563299829E+02 0.  0.
          5    1    3    3  501    0  0.69702260309E+01 -0.65562611799E+02 -0.20287167684E+03  0.21336833734E+03  0.47000000000E+01 0. -1.
        -13    1    4    4    0    0 -0.58931981912E+02 -0.65613295601E+00 -0.74202370449E+02  0.94759700204E+02  0.00000000000E+00 0.  1.
         14    1    4    4    0    0  0.10017533844E+02  0.43766416085E+02 -0.82915449305E+02  0.94291154912E+02  0.00000000000E+00 0. -1.
         -5    1    5    5    0  502 -0.45713220267E+01  0.71642494198E+02 -0.80150728773E+02  0.10770224363E+03  0.47000000000E+01 0.  1.
         13    1    6    6    0    0 -0.21791065402E+02 -0.17726222852E+02 -0.62265815309E+02  0.68308866658E+02  0.00000000000E+00 0. -1.
        -14    1    6    6    0    0  0.68306609466E+02 -0.31463942675E+02 -0.91250913570E+02  0.11824762921E+03  0.00000000000E+00 0.  1.
</event>
<event>
12    1  0.8135779E-002  0.2622882E+03  0.7818608E-02  0.1105907E+00
         21   -1    0    0  503  502  0.00000000000E+00  0.00000000000E+00  0.24716631704E+03  0.24716631704E+03  0.00000000000E+00 0.  1.
         21   -1    0    0  501  503 -0.00000000000E+00 -0.00000000000E+00 -0.31124539856E+03  0.31124539856E+03  0.00000000000E+00 0. -1.
          6    2    1    2  501    0  0.28681772451E+02 -0.19415779193E+03 -0.12415540454E+03  0.29018904586E+03  0.17399777476E+03 0.  0.
         24    2    3    3    0    0  0.15870581065E+02 -0.10404181523E+03  0.42720547735E+01  0.13270660814E+03  0.80723099134E+02 0.  0.
         -6    2    1    2    0  502 -0.28681772451E+02  0.19415779193E+03  0.60076323029E+02  0.26822266975E+03  0.17266830554E+03 0.  0.
        -24    2    5    5    0    0 -0.49005555441E+02  0.46363607140E+02 -0.13044889665E+02  0.10201503166E+03  0.75404038396E+02 0.  0.
          5    1    3    3  501    0  0.12811191387E+02 -0.90115976705E+02 -0.12842745932E+03  0.15748243772E+03  0.47000000000E+01 0. -1.
        -11    1    4    4    0    0 -0.24741241649E+02 -0.49951648446E+02  0.26211493734E+02  0.61598203096E+02  0.00000000000E+00 0.  1.
         12    1    4    4    0    0  0.40611822713E+02 -0.54090166781E+02 -0.21939438961E+02  0.71108405047E+02  0.00000000000E+00 0. -1.
         -5    1    5    5    0  502  0.20323782990E+02  0.14779418479E+03  0.73121212694E+02  0.16620763809E+03  0.47000000000E+01 0.  1.
         11    1    6    6    0    0  0.36802174651E+01 -0.17644586750E+02  0.40302566706E+00  0.18028806723E+02  0.00000000000E+00 0. -1.
        -12    1    6    6    0    0 -0.52685772906E+02  0.64008193890E+02 -0.13447915332E+02  0.83986224933E+02  0.00000000000E+00 0.  1.
</event>
<event>
12    1  0.8135779E-002  0.2168903E+03  0.7818608E-02  0.1136339E+00
         21   -1    0    0  503  502  0.00000000000E+00  0.00000000000E+00  0.87633013201E+02  0.87633013201E+02  0.00000000000E+00 0. -1.
         21   -1    0    0  501  503 -0.00000000000E+00 -0.00000000000E+00 -0.11532905420E+04  0.11532905420E+04  0.00000000000E+00 0.  1.
          6    2    1    2  501    0  0.64087493909E+02  0.11533079029E+03 -0.98736835199E+03  0.10109093222E+04  0.17214237461E+03 0.  0.
         24    2    3    3    0    0 -0.50577472137E+01 -0.10552439894E+01 -0.31029337501E+03  0.32041718771E+03  0.79740211034E+02 0.  0.
         -6    2    1    2    0  502 -0.64087493909E+02 -0.11533079029E+03 -0.78289176804E+02  0.23001423300E+03  0.17137372643E+03 0.  0.
        -24    2    5    5    0    0 -0.85448285628E+02 -0.37902540541E+02 -0.82025413914E+01  0.12331070097E+03  0.80001469945E+02 0.  0.
          5    1    3    3  501    0  0.69145241123E+02  0.11638603428E+03 -0.67707497698E+03  0.69049213449E+03  0.47000000000E+01 0. -1.
        -13    1    4    4    0    0 -0.11236004515E+01  0.39280408136E+02 -0.14542172552E+03  0.15063761547E+03  0.00000000000E+00 0.  1.
         14    1    4    4    0    0 -0.39341467622E+01 -0.40335652126E+02 -0.16487164949E+03  0.16977957224E+03  0.00000000000E+00 0. -1.
         -5    1    5    5    0  502  0.21360791719E+02 -0.77428249750E+02 -0.70086635413E+02  0.10670353202E+03  0.47000000000E+01 0.  1.
         13    1    6    6    0    0 -0.66304282877E+02 -0.62676964913E+02 -0.10886172513E+02  0.91886716181E+02  0.00000000000E+00 0. -1.
        -14    1    6    6    0    0 -0.19144002751E+02  0.24774424372E+02  0.26836311216E+01  0.31423984793E+02  0.00000000000E+00 0.  1.
</event>
<event>
12    1  0.8135779E-002  0.1834436E+03  0.7818608E-02  0.1165628E+00
         21   -1    0    0  501  502  0.00000000000E+00  0.00000000000E+00  0.10256720841E+03  0.10256720841E+03  0.00000000000E+00 0. -1.
         21   -1    0    0  502  503 -0.00000000000E+00 -0.00000000000E+00 -0.33947900092E+03  0.33947900092E+03  0.00000000000E+00 0. -1.
         -6    2    1    2    0  503  0.49836194650E+02 -0.19653041758E+02 -0.17310089973E+03  0.25222108546E+03  0.17544704648E+03 0.  0.
        -24    2    3    3    0    0  0.58442478191E+02  0.48345018125E+02 -0.65831949720E+02  0.12483771959E+03  0.74147465196E+02 0.  0.
          6    2    1    2  501    0 -0.49836194650E+02  0.19653041758E+02 -0.63810892780E+02  0.18982512387E+03  0.17056335852E+03 0.  0.
         24    2    5    5    0    0  0.74940726305E+01  0.57034612716E+02 -0.67422101473E+02  0.12112816454E+03  0.82566241920E+02 0.  0.
          5    1    5    5  501    0 -0.57330267280E+02 -0.37381570958E+02  0.36112086926E+01  0.68696959335E+02  0.47000000000E+01 0. -1.
        -13    1    6    6    0    0  0.56021159968E+01  0.60622786967E+02 -0.78120356115E+01  0.61380240336E+02  0.00000000000E+00 0.  1.
         14    1    6    6    0    0  0.18919566337E+01 -0.35881742512E+01 -0.59610065861E+02  0.59747924201E+02  0.00000000000E+00 0. -1.
         -5    1    3    3    0  503 -0.86062835410E+01 -0.67998059883E+02 -0.10726895001E+03  0.12738336587E+03  0.47000000000E+01 0.  1.
         11    1    4    4    0    0  0.25884176123E+02 -0.16629152842E+02 -0.75474369435E+01  0.31677801411E+02  0.00000000000E+00 0. -1.
        -12    1    4    4    0    0  0.32558302068E+02  0.64974170967E+02 -0.58284512776E+02  0.93159918183E+02  0.00000000000E+00 0.  1.
</event>
<event>
12    1  0.8135779E-002  0.1780323E+03  0.7818608E-02  0.1169895E+00
         21   -1    0    0  503  502  0.00000000000E+00  0.00000000000E+00  0.88904287463E+03  0.88904287463E+03  0.00000000000E+00 0.  1.
         21   -1    0    0  501  503 -0.00000000000E+00 -0.00000000000E+00 -0.38623772579E+02  0.38623772579E+02  0.00000000000E+00 0.  1.
          6    2    1    2  501    0 -0.37312003610E+02  0.26751540441E+02  0.55769872508E+03  0.58542580964E+03  0.17201069765E+03 0.  0.
         24    2    3    3    0    0 -0.28592910641E+02  0.68258837312E+02  0.50652891998E+03  0.51879760818E+03  0.84276853683E+02 0.  0.
         -6    2    1    2    0  502  0.37312003610E+02 -0.26751540441E+02  0.29272037697E+03  0.34224083757E+03  0.17127679725E+03 0.  0.
        -24    2    5    5    0    0 -0.29792480305E+01 -0.51399373387E+02  0.96092493416E+02  0.13996499813E+03  0.87781899663E+02 0.  0.
          5    1    3    3  501    0 -0.87190929687E+01 -0.41507296871E+02  0.51169805099E+02  0.66628201458E+02  0.47000000000E+01 0. -1.
        -13    1    4    4    0    0 -0.70207432498E+01 -0.19180606528E+02  0.13333976819E+03  0.13489507138E+03  0.00000000000E+00 0.  1.
         14    1    4    4    0    0 -0.21572167391E+02  0.87439443840E+02  0.37318915179E+03  0.38390253680E+03  0.00000000000E+00 0. -1.
         -5    1    5    5    0  502  0.40291251640E+02  0.24647832945E+02  0.19662788356E+03  0.20227583944E+03  0.47000000000E+01 0.  1.
         13    1    6    6    0    0  0.32647633789E+00 -0.69482413407E+02  0.99409465989E+02  0.12128542488E+03  0.00000000000E+00 0. -1.
        -14    1    6    6    0    0 -0.33057243684E+01  0.18083040020E+02 -0.33169725734E+01  0.18679573256E+02  0.00000000000E+00 0.  1.
</event>
<event>
12    1  0.8135779E-002  0.1797511E+03  0.7818608E-02  0.1168169E+00
         21   -1    0    0  503  502  0.00000000000E+00  0.00000000000E+00  0.32132597946E+04  0.32132597946E+04  0.00000000000E+00 0.  1.
         21   -1    0    0  501  503 -0.00000000000E+00 -0.00000000000E+00 -0.19767400769E+02  0.19767400769E+02  0.00000000000E+00 0.  1.
          6    2    1    2  501    0  0.20625290037E+02 -0.50496071282E+02  0.46315256142E+03  0.49681057710E+03  0.17127521294E+03 0.  0.
         24    2    3    3    0    0 -0.49964647196E+02 -0.13700571765E+02  0.19620133790E+03  0.21820351732E+03  0.80209964093E+02 0.  0.
         -6    2    1    2    0  502 -0.20625290037E+02  0.50496071282E+02  0.27303398324E+04  0.27362166182E+04  0.17073525068E+03 0.  0.
        -24    2    5    5    0    0  0.38617056090E+02  0.74353188352E+02  0.16684342969E+04  0.16723819159E+04  0.78540409478E+02 0.  0.
          5    1    3    3  501    0  0.70589937233E+02 -0.36795499517E+02  0.26695122352E+03  0.27860705979E+03  0.47000000000E+01 0. -1.
        -11    1    4    4    0    0 -0.21420618573E+02 -0.43420998273E+02  0.14258481311E+03  0.15058105765E+03  0.00000000000E+00 0.  1.
         12    1    4    4    0    0 -0.28544028623E+02  0.29720426508E+02  0.53616524784E+02  0.67622459669E+02  0.00000000000E+00 0. -1.
         -5    1    5    5    0  502 -0.59242346126E+02 -0.23857117070E+02  0.10619055355E+04  0.10638347023E+04  0.47000000000E+01 0.  1.
         13    1    6    6    0    0  0.29208924393E+02 -0.21984812281E+01  0.22647393478E+03  0.22836032431E+03  0.00000000000E+00 0. -1.
        -14    1    6    6    0    0  0.94081316966E+01  0.76551669580E+02  0.14419603621E+04  0.14440215916E+04  0.00000000000E+00 0.  1.
</event>
<event>
12    1  0.8135779E-002  0.2662557E+03  0.7818608E-02  0.1103594E+00
         21   -1    0    0  501  502  0.00000000000E+00  0.00000000000E+00  0.82795446587E+02  0.82795446587E+02  0.00000000000E+00 0. -1.
         21   -1    0    0  502  503 -0.00000000000E+00 -0.00000000000E+00 -0.10715630269E+04  0.10715630269E+04  0.00000000000E+00 0. -1.
         -6    2    1    2    0  503 -0.33383529165E+01 -0.20336409839E+03 -0.75589188435E+03  0.80141415971E+03  0.17182553197E+03 0.  0.
        -24    2    3    3    0    0  0.16870335798E+02 -0.22185529706E+03 -0.64133385857E+03  0.68353308913E+03  0.80024900708E+02 0.  0.
          6    2    1    2  501    0  0.33383529165E+01  0.20336409839E+03 -0.23287569596E+03  0.35294431378E+03  0.17020722002E+03 0.  0.
         24    2    5    5    0    0  0.39907091082E+02  0.19427068126E+03 -0.14866354397E+03  0.26056607289E+03  0.80375092671E+02 0.  0.
          5    1    5    5  501    0 -0.36568738166E+02  0.90934171287E+01 -0.84212151998E+02  0.92378240892E+02  0.47000000000E+01 0. -1.
        -11    1    6    6    0    0 -0.16579680982E+02  0.97913754397E+02 -0.91770412061E+02  0.13521759372E+03  0.00000000000E+00 0.  1.
         12    1    6    6    0    0  0.56486772064E+02  0.96356926862E+02 -0.56893131905E+02  0.12534847917E+03  0.00000000000E+00 0. -1.
         -5    1    3    3    0  503 -0.20208688715E+02  0.18491198670E+02 -0.11455802578E+03  0.11788107057E+03  0.47000000000E+01 0.  1.
         11    1    4    4    0    0  0.81543778157E+01 -0.63192348296E+02 -0.30455920242E+03  0.31115281541E+03  0.00000000000E+00 0. -1.
        -12    1    4    4    0    0  0.87159579825E+01 -0.15866294876E+03 -0.33677465615E+03  0.37238027372E+03  0.00000000000E+00 0.  1.
</event>
<event>
12    1  0.8135779E-002  0.1880109E+03  0.7818608E-02  0.1160426E+00
         21   -1    0    0  501  502  0.00000000000E+00  0.00000000000E+00  0.10617148531E+03  0.10617148531E+03  0.00000000000E+00 0. -1.
         21   -1    0    0  502  503 -0.00000000000E+00 -0.00000000000E+00 -0.33523466686E+03  0.33523466686E+03  0.00000000000E+00 0. -1.
         -6    2    1    2    0  503 -0.44476093400E+02  0.61505539492E+02 -0.13736997650E+03  0.23284889292E+03  0.17200884343E+03 0.  0.
        -24    2    3    3    0    0 -0.10857258255E+02 -0.33661777010E+02 -0.67374458577E+02  0.10993222710E+03  0.79339659683E+02 0.  0.
          6    2    1    2  501    0  0.44476093400E+02 -0.61505539492E+02 -0.91693205047E+02  0.20855725924E+03  0.17125253942E+03 0.  0.
         24    2    5    5    0    0 -0.34626656999E+02 -0.32399977323E+02 -0.79854373229E+02  0.12331274734E+03  0.81120582027E+02 0.  0.
          5    1    5    5  501    0  0.79102750399E+02 -0.29105562169E+02 -0.11838831818E+02  0.85244511897E+02  0.47000000000E+01 0. -1.
        -11    1    6    6    0    0 -0.18476612372E+02 -0.68243607367E+01 -0.89439358230E+02  0.91582508728E+02  0.00000000000E+00 0.  1.
         12    1    6    6    0    0 -0.16150044627E+02 -0.25575616586E+02  0.95849850016E+01  0.31730238617E+02  0.00000000000E+00 0. -1.
         -5    1    3    3    0  503 -0.33618835144E+02  0.95167316502E+02 -0.69995517927E+02  0.12291666582E+03  0.47000000000E+01 0.  1.
         13    1    4    4    0    0 -0.22481497648E+02  0.20946426563E+02 -0.19563331209E+02  0.36426562427E+02  0.00000000000E+00 0. -1.
        -14    1    4    4    0    0  0.11624239392E+02 -0.54608203574E+02 -0.47811127368E+02  0.73505664674E+02  0.00000000000E+00 0.  1.
</event>
<event>
12    1  0.8135779E-002  0.1833238E+03  0.7818608E-02  0.1164633E+00
         21   -1    0    0  501  502  0.00000000000E+00  0.00000000000E+00  0.13687517419E+04  0.13687517419E+04  0.00000000000E+00 0. -1.
         21   -1    0    0  502  503 -0.00000000000E+00 -0.00000000000E+00 -0.26060918991E+02  0.26060918991E+02  0.00000000000E+00 0. -1.
         -6    2    1    2    0  503  0.62991404838E+02  0.94281135137E+01  0.50329460716E+03  0.53563070616E+03  0.17186618453E+03 0.  0.
        -24    2    3    3    0    0  0.10710968534E+03 -0.70610742555E+01  0.40343821378E+03  0.42512412135E+03  0.80285632318E+02 0.  0.
          6    2    1    2  501    0 -0.62991404838E+02 -0.94281135137E+01  0.83939621575E+03  0.85918195472E+03  0.17190351335E+03 0.  0.
         24    2    5    5    0    0 -0.52053543927E+01  0.29569324754E+02  0.22107165654E+03  0.23692205859E+03  0.79736715761E+02 0.  0.
          5    1    5    5  501    0 -0.57786050445E+02 -0.38997438267E+02  0.61832455921E+03  0.62225989613E+03  0.47000000000E+01 0. -1.
        -13    1    6    6    0    0  0.30470324939E+02 -0.66591035836E+01  0.54848316310E+02  0.63096134307E+02  0.00000000000E+00 0.  1.
         14    1    6    6    0    0 -0.35675679332E+02  0.36228428337E+02  0.16622334023E+03  0.17382592428E+03  0.00000000000E+00 0. -1.
         -5    1    3    3    0  503 -0.44118280501E+02  0.16489187769E+02  0.99856393379E+02  0.11050658481E+03  0.47000000000E+01 0.  1.
         13    1    4    4    0    0  0.71637090976E+02  0.21850189624E+02  0.15079606455E+03  0.16837089022E+03  0.00000000000E+00 0. -1.
        -14    1    4    4    0    0  0.35472594363E+02 -0.28911263880E+02  0.25264214923E+03  0.25675323114E+03  0.00000000000E+00 0.  1.
</event>
<event>
12    1  0.8135779E-002  0.2402390E+03  0.7818608E-02  0.1119719E+00
         21   -1    0    0  501  502  0.00000000000E+00  0.00000000000E+00  0.41082099773E+02  0.41082099773E+02  0.00000000000E+00 0. -1.
         21   -1    0    0  502  503 -0.00000000000E+00 -0.00000000000E+00 -0.18073366418E+04  0.18073366418E+04  0.00000000000E+00 0.  1.
         -6    2    1    2    0  503 -0.51072340598E+02  0.15953685647E+03 -0.44463400069E+03  0.50514079533E+03  0.17148596441E+03 0.  0.
        -24    2    3    3    0    0 -0.66202771367E+02  0.14511924032E+03 -0.23980912127E+03  0.29919876752E+03  0.81049904317E+02 0.  0.
          6    2    1    2  501    0  0.51072340598E+02 -0.15953685647E+03 -0.13216205413E+04  0.13432779462E+04  0.17220450934E+03 0.  0.
         24    2    5    5    0    0  0.10300324987E+03 -0.10082567729E+03 -0.91268879067E+03  0.92687539029E+03  0.72949803517E+02 0.  0.
          5    1    5    5  501    0 -0.51930909274E+02 -0.58711179178E+02 -0.40893175063E+03  0.41640255591E+03  0.47000000000E+01 0. -1.
        -11    1    6    6    0    0  0.13477882101E+02 -0.13465484762E+02 -0.34696982190E+03  0.34749248898E+03  0.00000000000E+00 0.  1.
         12    1    6    6    0    0  0.89525367771E+02 -0.87360192526E+02 -0.56571896877E+03  0.57938290131E+03  0.00000000000E+00 0. -1.
         -5    1    3    3    0  503  0.15130430769E+02  0.14417616142E+02 -0.20482487942E+03  0.20594202781E+03  0.47000000000E+01 0.  1.
         11    1    4    4    0    0  0.73780283242E+01  0.71189799191E+02 -0.71340190550E+02  0.10105367682E+03  0.00000000000E+00 0. -1.
        -12    1    4    4    0    0 -0.73580799691E+02  0.73929441133E+02 -0.16846893072E+03  0.19814509070E+03  0.00000000000E+00 0.  1.
</event>
<event>
12    1  0.8135779E-002  0.2448845E+03  0.7818608E-02  0.1116944E+00
         21   -1    0    0  503  502  0.00000000000E+00  0.00000000000E+00  0.13160190786E+03  0.13160190786E+03  0.00000000000E+00 0. -1.
         21   -1    0    0  501  503 -0.00000000000E+00 -0.00000000000E+00 -0.55096635897E+03  0.55096635897E+03  0.00000000000E+00 0. -1.
          6    2    1    2  501    0  0.15859491600E+03  0.63313400230E+02 -0.35544123620E+03  0.43163283950E+03  0.17552065893E+03 0.  0.
         24    2    3    3    0    0  0.10480045354E+03  0.98939574964E+01 -0.11528843071E+03  0.17975401737E+03  0.89101397555E+02 0.  0.
         -6    2    1    2    0  502 -0.15859491600E+03 -0.63313400230E+02 -0.63923214906E+02  0.25093542732E+03  0.17239917996E+03 0.  0.
        -24    2    5    5    0    0 -0.18353147866E+03 -0.50931914415E+02 -0.33010115767E+02  0.20906845888E+03  0.79637234961E+02 0.  0.
          5    1    3    3  501    0  0.53794462461E+02  0.53419442734E+02 -0.24015280549E+03  0.25187882213E+03  0.47000000000E+01 0. -1.
        -13    1    4    4    0    0  0.10818468406E+03 -0.12973584250E+02 -0.11225395945E+03  0.15643909730E+03  0.00000000000E+00 0.  1.
         14    1    4    4    0    0 -0.33842305179E+01  0.22867541747E+02 -0.30344712636E+01  0.23314920064E+02  0.00000000000E+00 0. -1.
         -5    1    5    5    0  502  0.24936562653E+02 -0.12381485816E+02 -0.30913099139E+02  0.41866968440E+02  0.47000000000E+01 0.  1.
         13    1    6    6    0    0 -0.78536675727E+02 -0.56853862872E+02 -0.37140356707E+02  0.10382570613E+03  0.00000000000E+00 0. -1.
        -14    1    6    6    0    0 -0.10499480293E+03  0.59219484572E+01  0.41302409406E+01  0.10524275275E+03  0.00000000000E+00 0.  1.
</event>
<event>
12    1  0.8135779E-002  0.2001754E+03  0.7818608E-02  0.1150605E+00
         21   -1    0    0  501  502  0.00000000000E+00  0.00000000000E+00  0.61680459774E+03  0.61680459774E+03  0.00000000000E+00 0.  1.
         21   -1    0    0  502  503 -0.00000000000E+00 -0.00000000000E+00 -0.10511180505E+03  0.10511180505E+03  0.00000000000E+00 0.  1.
         -6    2    1    2    0  503  0.95638622951E+02 -0.41320437038E+02  0.26703086734E+02  0.19724010030E+03  0.16533746583E+03 0.  0.
        -24    2    3    3    0    0  0.25219343796E+02  0.21431877473E+02  0.49786260491E+02  0.10002049958E+03  0.80187829057E+02 0.  0.
          6    2    1    2  501    0 -0.95638622951E+02  0.41320437038E+02  0.48498970596E+03  0.52467630249E+03  0.17092712713E+03 0.  0.
         24    2    5    5    0    0 -0.64769405384E+02 -0.29859195537E+01  0.44659522266E+03  0.45825199838E+03  0.79646779814E+02 0.  0.
          5    1    5    5  501    0 -0.30869217567E+02  0.44306356592E+02  0.38394483303E+02  0.66424304104E+02  0.47000000000E+01 0. -1.
        -11    1    6    6    0    0  0.18848999075E+02  0.37747595457E-01  0.93101316533E+02  0.94990217029E+02  0.00000000000E+00 0.  1.
         12    1    6    6    0    0 -0.83618404459E+02 -0.30236671492E+01  0.35349390612E+03  0.36326178136E+03  0.00000000000E+00 0. -1.
         -5    1    3    3    0  503  0.70419279155E+02 -0.62752314511E+02 -0.23083173757E+02  0.97219600719E+02  0.47000000000E+01 0.  1.
         13    1    4    4    0    0 -0.99174274546E+01 -0.15142594235E+02  0.45681364629E+02  0.49136957596E+02  0.00000000000E+00 0. -1.
        -14    1    4    4    0    0  0.35136771250E+02  0.36574471708E+02  0.41048958619E+01  0.50883541982E+02  0.00000000000E+00 0.  1.
</event>
<event>
12    1  0.8135779E-002  0.1900023E+03  0.7818608E-02  0.1158499E+00
         21   -1    0    0  501  502  0.00000000000E+00  0.00000000000E+00  0.29610924908E+03  0.29610924908E+03  0.00000000000E+00 0. -1.
         21   -1    0    0  502  503 -0.00000000000E+00 -0.00000000000E+00 -0.18658097294E+03  0.18658097294E+03  0.00000000000E+00 0.  1.
         -6    2    1    2    0  503  0.46924015892E+02  0.64588469751E+02 -0.87458676622E+02  0.20900295223E+03  0.17221986016E+03 0.  0.
        -24    2    3    3    0    0 -0.29331647399E+01  0.10007287447E+03 -0.58890236945E+02  0.14130415472E+03  0.80471240031E+02 0.  0.
          6    2    1    2  501    0 -0.46924015892E+02 -0.64588469751E+02  0.19698695276E+03  0.27368726979E+03  0.17241614888E+03 0.  0.
         24    2    5    5    0    0 -0.48815840786E+02 -0.10989613638E+03  0.15007013528E+03  0.20826830145E+03  0.79965572476E+02 0.  0.
          5    1    5    5  501    0  0.18918248938E+01  0.45307666630E+02  0.46916817475E+02  0.65418968342E+02  0.47000000000E+01 0. -1.
        -13    1    6    6    0    0 -0.81435866671E+01 -0.24291104440E+02 -0.54044958709E+01  0.26183665410E+02  0.00000000000E+00 0.  1.
         14    1    6    6    0    0 -0.40672254119E+02 -0.85605031941E+02  0.15547463115E+03  0.18208463604E+03  0.00000000000E+00 0. -1.
         -5    1    3    3    0  503  0.49857180632E+02 -0.35484404723E+02 -0.28568439678E+02  0.67698797513E+02  0.47000000000E+01 0.  1.
         13    1    4    4    0    0  0.30405871021E+02  0.74550612921E+02 -0.17595002675E+02  0.82412954070E+02  0.00000000000E+00 0. -1.
        -14    1    4    4    0    0 -0.33339035761E+02  0.25522261553E+02 -0.41295234270E+02  0.58891200647E+02  0.00000000000E+00 0.  1.
</event>
<event>
12    1  0.8135779E-002  0.1949345E+03  0.7818608E-02  0.1154470E+00
         21   -1    0    0  501  502  0.00000000000E+00  0.00000000000E+00  0.23880911821E+03  0.23880911821E+03  0.00000000000E+00 0.  1.
         21   -1    0    0  502  503 -0.00000000000E+00 -0.00000000000E+00 -0.13138250115E+04  0.13138250115E+04  0.00000000000E+00 0.  1.
         -6    2    1    2    0  503  0.55127342887E+02 -0.67011357213E+02 -0.12654556654E+04  0.12801148167E+04  0.17258724457E+03 0.  0.
        -24    2    3    3    0    0  0.22587578282E+02 -0.18250606878E+02 -0.11204266580E+04  0.11236157750E+04  0.79455841044E+02 0.  0.
          6    2    1    2  501    0 -0.55127342887E+02  0.67011357213E+02  0.19043977208E+03  0.27251931302E+03  0.17455636125E+03 0.  0.
         24    2    5    5    0    0  0.14295901376E+02  0.34136339105E+02  0.17262167059E+03  0.19352609559E+03  0.79274498258E+02 0.  0.
          5    1    5    5  501    0 -0.69423244263E+02  0.32875018107E+02  0.17818101487E+02  0.78993217431E+02  0.47000000000E+01 0. -1.
        -11    1    6    6    0    0  0.76471464111E+01 -0.25922391455E+02  0.50834093486E+02  0.57572165910E+02  0.00000000000E+00 0.  1.
         12    1    6    6    0    0  0.66487549645E+01  0.60058730560E+02  0.12178757710E+03  0.13595392968E+03  0.00000000000E+00 0. -1.
         -5    1    3    3    0  503  0.32539764605E+02 -0.48760750335E+02 -0.14502900738E+03  0.15649904164E+03  0.47000000000E+01 0.  1.
         11    1    4    4    0    0  0.42103133365E+02 -0.94375480193E+01 -0.31920372609E+03  0.32210675234E+03  0.00000000000E+00 0. -1.
        -12    1    4    4    0    0 -0.19515555083E+02 -0.88130588585E+01 -0.80122293189E+03  0.80150902271E+03  0.00000000000E+00 0.  1.
</event>
<event>
12    1  0.8135779E-002  0.1990711E+03  0.7818608E-02  0.1151266E+00
         21   -1    0    0  501  502  0.00000000000E+00  0.00000000000E+00  0.77430265573E+02  0.77430265573E+02  0.00000000000E+00 0. -1.
         21   -1    0    0  502  503 -0.00000000000E+00 -0.00000000000E+00 -0.55816591144E+03  0.55816591144E+03  0.00000000000E+00 0. -1.
         -6    2    1    2    0  503  0.28295690853E+02 -0.90764801818E+02 -0.33842241204E+03  0.39088741528E+03  0.17095130032E+03 0.  0.
        -24    2    3    3    0    0  0.16712385773E+02 -0.74438732435E+02 -0.35023302900E+03  0.36717467248E+03  0.79584149093E+02 0.  0.
          6    2    1    2  501    0 -0.28295690853E+02  0.90764801818E+02 -0.14231323382E+03  0.24470876173E+03  0.17490118976E+03 0.  0.
         24    2    5    5    0    0 -0.53372424705E+02  0.11027214737E+03 -0.95557904173E+02  0.18798548642E+03  0.10582375845E+03 0.  0.
          5    1    5    5  501    0  0.25076733853E+02 -0.19507345550E+02 -0.46755329651E+02  0.56723275310E+02  0.47000000000E+01 0. -1.
        -13    1    6    6    0    0  0.75735961717E+01 -0.12575013229E+02 -0.35233729071E+02  0.38169437787E+02  0.00000000000E+00 0.  1.
         14    1    6    6    0    0 -0.60946020877E+02  0.12284716060E+03 -0.60324175101E+02  0.14981604864E+03  0.00000000000E+00 0. -1.
         -5    1    3    3    0  503  0.11583305080E+02 -0.16326069383E+02  0.11810616955E+02  0.23712742797E+02  0.47000000000E+01 0.  1.
         13    1    4    4    0    0 -0.13730831229E+02 -0.78245702803E+02 -0.24468125336E+03  0.25725442947E+03  0.00000000000E+00 0. -1.
        -14    1    4    4    0    0  0.30443217002E+02  0.38069703680E+01 -0.10555177563E+03  0.10992024301E+03  0.00000000000E+00 0.  1.
</event>
<event>
12    1  0.8135779E-002  0.2922029E+03  0.7818608E-02  0.1089247E+00
         21   -1    0    0  501  502  0.00000000000E+00  0.00000000000E+00  0.23628686949E+03  0.23628686949E+03  0.00000000000E+00 0.  1.
         21   -1    0    0  502  503 -0.00000000000E+00 -0.00000000000E+00 -0.42779099806E+03  0.42779099806E+03  0.00000000000E+00 0. -1.
         -6    2    1    2    0  503 -0.11182903358E+03 -0.20666979390E+03 -0.22696360281E+03  0.36973129752E+03  0.17312024406E+03 0.  0.
        -24    2    3    3    0    0 -0.44442777657E+02 -0.10072835303E+03 -0.19166659778E+03  0.23922281142E+03  0.91488290003E+02 0.  0.
          6    2    1    2  501    0  0.11182903358E+03  0.20666979390E+03  0.35459474238E+02  0.29434657004E+03  0.17367899274E+03 0.  0.
         24    2    5    5    0    0  0.14634375963E+03  0.16789711304E+03  0.25352287883E+02  0.24125389342E+03  0.89189495128E+02 0.  0.
          5    1    5    5  501    0 -0.34514726042E+02  0.38772680857E+02  0.10107186355E+02  0.53092676619E+02  0.47000000000E+01 0. -1.
        -13    1    6    6    0    0 -0.41929898036E+01 -0.44812887505E+01  0.10189511396E+02  0.11894925592E+02  0.00000000000E+00 0.  1.
         14    1    6    6    0    0  0.15053674943E+03  0.17237840179E+03  0.15162776487E+02  0.22935896783E+03  0.00000000000E+00 0. -1.
         -5    1    3    3    0  503 -0.67386255927E+02 -0.10594144086E+03 -0.35297005026E+02  0.13050848610E+03  0.47000000000E+01 0.  1.
         13    1    4    4    0    0 -0.44257156785E+02 -0.94689637469E+02 -0.91617095956E+02  0.13899106317E+03  0.00000000000E+00 0. -1.
        -14    1    4    4    0    0 -0.18562087129E+00 -0.60387155626E+01 -0.10004950183E+03  0.10023174825E+03  0.00000000000E+00 0.  1.
</event>
<event>
12    1  0.8135779E-002  0.4708259E+03  0.7818608E-02  0.1021847E+00
         21   -1    0    0  503  502  0.00000000000E+00  0.00000000000E+00  0.34234170555E+03  0.34234170555E+03  0.00000000000E+00 0.  1.
         21   -1    0    0  501  503 -0.00000000000E+00 -0.00000000000E+00 -0.84409017397E+03  0.84409017397E+03  0.00000000000E+00 0. -1.
          6    2    1    2  501    0  0.11910756644E+03 -0.42135099699E+03 -0.53985339954E+03  0.71632306140E+03  0.17307154659E+03 0.  0.
         24    2    3    3    0    0  0.65295792268E+02 -0.18244135498E+03 -0.34312148751E+03  0.40215899710E+03  0.80318835026E+02 0.  0.
         -6    2    1    2    0  502 -0.11910756644E+03  0.42135099699E+03  0.38104931118E+02  0.47010881813E+03  0.16681438804E+03 0.  0.
        -24    2    5    5    0    0 -0.19195464065E+02  0.23890487459E+03  0.63479384145E+02  0.26050211822E+03  0.79923190879E+02 0.  0.
          5    1    3    3  501    0  0.53811774177E+02 -0.23890964201E+03 -0.19673191204E+03  0.31416406430E+03  0.47000000000E+01 0. -1.
        -13    1    4    4    0    0  0.71753752905E+02 -0.18234055802E+03 -0.29848326339E+03  0.35705593214E+03  0.00000000000E+00 0.  1.
         14    1    4    4    0    0 -0.64579606366E+01 -0.10079696142E+00 -0.44638224121E+02  0.45103064954E+02  0.00000000000E+00 0. -1.
         -5    1    5    5    0  502 -0.99912102380E+02  0.18244612240E+03 -0.25374453026E+02  0.20960669991E+03  0.47000000000E+01 0.  1.
         11    1    6    6    0    0 -0.37822236964E+01  0.21504465350E+03  0.77767191525E+02  0.22870558430E+03  0.00000000000E+00 0. -1.
        -12    1    6    6    0    0 -0.15413240369E+02  0.23860221100E+02 -0.14287807380E+02  0.31796533920E+02  0.00000000000E+00 0.  1.
</event>
<event>
12    1  0.8135779E-002  0.1902630E+03  0.7818608E-02  0.1158365E+00
         21   -1    0    0  503  502  0.00000000000E+00  0.00000000000E+00  0.14995735619E+03  0.14995735619E+03  0.00000000000E+00 0.  1.
         21   -1    0    0  501  503 -0.00000000000E+00 -0.00000000000E+00 -0.26507298897E+03  0.26507298897E+03  0.00000000000E+00 0.  1.
          6    2    1    2  501    0  0.12139907143E+02  0.77832618228E+02 -0.12068568200E+03  0.22531096292E+03  0.17318978713E+03 0.  0.
         24    2    3    3    0    0 -0.44590919617E+01  0.50364120678E+02 -0.15276300200E+03  0.17969200209E+03  0.79976575834E+02 0.  0.
         -6    2    1    2    0  502 -0.12139907143E+02 -0.77832618228E+02  0.55700492161E+01  0.18971938224E+03  0.17250253547E+03 0.  0.
        -24    2    5    5    0    0 -0.50307104173E+02 -0.31875256576E+01  0.35491924407E+02  0.10057885617E+03  0.79469897192E+02 0.  0.
          5    1    3    3  501    0  0.16598999105E+02  0.27468497550E+02  0.32077320000E+02  0.45618960831E+02  0.47000000000E+01 0. -1.
        -11    1    4    4    0    0 -0.20561335804E+02  0.41818298012E+02 -0.29641379127E+02  0.55228162519E+02  0.00000000000E+00 0.  1.
         12    1    4    4    0    0  0.16102243843E+02  0.85458226660E+01 -0.12312162287E+03  0.12446383957E+03  0.00000000000E+00 0. -1.
         -5    1    5    5    0  502  0.38167197030E+02 -0.74645092570E+02 -0.29921875191E+02  0.89140526074E+02  0.47000000000E+01 0.  1.
         11    1    6    6    0    0 -0.30087153127E+02  0.32686985324E+02 -0.25731762191E+01  0.44500528409E+02  0.00000000000E+00 0. -1.
        -12    1    6    6    0    0 -0.20219951046E+02 -0.35874510981E+02  0.38065100626E+02  0.56078327758E+02  0.00000000000E+00 0.  1.
</event>
<event>
12    1  0.8135779E-002  0.1824174E+03  0.7818608E-02  0.1165636E+00
         21   -1    0    0  501  502  0.00000000000E+00  0.00000000000E+00  0.25975883461E+03  0.25975883461E+03  0.00000000000E+00 0.  1.
         21   -1    0    0  502  503 -0.00000000000E+00 -0.00000000000E+00 -0.12766791448E+03  0.12766791448E+03  0.00000000000E+00 0.  1.
         -6    2    1    2    0  503  0.57945723570E+02 -0.87945899084E+01  0.67925471589E+02  0.19405327391E+03  0.17206903188E+03 0.  0.
        -24    2    3    3    0    0 -0.10435163059E+02  0.44272938628E+02  0.44635563530E+02  0.10429460826E+03  0.82559348701E+02 0.  0.
          6    2    1    2  501    0 -0.57945723570E+02  0.87945899084E+01  0.64165448542E+02  0.19337347518E+03  0.17274560609E+03 0.  0.
         24    2    5    5    0    0 -0.25906286049E+02 -0.64627039771E+02  0.41642270400E+02  0.11002694066E+03  0.74324014031E+02 0.  0.
          5    1    5    5  501    0 -0.32039437521E+02  0.73421629680E+02  0.22523178142E+02  0.83346534511E+02  0.47000000000E+01 0. -1.
        -11    1    6    6    0    0 -0.32936949209E+02 -0.57013459408E+01 -0.59555595692E+01  0.33953153881E+02  0.00000000000E+00 0.  1.
         12    1    6    6    0    0  0.70306631596E+01 -0.58925693830E+02  0.47597829969E+02  0.76073786784E+02  0.00000000000E+00 0. -1.
         -5    1    3    3    0  503  0.68380886628E+02 -0.53067528536E+02  0.23289908059E+02  0.89758665645E+02  0.47000000000E+01 0.  1.
         13    1    4    4    0    0 -0.16682840961E+01 -0.23733769315E+02  0.21093331244E+02  0.31796282812E+02  0.00000000000E+00 0. -1.
        -14    1    4    4    0    0 -0.87668789626E+01  0.68006707942E+02  0.23542232286E+02  0.72498325449E+02  0.00000000000E+00 0.  1.
</event>
<event>
12    1  0.8135779E-002  0.1872227E+03  0.7818608E-02  0.1161282E+00
         21   -1    0    0  501  502  0.00000000000E+00  0.00000000000E+00  0.42799963182E+03  0.42799963182E+03  0.00000000000E+00 0.  1.
         21   -1    0    0  502  503 -0.00000000000E+00 -0.00000000000E+00 -0.81385035938E+02  0.81385035938E+02  0.00000000000E+00 0.  1.
         -6    2    1    2    0  503  0.26335390449E+02 -0.70345974761E+02  0.16834786010E+03  0.25178037819E+03  0.17149416283E+03 0.  0.
        -24    2    3    3    0    0  0.46019421736E+02  0.19161652953E+02  0.10015527079E+03  0.13745017333E+03  0.79853088604E+02 0.  0.
          6    2    1    2  501    0 -0.26335390449E+02  0.70345974761E+02  0.17826673578E+03  0.25760428957E+03  0.17011417332E+03 0.  0.
         24    2    5    5    0    0 -0.97251974717E+01  0.34656187897E+02  0.13349075483E+02  0.87988299537E+02  0.79171410331E+02 0.  0.
          5    1    5    5  501    0 -0.16610192978E+02  0.35689786864E+02  0.16491766030E+03  0.16961599004E+03  0.47000000000E+01 0. -1.
        -11    1    6    6    0    0  0.27009499178E+02  0.25556532167E+02  0.28878566785E+02  0.47081004681E+02  0.00000000000E+00 0.  1.
         12    1    6    6    0    0 -0.36734696649E+02  0.90996557297E+01 -0.15529491302E+02  0.40907294856E+02  0.00000000000E+00 0. -1.
         -5    1    3    3    0  503 -0.19684031287E+02 -0.89507627714E+02  0.68192589311E+02  0.11433020486E+03  0.47000000000E+01 0.  1.
         11    1    4    4    0    0 -0.10568155646E+02  0.33777787505E+02  0.32553490147E+02  0.48086947951E+02  0.00000000000E+00 0. -1.
        -12    1    4    4    0    0  0.56587577383E+02 -0.14616134553E+02  0.67601780645E+02  0.89363225376E+02  0.00000000000E+00 0.  1.
</event>
<event>
12    1  0.8135779E-002  0.2909403E+03  0.7818608E-02  0.1089916E+00
         21   -1    0    0  501  502  0.00000000000E+00  0.00000000000E+00  0.49400511462E+03  0.49400511462E+03  0.00000000000E+00 0. -1.
         21   -1    0    0  502  503 -0.00000000000E+00 -0.00000000000E+00 -0.27320757271E+03  0.27320757271E+03  0.00000000000E+00 0.  1.
         -6    2    1    2    0  503  0.19303517825E+03 -0.13340761540E+03 -0.12407353212E+03  0.31629178559E+03  0.17200604749E+03 0.  0.
        -24    2    3    3    0    0  0.17642849479E+03 -0.52473840838E+02 -0.55140584059E+02  0.20858895774E+03  0.81168661023E+02 0.  0.
          6    2    1    2  501    0 -0.19303517825E+03  0.13340761540E+03  0.34487107403E+03  0.45092090173E+03  0.17127004999E+03 0.  0.
         24    2    5    5    0    0 -0.68484147957E+02 -0.33976587945E+01  0.14090285338E+03  0.17550527539E+03  0.79037111493E+02 0.  0.
          5    1    5    5  501    0 -0.12455103030E+03  0.13680527420E+03  0.20396822066E+03  0.27541562634E+03  0.47000000000E+01 0. -1.
        -13    1    6    6    0    0 -0.58304465403E+02  0.27913297742E+02  0.60149165126E+02  0.88297706324E+02  0.00000000000E+00 0.  1.
         14    1    6    6    0    0 -0.10179682554E+02 -0.31310956536E+02  0.80753688254E+02  0.87207569068E+02  0.00000000000E+00 0. -1.
         -5    1    3    3    0  503  0.16606683463E+02 -0.80933774564E+02 -0.68932948060E+02  0.10770282786E+03  0.47000000000E+01 0.  1.
         11    1    4    4    0    0  0.53680246841E+02 -0.33210231024E+02  0.16394532732E+02  0.65217091694E+02  0.00000000000E+00 0. -1.
        -12    1    4    4    0    0  0.12274824795E+03 -0.19263609814E+02 -0.71535116791E+02  0.14337186604E+03  0.00000000000E+00 0.  1.
</event>
<event>
12    1  0.8135779E-002  0.2532327E+03  0.7818608E-02  0.1111380E+00
         21   -1    0    0  501  502  0.00000000000E+00  0.00000000000E+00  0.13112727966E+03  0.13112727966E+03  0.00000000000E+00 0.  1.
         21   -1    0    0  502  503 -0.00000000000E+00 -0.00000000000E+00 -0.49061608492E+03  0.49061608492E+03  0.00000000000E+00 0.  1.
         -6    2    1    2    0  503  0.13040163505E+03  0.13167727316E+03 -0.15591795754E+03  0.29683124247E+03  0.17162425916E+03 0.  0.
        -24    2    3    3    0    0  0.14580478559E+03  0.77752607572E+02 -0.74807615729E+02  0.19810888354E+03  0.79664589869E+02 0.  0.
          6    2    1    2  501    0 -0.13040163505E+03 -0.13167727316E+03 -0.20357084771E+03  0.32491212211E+03  0.17257840643E+03 0.  0.
         24    2    5    5    0    0 -0.14024999745E+03 -0.72240146795E+02 -0.19734225260E+03  0.26416142146E+03  0.77127111534E+02 0.  0.
          5    1    5    5  501    0  0.98483624004E+01 -0.59437126364E+02 -0.62285951178E+01  0.60750700651E+02  0.47000000000E+01 0. -1.
        -13    1    6    6    0    0 -0.57670735172E+02 -0.41383397501E+02 -0.34351266329E+02  0.78857522041E+02  0.00000000000E+00 0.  1.
         14    1    6    6    0    0 -0.82579262282E+02 -0.30856749294E+02 -0.16299098627E+03  0.18530389942E+03  0.00000000000E+00 0. -1.
         -5    1    3    3    0  503 -0.15403150539E+02  0.53924665587E+02 -0.81110341813E+02  0.98722358938E+02  0.47000000000E+01 0.  1.
         13    1    4    4    0    0  0.78202715040E+02  0.60657924242E+02 -0.44784438521E+01  0.99071211118E+02  0.00000000000E+00 0. -1.
        -14    1    4    4    0    0  0.67602070552E+02  0.17094683330E+02 -0.70329171877E+02  0.99037672418E+02  0.00000000000E+00 0.  1.
</event>
<event>
12    1  0.8135779E-002  0.1951546E+03  0.7818608E-02  0.1153908E+00
         21   -1    0    0  501  502  0.00000000000E+00  0.00000000000E+00  0.31060020413E+03  0.31060020413E+03  0.00000000000E+00 0. -1.
         21   -1    0    0  502  503 -0.00000000000E+00 -0.00000000000E+00 -0.12288618330E+03  0.12288618330E+03  0.00000000000E+00 0. -1.
         -6    2    1    2    0  503 -0.23999896056E+02  0.89952007450E+02  0.82937242431E+02  0.21204693532E+03  0.17151664042E+03 0.  0.
        -24    2    3    3    0    0 -0.42385890799E+01  0.60305547400E+02  0.12234682215E+03  0.15871189223E+03  0.81030828456E+02 0.  0.
          6    2    1    2  501    0  0.23999896056E+02 -0.89952007450E+02  0.10477677839E+03  0.22143945211E+03  0.17143482437E+03 0.  0.
         24    2    5    5    0    0  0.25680678727E+02  0.17833025948E+02  0.55671133215E+02  0.10289033637E+03  0.80682291558E+02 0.  0.
          5    1    5    5  501    0 -0.16807826704E+01 -0.10778503340E+03  0.49105645178E+02  0.11854911574E+03  0.47000000000E+01 0. -1.
        -13    1    6    6    0    0  0.22280185502E+02 -0.97019090455E+01 -0.13897046845E+02  0.27993956779E+02  0.00000000000E+00 0.  1.
         14    1    6    6    0    0  0.34004932243E+01  0.27534934994E+02  0.69568180060E+02  0.74896379593E+02  0.00000000000E+00 0. -1.
         -5    1    3    3    0  503 -0.19761306976E+02  0.29646460050E+02 -0.39409579723E+02  0.53335043084E+02  0.47000000000E+01 0.  1.
         11    1    4    4    0    0  0.36776303706E+02  0.34157640563E+02  0.45390507590E+02  0.67672291983E+02  0.00000000000E+00 0. -1.
        -12    1    4    4    0    0 -0.41014892786E+02  0.26147906837E+02  0.76956314564E+02  0.91039600249E+02  0.00000000000E+00 0.  1.
</event>
<event>
12    1  0.8135779E-002  0.2001645E+03  0.7818608E-02  0.1150222E+00
         21   -1    0    0  503  502  0.00000000000E+00  0.00000000000E+00  0.48945611750E+03  0.48945611750E+03  0.00000000000E+00 0. -1.
         21   -1    0    0  501  503 -0.00000000000E+00 -0.00000000000E+00 -0.22073069279E+03  0.22073069279E+03  0.00000000000E+00 0. -1.
          6    2    1    2  501    0 -0.27915883094E+02  0.91827873388E+02 -0.14813677514E+03  0.24901871370E+03  0.17565352477E+03 0.  0.
         24    2    3    3    0    0  0.47862431326E+02  0.40403907083E+02 -0.46603441107E+02  0.11220539137E+03  0.80590825098E+02 0.  0.
         -6    2    1    2    0  502  0.27915883094E+02 -0.91827873388E+02  0.41686219985E+03  0.46116809659E+03  0.17230863236E+03 0.  0.
        -24    2    5    5    0    0 -0.26896059978E+01  0.33828873247E+01  0.26252505602E+03  0.27720117324E+03  0.88895486404E+02 0.  0.
          5    1    3    3  501    0 -0.75778314419E+02  0.51423966305E+02 -0.10153333403E+03  0.13681332233E+03  0.47000000000E+01 0. -1.
        -13    1    4    4    0    0  0.20752902470E+02 -0.22950390593E+02 -0.40276399306E+01  0.31202968973E+02  0.00000000000E+00 0.  1.
         14    1    4    4    0    0  0.27109528855E+02  0.63354297676E+02 -0.42575801177E+02  0.81002422400E+02  0.00000000000E+00 0. -1.
         -5    1    5    5    0  502  0.30605489092E+02 -0.95210760713E+02  0.15433714383E+03  0.18396692334E+03  0.47000000000E+01 0.  1.
         11    1    6    6    0    0 -0.23166548255E+02 -0.21649828028E+02  0.22682394500E+03  0.22902948726E+03  0.00000000000E+00 0. -1.
        -12    1    6    6    0    0  0.20476942257E+02  0.25032715353E+02  0.35701111023E+02  0.48171685983E+02  0.00000000000E+00 0.  1.
</event>
<event>
12    1  0.8135779E-002  0.1747954E+03  0.7818608E-02  0.1175522E+00
         21   -1    0    0  503  502  0.00000000000E+00  0.00000000000E+00  0.19274996265E+02  0.19274996265E+02  0.00000000000E+00 0.  1.
         21   -1    0    0  501  503 -0.00000000000E+00 -0.00000000000E+00 -0.15852575138E+04  0.15852575138E+04  0.00000000000E+00 0.  1.
          6    2    1    2  501    0 -0.15067321774E+02  0.27975477881E+02 -0.57108794045E+03  0.59439951879E+03  0.16173960760E+03 0.  0.
         24    2    3    3    0    0  0.34232064747E+02  0.10723499576E+02 -0.49023320408E+03  0.49802712306E+03  0.80097398307E+02 0.  0.
         -6    2    1    2    0  502  0.15067321774E+02 -0.27975477881E+02 -0.99489457707E+03  0.10101329913E+04  0.17188306780E+03 0.  0.
        -24    2    5    5    0    0  0.29585810925E+02 -0.12522127260E+01 -0.95893827049E+03  0.96280577487E+03  0.80965827835E+02 0.  0.
          5    1    3    3  501    0 -0.49299386521E+02  0.17251978305E+02 -0.80854736366E+02  0.96372395734E+02  0.47000000000E+01 0. -1.
        -13    1    4    4    0    0 -0.11264853032E+02  0.32610947680E+02 -0.14080920735E+03  0.14497449327E+03  0.00000000000E+00 0.  1.
         14    1    4    4    0    0  0.45496917779E+02 -0.21887448104E+02 -0.34942399673E+03  0.35305262979E+03  0.00000000000E+00 0. -1.
         -5    1    5    5    0  502 -0.14518489151E+02 -0.26723265155E+02 -0.35956306586E+02  0.47327216388E+02  0.47000000000E+01 0.  1.
         11    1    6    6    0    0  0.85840795508E+01 -0.33700125907E+02 -0.71311085246E+03  0.71395831307E+03  0.00000000000E+00 0. -1.
        -12    1    6    6    0    0  0.21001731374E+02  0.32447913181E+02 -0.24582741802E+03  0.24884746180E+03  0.00000000000E+00 0.  1.
</event>
<event>
12    1  0.8135779E-002  0.2160217E+03  0.7818608E-02  0.1137488E+00
         21   -1    0    0  503  502  0.00000000000E+00  0.00000000000E+00  0.40707940266E+03  0.40707940266E+03  0.00000000000E+00 0.  1.
         21   -1    0    0  501  503 -0.00000000000E+00 -0.00000000000E+00 -0.17606519632E+03  0.17606519632E+03  0.00000000000E+00 0.  1.
          6    2    1    2  501    0  0.36300998465E+02 -0.11975161799E+03 -0.58486648342E+02  0.22379914314E+03  0.17608848894E+03 0.  0.
         24    2    3    3    0    0 -0.60109632939E+01 -0.20906205235E+02 -0.80056913787E+02  0.11403537826E+03  0.78241657395E+02 0.  0.
         -6    2    1    2    0  502 -0.36300998465E+02  0.11975161799E+03  0.28950085467E+03  0.35934545584E+03  0.17222136707E+03 0.  0.
        -24    2    5    5    0    0 -0.67974639583E+00  0.45731312656E+02  0.48881718388E+02  0.10504732775E+03  0.80954948356E+02 0.  0.
          5    1    3    3  501    0  0.42311961758E+02 -0.98845412754E+02  0.21570265446E+02  0.10976376489E+03  0.47000000000E+01 0. -1.
        -11    1    4    4    0    0 -0.29056206172E+02 -0.18573930954E+02 -0.83757107409E+02  0.90578734092E+02  0.00000000000E+00 0.  1.
         12    1    4    4    0    0  0.23045242878E+02 -0.23322742801E+01  0.37001936214E+01  0.23456644165E+02  0.00000000000E+00 0. -1.
         -5    1    5    5    0  502 -0.35621252069E+02  0.74020305332E+02  0.24061913628E+03  0.25429812808E+03  0.47000000000E+01 0.  1.
         11    1    6    6    0    0 -0.34865262873E+02 -0.64967138771E+00  0.13261887503E+02  0.37307992284E+02  0.00000000000E+00 0. -1.
        -12    1    6    6    0    0  0.34185516477E+02  0.46380984044E+02  0.35619830886E+02  0.67739335471E+02  0.00000000000E+00 0.  1.
</event>
<event>
12    1  0.8135779E-002  0.1833996E+03  0.7818608E-02  0.1164905E+00
         21   -1    0    0  503  502  0.00000000000E+00  0.00000000000E+00  0.70100032047E+03  0.70100032047E+03  0.00000000000E+00 0. -1.
         21   -1    0    0  501  503 -0.00000000000E+00 -0.00000000000E+00 -0.65794555245E+02  0.65794555245E+02  0.00000000000E+00 0. -1.
          6    2    1    2  501    0 -0.44067517337E+01  0.64198426738E+02  0.11501859473E+03  0.21522429674E+03  0.17015100152E+03 0.  0.
         24    2    3    3    0    0  0.68709359669E+01  0.43908388819E+02  0.14878661349E+03  0.17397819426E+03  0.78458902334E+02 0.  0.
         -6    2    1    2    0  502  0.44067517337E+01 -0.64198426738E+02  0.52018717050E+03  0.55157057898E+03  0.17173978510E+03 0.  0.
        -24    2    5    5    0    0  0.72365539119E+01 -0.10063679638E+03  0.48152560788E+03  0.49816113237E+03  0.78214258673E+02 0.  0.
          5    1    3    3  501    0 -0.11277687701E+02  0.20290037919E+02 -0.33768018760E+02  0.41246102478E+02  0.47000000000E+01 0. -1.
        -11    1    4    4    0    0  0.12753202772E+02  0.62118906361E+02  0.77346959356E+02  0.10001977220E+03  0.00000000000E+00 0.  1.
         12    1    4    4    0    0 -0.58822668054E+01 -0.18210517542E+02  0.71439654130E+02  0.73958422064E+02  0.00000000000E+00 0. -1.
         -5    1    5    5    0  502 -0.28298021782E+01  0.36438369645E+02  0.38661562616E+02  0.53409446605E+02  0.47000000000E+01 0.  1.
         11    1    6    6    0    0 -0.66550323664E+01 -0.82793099483E+02  0.45822185875E+03  0.46568901491E+03  0.00000000000E+00 0. -1.
        -12    1    6    6    0    0  0.13891586278E+02 -0.17843696901E+02  0.23303749137E+02  0.32472117459E+02  0.00000000000E+00 0.  1.
</event>
<event>
12    1  0.8135779E-002  0.1927037E+03  0.7818608E-02  0.1156123E+00
         21   -1    0    0  501  502  0.00000000000E+00  0.00000000000E+00  0.93489521781E+02  0.93489521781E+02  0.00000000000E+00 0. -1.
         21   -1    0    0  502  503 -0.00000000000E+00 -0.00000000000E+00 -0.53802568258E+03  0.53802568258E+03  0.00000000000E+00 0. -1.
         -6    2    1    2    0  503 -0.80804907498E+02 -0.21349144598E+02 -0.38437135401E+03  0.42997217428E+03  0.17363615355E+03 0.  0.
        -24    2    3    3    0    0 -0.58442917650E+02 -0.42114819641E+02 -0.38435136121E+03  0.39909560955E+03  0.79762798587E+02 0.  0.
          6    2    1    2  501    0  0.80804907498E+02  0.21349144598E+02 -0.60164806787E+02  0.20154303008E+03  0.17324713547E+03 0.  0.
         24    2    5    5    0    0  0.65546910867E+02 -0.61709953298E+01 -0.10417798359E+03  0.14723451974E+03  0.80563470831E+02 0.  0.
          5    1    5    5  501    0  0.15257996630E+02  0.27520139928E+02  0.44013176800E+02  0.54308510336E+02  0.47000000000E+01 0. -1.
        -13    1    6    6    0    0  0.69546369324E+02 -0.16966788199E+02 -0.39942417061E+02  0.81975399167E+02  0.00000000000E+00 0.  1.
         14    1    6    6    0    0 -0.39994584563E+01  0.10795792869E+02 -0.64235566526E+02  0.65259120577E+02  0.00000000000E+00 0. -1.
         -5    1    3    3    0  503 -0.22361989848E+02  0.20765675042E+02 -0.19992798078E-01  0.30876564731E+02  0.47000000000E+01 0.  1.
         13    1    4    4    0    0 -0.75570990500E+02 -0.46968547590E+02 -0.33561653505E+03  0.34721099877E+03  0.00000000000E+00 0. -1.
        -14    1    4    4    0    0  0.17128072850E+02  0.48537279494E+01 -0.48734826161E+02  0.51884610778E+02  0.00000000000E+00 0.  1.
</event>
<event>
12    1  0.8135779E-002  0.1814266E+03  0.7818608E-02  0.1166807E+00
         21   -1    0    0  503  502  0.00000000000E+00  0.00000000000E+00  0.36883303747E+03  0.36883303747E+03  0.00000000000E+00 0.  1.
         21   -1    0    0  501  503 -0.00000000000E+00 -0.00000000000E+00 -0.95136550036E+02  0.95136550036E+02  0.00000000000E+00 0.  1.
          6    2    1    2  501    0 -0.59312369294E+02 -0.49682820414E+01  0.19769261011E+03  0.26726622646E+03  0.16972397220E+03 0.  0.
         24    2    3    3    0    0  0.14102311561E+02  0.41302369784E+02  0.10168915724E+03  0.13776934793E+03  0.82066726445E+02 0.  0.
         -6    2    1    2    0  502  0.59312369294E+02  0.49682820414E+01  0.76003877329E+02  0.19670336105E+03  0.17138547751E+03 0.  0.
        -24    2    5    5    0    0  0.51080013804E+02 -0.45747905348E+02  0.10033983020E+03  0.13965748528E+03  0.68804745592E+02 0.  0.
          5    1    3    3  501    0 -0.73414680855E+02 -0.46270651825E+02  0.96003452870E+02  0.12949687853E+03  0.47000000000E+01 0. -1.
        -13    1    4    4    0    0 -0.12285322958E+02 -0.21341451578E+02  0.21934943244E+02  0.32977696262E+02  0.00000000000E+00 0.  1.
         14    1    4    4    0    0  0.26387634519E+02  0.62643821362E+02  0.79754213995E+02  0.10479165167E+03  0.00000000000E+00 0. -1.
         -5    1    5    5    0  502  0.82323554903E+01  0.50716187389E+02 -0.24335952869E+02  0.57045875769E+02  0.47000000000E+01 0.  1.
         13    1    6    6    0    0  0.58343371450E+02 -0.18057332852E+02  0.90904171131E+02  0.10951522538E+03  0.00000000000E+00 0. -1.
        -14    1    6    6    0    0 -0.72633576463E+01 -0.27690572496E+02  0.94356590659E+01  0.30142259893E+02  0.00000000000E+00 0.  1.
</event>
<event>
12    1  0.8135779E-002  0.2061436E+03  0.7818608E-02  0.1144866E+00
         21   -1    0    0  503  502  0.00000000000E+00  0.00000000000E+00  0.21877220678E+03  0.21877220678E+03  0.00000000000E+00 0. -1.
         21   -1    0    0  501  503 -0.00000000000E+00 -0.00000000000E+00 -0.27653414944E+03  0.27653414944E+03  0.00000000000E+00 0. -1.
          6    2    1    2  501    0  0.59398182196E+02  0.94033799431E+02 -0.16481976987E+03  0.26393318760E+03  0.17356460322E+03 0.  0.
         24    2    3    3    0    0 -0.13731920988E+02  0.73892620341E+01 -0.28310461659E+02  0.86416514911E+02  0.80144650243E+02 0.  0.
         -6    2    1    2    0  502 -0.59398182196E+02 -0.94033799431E+02  0.10705782721E+03  0.23137316862E+03  0.17234171088E+03 0.  0.
        -24    2    5    5    0    0 -0.65200961325E+02 -0.87923898032E+02  0.14126045339E+03  0.19583568449E+03  0.80095707915E+02 0.  0.
          5    1    3    3  501    0  0.73130103184E+02  0.86644537397E+02 -0.13650930822E+03  0.17751667269E+03  0.47000000000E+01 0. -1.
        -11    1    4    4    0    0 -0.29921622337E+02  0.29658199474E+02 -0.38488126169E+02  0.57063544714E+02  0.00000000000E+00 0.  1.
         12    1    4    4    0    0  0.16189701349E+02 -0.22268937440E+02  0.10177664510E+02  0.29352970196E+02  0.00000000000E+00 0. -1.
         -5    1    5    5    0  502  0.58027791299E+01 -0.61099013993E+01 -0.34202626179E+02  0.35537484130E+02  0.47000000000E+01 0.  1.
         13    1    6    6    0    0 -0.65358018482E+02 -0.51597113174E+02  0.48850125207E+02  0.96541531998E+02  0.00000000000E+00 0. -1.
        -14    1    6    6    0    0  0.15705715708E+00 -0.36326784858E+02  0.92410328179E+02  0.99294152493E+02  0.00000000000E+00 0.  1.
</event>
<event>
12    1  0.8135779E-002  0.3659531E+03  0.7818608E-02  0.1056332E+00
         21   -1    0    0  503  502  0.00000000000E+00  0.00000000000E+00  0.85013254121E+03  0.85013254121E+03  0.00000000000E+00 0.  1.
         21   -1    0    0  501  503 -0.00000000000E+00 -0.00000000000E+00 -0.25673352410E+03  0.25673352410E+03  0.00000000000E+00 0. -1.
          6    2    1    2  501    0  0.24485177004E+03 -0.21018002109E+03 -0.48152348200E+02  0.36827970389E+03  0.17083108940E+03 0.  0.
         24    2    3    3    0    0  0.38473051902E+02 -0.86279407783E+02 -0.78415802389E+01  0.12416787441E+03  0.80198869851E+02 0.  0.
         -6    2    1    2    0  502 -0.24485177004E+03  0.21018002109E+03  0.64155136530E+03  0.73858636142E+03  0.17260830917E+03 0.  0.
        -24    2    5    5    0    0 -0.20098160667E+03  0.23169853742E+03  0.55573436373E+03  0.63972137501E+03  0.79529467160E+02 0.  0.
          5    1    3    3  501    0  0.20637871814E+03 -0.12390061331E+03 -0.40310767961E+02  0.24411182948E+03  0.47000000000E+01 0. -1.
        -13    1    4    4    0    0  0.31604079814E+02  0.50758559668E+01 -0.58106538135E+01  0.32532228212E+02  0.00000000000E+00 0.  1.
         14    1    4    4    0    0  0.68689720880E+01 -0.91355263750E+02 -0.20309264254E+01  0.91635646200E+02  0.00000000000E+00 0. -1.
         -5    1    5    5    0  502 -0.43870163368E+02 -0.21518516335E+02  0.85817001577E+02  0.98864986415E+02  0.47000000000E+01 0.  1.
         11    1    6    6    0    0 -0.10336604624E+02 -0.43464882341E+01  0.38087451012E+02  0.39703794273E+02  0.00000000000E+00 0. -1.
        -12    1    6    6    0    0 -0.19064500205E+03  0.23604502566E+03  0.51764691272E+03  0.60001758073E+03  0.00000000000E+00 0.  1.
</event>
<event>
12    1  0.8135779E-002  0.1847991E+03  0.7818608E-02  0.1163414E+00
         21   -1    0    0  501  502  0.00000000000E+00  0.00000000000E+00  0.37928426404E+03  0.37928426404E+03  0.00000000000E+00 0.  1.
         21   -1    0    0  502  503 -0.00000000000E+00 -0.00000000000E+00 -0.18261258867E+03  0.18261258867E+03  0.00000000000E+00 0.  1.
         -6    2    1    2    0  503  0.66210794495E+02  0.13824299414E+02 -0.10199470435E+03  0.21107732554E+03  0.17197597820E+03 0.  0.
        -24    2    3    3    0    0  0.59828565100E+01  0.42626142131E+02 -0.12250583042E+03  0.14107913305E+03  0.55162131307E+02 0.  0.
          6    2    1    2  501    0 -0.66210794495E+02 -0.13824299414E+02  0.29866637972E+03  0.35081952718E+03  0.17116586609E+03 0.  0.
         24    2    5    5    0    0 -0.54735387507E+02  0.48032274941E+02  0.12129912582E+03  0.16256662943E+03  0.80071024703E+02 0.  0.
          5    1    5    5  501    0 -0.11475406988E+02 -0.61856574355E+02  0.17736725390E+03  0.18825289775E+03  0.47000000000E+01 0. -1.
        -11    1    6    6    0    0 -0.68386641553E+02  0.36212726879E+02  0.57900329382E+02  0.96646481950E+02  0.00000000000E+00 0.  1.
         12    1    6    6    0    0  0.13651254045E+02  0.11819548062E+02  0.63398796442E+02  0.65920147479E+02  0.00000000000E+00 0. -1.
         -5    1    3    3    0  503  0.60227937985E+02 -0.28801842718E+02  0.20511126078E+02  0.69998192483E+02  0.47000000000E+01 0.  1.
         11    1    4    4    0    0 -0.22825489048E+02  0.31881265821E+02 -0.67362016282E+02  0.77942666738E+02  0.00000000000E+00 0. -1.
        -12    1    4    4    0    0  0.28808345558E+02  0.10744876311E+02 -0.55143814141E+02  0.63136466315E+02  0.00000000000E+00 0.  1.
</event>
<event>
12    1  0.8135779E-002  0.2361647E+03  0.7818608E-02  0.1122505E+00
         21   -1    0    0  501  502  0.00000000000E+00  0.00000000000E+00  0.30066962388E+03  0.30066962388E+03  0.00000000000E+00 0. -1.
         21   -1    0    0  502  503 -0.00000000000E+00 -0.00000000000E+00 -0.19284094836E+03  0.19284094836E+03  0.00000000000E+00 0. -1.
         -6    2    1    2    0  503 -0.10556353324E+03 -0.12055383668E+03  0.10391165217E+03  0.25731337796E+03  0.17244029672E+03 0.  0.
        -24    2    3    3    0    0 -0.13535786822E+03 -0.12561152989E+03  0.10447835384E+03  0.22672426538E+03  0.79925947993E+02 0.  0.
          6    2    1    2  501    0  0.10556353324E+03  0.12055383668E+03  0.39170233459E+01  0.23619719429E+03  0.17348453658E+03 0.  0.
         24    2    5    5    0    0 -0.11148285219E+02  0.59154147737E+02  0.21750908400E+02  0.10303673535E+03  0.80746327207E+02 0.  0.
          5    1    5    5  501    0  0.11671181846E+03  0.61399688941E+02 -0.17833885054E+02  0.13316045894E+03  0.47000000000E+01 0. -1.
        -11    1    6    6    0    0 -0.13534956623E+02  0.97042222538E+01  0.45262992369E+02  0.48229715514E+02  0.00000000000E+00 0.  1.
         12    1    6    6    0    0  0.23866714046E+01  0.49449925483E+02 -0.23512083969E+02  0.54807019836E+02  0.00000000000E+00 0. -1.
         -5    1    3    3    0  503  0.29794334982E+02  0.50576932075E+01 -0.56670166517E+00  0.30589112579E+02  0.47000000000E+01 0.  1.
         11    1    4    4    0    0 -0.67146534345E+02 -0.96422453205E+02  0.96605127471E+02  0.15211343534E+03  0.00000000000E+00 0. -1.
        -12    1    4    4    0    0 -0.68211333873E+02 -0.29189076680E+02  0.78732263686E+01  0.74610830042E+02  0.00000000000E+00 0.  1.
</event>
<event>
12    1  0.8135779E-002  0.3479475E+03  0.7818608E-02  0.1063603E+00
         21   -1    0    0  501  502  0.00000000000E+00  0.00000000000E+00  0.63944880462E+03  0.63944880462E+03  0.00000000000E+00 0.  1.
         21   -1    0    0  502  503 -0.00000000000E+00 -0.00000000000E+00 -0.19749619255E+03  0.19749619255E+03  0.00000000000E+00 0. -1.
         -6    2    1    2    0  503  0.12827920064E+03 -0.27257176020E+03  0.13250635827E+03  0.37232427709E+03  0.17411638220E+03 0.  0.
        -24    2    3    3    0    0  0.33083282490E+02 -0.21706621262E+03  0.11826956545E+03  0.26111319439E+03  0.77331532581E+02 0.  0.
          6    2    1    2  501    0 -0.12827920064E+03  0.27257176020E+03  0.30944625380E+03  0.46462072008E+03  0.17136076495E+03 0.  0.
         24    2    5    5    0    0 -0.14723509227E+03  0.27328365124E+03  0.30877074152E+03  0.44506620825E+03  0.79890127534E+02 0.  0.
          5    1    5    5  501    0  0.18955891630E+02 -0.71189103645E+00  0.67551228482E+00  0.19554511837E+02  0.47000000000E+01 0. -1.
        -13    1    6    6    0    0 -0.59854343275E+02  0.63345027976E+02  0.12660305790E+03  0.15369928187E+03  0.00000000000E+00 0.  1.
         14    1    6    6    0    0 -0.87380748994E+02  0.20993862326E+03  0.18216768362E+03  0.29136692638E+03  0.00000000000E+00 0. -1.
         -5    1    3    3    0  503  0.95195918149E+02 -0.55505547577E+02  0.14236792822E+02  0.11121108269E+03  0.47000000000E+01 0.  1.
         11    1    4    4    0    0  0.52280090748E+02 -0.13114043275E+03  0.50245241912E+02  0.14985194468E+03  0.00000000000E+00 0. -1.
        -12    1    4    4    0    0 -0.19196808258E+02 -0.85925779872E+02  0.68024323537E+02  0.11126124971E+03  0.00000000000E+00 0.  1.
</event>
<event>
12    1  0.8135779E-002  0.2208392E+03  0.7818608E-02  0.1133288E+00
         21   -1    0    0  501  502  0.00000000000E+00  0.00000000000E+00  0.40830843356E+03  0.40830843356E+03  0.00000000000E+00 0. -1.
         21   -1    0    0  502  503 -0.00000000000E+00 -0.00000000000E+00 -0.24203490235E+03  0.24203490235E+03  0.00000000000E+00 0.  1.
         -6    2    1    2    0  503  0.12069608203E+03 -0.67272222718E+02 -0.14835001233E+03  0.26604078127E+03  0.17226977383E+03 0.  0.
        -24    2    3    3    0    0  0.11596072922E+03 -0.84517993883E+02 -0.17105292592E+03  0.23676019940E+03  0.78778845767E+02 0.  0.
          6    2    1    2  501    0 -0.12069608203E+03  0.67272222718E+02  0.31462354354E+03  0.38430255464E+03  0.17206796095E+03 0.  0.
         24    2    5    5    0    0 -0.65818539869E+02  0.26580279132E+01  0.72318263667E+02  0.12755272025E+03  0.81857314156E+02 0.  0.
          5    1    5    5  501    0 -0.54877542161E+02  0.64614194805E+02  0.24230527987E+03  0.25674983439E+03  0.47000000000E+01 0. -1.
        -11    1    6    6    0    0 -0.84209615770E+02 -0.31958441492E+00  0.48038578018E+02  0.96948782872E+02  0.00000000000E+00 0.  1.
         12    1    6    6    0    0  0.18391075900E+02  0.29776123281E+01  0.24279685648E+02  0.30603937379E+02  0.00000000000E+00 0. -1.
         -5    1    3    3    0  503  0.47353528134E+01  0.17245771165E+02  0.22702913596E+02  0.29280581878E+02  0.47000000000E+01 0.  1.
         11    1    4    4    0    0  0.28901877356E+02  0.43452232261E+01 -0.56032441286E+01  0.29758962084E+02  0.00000000000E+00 0. -1.
        -12    1    4    4    0    0  0.87058851861E+02 -0.88863217109E+02 -0.16544968180E+03  0.20700123731E+03  0.00000000000E+00 0.  1.
</event>
<event>
12    1  0.8135779E-002  0.1814016E+03  0.7818608E-02  0.1166860E+00
         21   -1    0    0  503  502  0.00000000000E+00  0.00000000000E+00  0.12900307600E+03  0.12900307600E+03  0.00000000000E+00 0. -1.
         21   -1    0    0  501  503 -0.00000000000E+00 -0.00000000000E+00 -0.55556999466E+03  0.55556999466E+03  0.00000000000E+00 0.  1.
          6    2    1    2  501    0  0.46001716903E+02 -0.30177170873E+02 -0.46554746149E+03  0.49903052040E+03  0.17108536403E+03 0.  0.
         24    2    3    3    0    0  0.26467085475E+02  0.29574859501E+02 -0.39292007902E+03  0.40286018379E+03  0.79592463561E+02 0.  0.
         -6    2    1    2    0  502 -0.46001716903E+02  0.30177170873E+02  0.38980542835E+02  0.18554255026E+03  0.17285755881E+03 0.  0.
        -24    2    5    5    0    0 -0.75655110875E+02 -0.24637416182E+02  0.46387152220E+01  0.11423046256E+03  0.81831429298E+02 0.  0.
          5    1    3    3  501    0  0.19534631428E+02 -0.59752030374E+02 -0.72627382476E+02  0.96170336613E+02  0.47000000000E+01 0. -1.
        -11    1    4    4    0    0  0.22372339159E+02  0.24466205259E+02 -0.39468846904E+03  0.39607840682E+03  0.00000000000E+00 0.  1.
         12    1    4    4    0    0  0.40947463161E+01  0.51086542423E+01  0.17683900170E+01  0.67817769657E+01  0.00000000000E+00 0. -1.
         -5    1    5    5    0  502  0.29653393972E+02  0.54814587055E+02  0.34341827613E+02  0.71312087698E+02  0.47000000000E+01 0.  1.
         13    1    6    6    0    0 -0.79633840499E+02 -0.37696557895E+02  0.23275879350E+02  0.91128182190E+02  0.00000000000E+00 0. -1.
        -14    1    6    6    0    0  0.39787296243E+01  0.13059141713E+02 -0.18637164128E+02  0.23102280373E+02  0.00000000000E+00 0.  1.
</event>
<event>
12    1  0.8135779E-002  0.2301091E+03  0.7818608E-02  0.1126641E+00
         21   -1    0    0  501  502  0.00000000000E+00  0.00000000000E+00  0.96598158498E+02  0.96598158498E+02  0.00000000000E+00 0. -1.
         21   -1    0    0  502  503 -0.00000000000E+00 -0.00000000000E+00 -0.62684403510E+03  0.62684403510E+03  0.00000000000E+00 0.  1.
         -6    2    1    2    0  503 -0.11519880586E+03 -0.10014964588E+03 -0.13587662206E+03  0.26684904989E+03  0.17159616127E+03 0.  0.
        -24    2    3    3    0    0 -0.13093672721E+03 -0.62805991576E+02 -0.15004699045E+03  0.22366201450E+03  0.80134750745E+02 0.  0.
          6    2    1    2  501    0  0.11519880586E+03  0.10014964588E+03 -0.39436925454E+03  0.45659314371E+03  0.17219022479E+03 0.  0.
         24    2    5    5    0    0  0.52430177760E+02  0.17125047175E+02 -0.30496932600E+03  0.31930723078E+03  0.76867594281E+02 0.  0.
          5    1    5    5  501    0  0.62768628101E+02  0.83024598708E+02 -0.89399928547E+02  0.13728591293E+03  0.47000000000E+01 0. -1.
        -11    1    6    6    0    0  0.55690668167E+02 -0.18534527438E+02 -0.19667685600E+03  0.20524805703E+03  0.00000000000E+00 0.  1.
         12    1    6    6    0    0 -0.32604904075E+01  0.35659574613E+02 -0.10829247000E+03  0.11405917375E+03  0.00000000000E+00 0. -1.
         -5    1    3    3    0  503  0.15737921350E+02 -0.37343654307E+02  0.14170368389E+02  0.43187035389E+02  0.47000000000E+01 0.  1.
         13    1    4    4    0    0 -0.11443361277E+03 -0.22860146701E+02 -0.80457019441E+02  0.14174261891E+03  0.00000000000E+00 0. -1.
        -14    1    4    4    0    0 -0.16503114444E+02 -0.39945844875E+02 -0.69589971005E+02  0.81919395588E+02  0.00000000000E+00 0.  1.
</event>
<event>
12    1  0.8135779E-002  0.2005597E+03  0.7818608E-02  0.1149933E+00
         21   -1    0    0  503  502  0.00000000000E+00  0.00000000000E+00  0.75755160014E+02  0.75755160014E+02  0.00000000000E+00 0.  1.
         21   -1    0    0  501  503 -0.00000000000E+00 -0.00000000000E+00 -0.22624855414E+04  0.22624855414E+04  0.00000000000E+00 0.  1.
          6    2    1    2  501    0 -0.24597158008E+02  0.96061469296E+02 -0.21205651930E+04  0.21300283859E+04  0.17433118241E+03 0.  0.
         24    2    3    3    0    0 -0.36907523504E+02  0.12089951624E+03 -0.20221994721E+04  0.20277230649E+04  0.79945384651E+02 0.  0.
         -6    2    1    2    0  502  0.24597158008E+02 -0.96061469296E+02 -0.66165188425E+02  0.20821231549E+03  0.17070943178E+03 0.  0.
        -24    2    5    5    0    0  0.50283641531E+00 -0.41716568435E+02  0.31681245415E+02  0.93626455993E+02  0.77599529794E+02 0.  0.
          5    1    3    3  501    0  0.12310365496E+02 -0.24838046940E+02 -0.98365720850E+02  0.10230532104E+03  0.47000000000E+01 0. -1.
        -13    1    4    4    0    0  0.12573681398E+02  0.10397332412E+02 -0.64654073648E+03  0.64674657009E+03  0.00000000000E+00 0.  1.
         14    1    4    4    0    0 -0.49481204902E+02  0.11050218382E+03 -0.13756587356E+04  0.13809764948E+04  0.00000000000E+00 0. -1.
         -5    1    5    5    0  502  0.24094321593E+02 -0.54344900861E+02 -0.97846433840E+02  0.11458585950E+03  0.47000000000E+01 0.  1.
         13    1    6    6    0    0 -0.21244715053E+02  0.15105205327E+02  0.26136778818E+01  0.26198023928E+02  0.00000000000E+00 0. -1.
        -14    1    6    6    0    0  0.21747551469E+02 -0.56821773762E+02  0.29067567533E+02  0.67428432064E+02  0.00000000000E+00 0.  1.
</event>
<event>
12    1  0.8135779E-002  0.2245868E+03  0.7818608E-02  0.1131707E+00
         21   -1    0    0  503  502  0.00000000000E+00  0.00000000000E+00  0.61457729022E+03  0.61457729022E+03  0.00000000000E+00 0.  1.
         21   -1    0    0  501  503 -0.00000000000E+00 -0.00000000000E+00 -0.84688587970E+02  0.84688587970E+02  0.00000000000E+00 0.  1.
          6    2    1    2  501    0  0.11984666593E+03 -0.59770179309E+02  0.17654799163E+03  0.28059070000E+03  0.17212277569E+03 0.  0.
         24    2    3    3    0    0  0.14641852514E+03 -0.47205483716E+02  0.99318211834E+02  0.19782316914E+03  0.74854237359E+02 0.  0.
         -6    2    1    2    0  502 -0.11984666593E+03  0.59770179309E+02  0.35334071062E+03  0.41867517819E+03  0.18028740772E+03 0.  0.
        -24    2    5    5    0    0 -0.37481841047E+02  0.56523152718E+02  0.78027637747E+02  0.13124886475E+03  0.80859118505E+02 0.  0.
          5    1    3    3  501    0 -0.26571859209E+02 -0.12564695593E+02  0.77229779799E+02  0.82767530862E+02  0.47000000000E+01 0. -1.
        -13    1    4    4    0    0  0.64563160297E+02 -0.60037556224E+02  0.48468250801E+02  0.10060855411E+03  0.00000000000E+00 0.  1.
         14    1    4    4    0    0  0.81855364843E+02  0.12832072508E+02  0.50849961033E+02  0.97214615030E+02  0.00000000000E+00 0. -1.
         -5    1    5    5    0  502 -0.82364824884E+02  0.32470265905E+01  0.27531307287E+03  0.28742631344E+03  0.47000000000E+01 0.  1.
         11    1    6    6    0    0  0.89273182680E+01  0.13794881694E+01  0.54778100892E+02  0.55517928063E+02  0.00000000000E+00 0. -1.
        -12    1    6    6    0    0 -0.46409159315E+02  0.55143664549E+02  0.23249536855E+02  0.75730936691E+02  0.00000000000E+00 0.  1.
</event>
<event>
12    1  0.8135779E-002  0.2195536E+03  0.7818608E-02  0.1134858E+00
         21   -1    0    0  503  502  0.00000000000E+00  0.00000000000E+00  0.40720511457E+03  0.40720511457E+03  0.00000000000E+00 0. -1.
         21   -1    0    0  501  503 -0.00000000000E+00 -0.00000000000E+00 -0.15566958685E+03  0.15566958685E+03  0.00000000000E+00 0.  1.
          6    2    1    2  501    0 -0.64698770553E+02 -0.11102711744E+03 -0.16051116291E+02  0.21674407338E+03  0.17380277125E+03 0.  0.
         24    2    3    3    0    0 -0.98243547827E+01 -0.95847517565E+02  0.46045844193E+02  0.13236549636E+03  0.78212149240E+02 0.  0.
         -6    2    1    2    0  502  0.64698770553E+02  0.11102711744E+03  0.26758664402E+03  0.34613062804E+03  0.17801923462E+03 0.  0.
        -24    2    5    5    0    0  0.95337649111E+02  0.61020217014E+02  0.24857562381E+03  0.28430070116E+03  0.78894319850E+02 0.  0.
          5    1    3    3  501    0 -0.54874415770E+02 -0.15179599871E+02 -0.62096960484E+02  0.84378577019E+02  0.47000000000E+01 0. -1.
        -11    1    4    4    0    0 -0.12969882193E+02 -0.38120024798E+01 -0.16285072902E+02  0.21164895616E+02  0.00000000000E+00 0.  1.
         12    1    4    4    0    0  0.31455274101E+01 -0.92035515085E+02  0.62330917096E+02  0.11120060074E+03  0.00000000000E+00 0. -1.
         -5    1    5    5    0  502 -0.30638878559E+02  0.50006900422E+02  0.19011020213E+02  0.61829926886E+02  0.47000000000E+01 0.  1.
         13    1    6    6    0    0  0.46116820625E+02  0.73885996116E+02  0.15598311791E+03  0.17865227298E+03  0.00000000000E+00 0. -1.
        -14    1    6    6    0    0  0.49220828486E+02 -0.12865779102E+02  0.92592505897E+02  0.10564842818E+03  0.00000000000E+00 0.  1.
</event>
<event>
12    1  0.8135779E-002  0.1991418E+03  0.7818608E-02  0.1150703E+00
         21   -1    0    0  501  502  0.00000000000E+00  0.00000000000E+00  0.26522276439E+03  0.26522276439E+03  0.00000000000E+00 0. -1.
         21   -1    0    0  502  503 -0.00000000000E+00 -0.00000000000E+00 -0.16916827328E+03  0.16916827328E+03  0.00000000000E+00 0. -1.
         -6    2    1    2    0  503 -0.18207286158E+02 -0.99419551806E+02  0.12371907372E+03  0.23444371711E+03  0.17158582325E+03 0.  0.
        -24    2    3    3    0    0  0.80728858601E+01  0.42719405741E+01  0.12730050341E+02  0.80225604216E+02  0.78680826303E+02 0.  0.
          6    2    1    2  501    0  0.18207286158E+02  0.99419551806E+02 -0.27664582612E+02  0.19994732056E+03  0.17028754893E+03 0.  0.
         24    2    5    5    0    0  0.70581843801E+02  0.42987043901E+02 -0.39587828291E+02  0.12189620895E+03  0.80385365521E+02 0.  0.
          5    1    5    5  501    0 -0.52374557642E+02  0.56432507905E+02  0.11923245679E+02  0.78051111614E+02  0.47000000000E+01 0. -1.
        -11    1    6    6    0    0 -0.16927001949E+02  0.14190673562E+02 -0.14478008352E+02  0.26410439924E+02  0.00000000000E+00 0.  1.
         12    1    6    6    0    0  0.87508845750E+02  0.28796370339E+02 -0.25109819938E+02  0.95485769026E+02  0.00000000000E+00 0. -1.
         -5    1    3    3    0  503 -0.26280172018E+02 -0.10369149238E+03  0.11098902338E+03  0.15421811289E+03  0.47000000000E+01 0.  1.
         13    1    4    4    0    0 -0.25289456191E+02  0.11707602470E+02  0.30821424148E+02  0.41552192921E+02  0.00000000000E+00 0. -1.
        -14    1    4    4    0    0  0.33362342051E+02 -0.74356618958E+01 -0.18091373807E+02  0.38673411295E+02  0.00000000000E+00 0.  1.
</event>
<event>
12    1  0.8135779E-002  0.1867248E+03  0.7818608E-02  0.1161681E+00
         21   -1    0    0  501  502  0.00000000000E+00  0.00000000000E+00  0.72741292852E+02  0.72741292852E+02  0.00000000000E+00 0.  1.
         21   -1    0    0  502  503 -0.00000000000E+00 -0.00000000000E+00 -0.47741931429E+03  0.47741931429E+03  0.00000000000E+00 0. -1.
         -6    2    1    2    0  503  0.72586656450E+01  0.72463441287E+02 -0.19149975024E+03  0.26676845915E+03  0.17084969390E+03 0.  0.
        -24    2    3    3    0    0  0.68565363952E+02  0.56727461814E+02 -0.15140952613E+03  0.19169883562E+03  0.76839995568E+02 0.  0.
          6    2    1    2  501    0 -0.72586656450E+01 -0.72463441287E+02 -0.21317827120E+03  0.28339214799E+03  0.17193747608E+03 0.  0.
         24    2    5    5    0    0  0.50459622092E+02 -0.40720994406E+02 -0.65475489389E+02  0.12159849723E+03  0.79339662022E+02 0.  0.
          5    1    5    5  501    0 -0.57718287737E+02 -0.31742446881E+02 -0.14770278181E+03  0.16179365077E+03  0.47000000000E+01 0. -1.
        -11    1    6    6    0    0  0.40111552396E+02  0.15543063392E+02 -0.15781824379E+02  0.45821277110E+02  0.00000000000E+00 0.  1.
         12    1    6    6    0    0  0.10348069696E+02 -0.56264057799E+02 -0.49693665009E+02  0.75777220116E+02  0.00000000000E+00 0. -1.
         -5    1    3    3    0  503 -0.61306698307E+02  0.15735979473E+02 -0.40090224106E+02  0.75069623525E+02  0.47000000000E+01 0.  1.
         13    1    4    4    0    0 -0.17120792561E+02  0.98694219039E+01 -0.21979532963E+02  0.29557180108E+02  0.00000000000E+00 0. -1.
        -14    1    4    4    0    0  0.85686156513E+02  0.46858039910E+02 -0.12942999317E+03  0.16214165551E+03  0.00000000000E+00 0.  1.
</event>
<event>
12    1  0.8135779E-002  0.1763204E+03  0.7818608E-02  0.1171473E+00
         21   -1    0    0  503  502  0.00000000000E+00  0.00000000000E+00  0.93679069475E+03  0.93679069475E+03  0.00000000000E+00 0.  1.
         21   -1    0    0  501  503 -0.00000000000E+00 -0.00000000000E+00 -0.36027751368E+02  0.36027751368E+02  0.00000000000E+00 0.  1.
          6    2    1    2  501    0 -0.37987515275E+02  0.71313174875E+00  0.31240532620E+03  0.35860874294E+03  0.17192900512E+03 0.  0.
         24    2    3    3    0    0 -0.15766950302E+02  0.49731504742E+02  0.27856415326E+03  0.29486025759E+03  0.81380370709E+02 0.  0.
         -6    2    1    2    0  502  0.37987515275E+02 -0.71313174875E+00  0.58835761718E+03  0.61420970318E+03  0.17217814585E+03 0.  0.
        -24    2    5    5    0    0  0.65455990753E+01  0.65116879416E+02  0.24919923530E+03  0.26726203787E+03  0.71032986414E+02 0.  0.
          5    1    3    3  501    0 -0.22220564973E+02 -0.49018372993E+02  0.33841172936E+02  0.63748485349E+02  0.47000000000E+01 0. -1.
        -11    1    4    4    0    0  0.74787627430E+00 -0.20920995904E+02  0.99034836483E+02  0.10122324943E+03  0.00000000000E+00 0.  1.
         12    1    4    4    0    0 -0.16514826576E+02  0.70652500645E+02  0.17952931678E+03  0.19363700815E+03  0.00000000000E+00 0. -1.
         -5    1    5    5    0  502  0.31441916200E+02 -0.65830011165E+02  0.33915838188E+03  0.34694766531E+03  0.47000000000E+01 0.  1.
         13    1    6    6    0    0 -0.16497936199E+02 -0.71742725213E+01  0.26820221956E+02  0.32295145003E+02  0.00000000000E+00 0. -1.
        -14    1    6    6    0    0  0.23043535274E+02  0.72291151938E+02  0.22237901335E+03  0.23496689287E+03  0.00000000000E+00 0.  1.
</event>
<event>
12    1  0.8135779E-002  0.2057740E+03  0.7818608E-02  0.1145226E+00
         21   -1    0    0  501  502  0.00000000000E+00  0.00000000000E+00  0.92081463790E+02  0.92081463790E+02  0.00000000000E+00 0.  1.
         21   -1    0    0  502  503 -0.00000000000E+00 -0.00000000000E+00 -0.69377876957E+03  0.69377876957E+03  0.00000000000E+00 0.  1.
         -6    2    1    2    0  503  0.75739588995E+02  0.81830844906E+02 -0.53108387542E+03  0.56955511127E+03  0.17294556808E+03 0.  0.
        -24    2    3    3    0    0 -0.37547661262E+01  0.88120946822E+02 -0.24677918990E+03  0.27424144398E+03  0.80802236910E+02 0.  0.
          6    2    1    2  501    0 -0.75739588995E+02 -0.81830844906E+02 -0.70613430357E+02  0.21630512209E+03  0.17137350080E+03 0.  0.
         24    2    5    5    0    0  0.62576158475E+01 -0.63175520099E+02  0.55359745561E+01  0.10276048499E+03  0.80614925204E+02 0.  0.
          5    1    5    5  501    0 -0.81997204843E+02 -0.18655324807E+02 -0.76149404913E+02  0.11354463710E+03  0.47000000000E+01 0. -1.
        -13    1    6    6    0    0 -0.28786324161E+02 -0.59404271242E+02  0.11521943148E+02  0.67009514806E+02  0.00000000000E+00 0.  1.
         14    1    6    6    0    0  0.35043940009E+02 -0.37712488564E+01 -0.59859685919E+01  0.35750970186E+02  0.00000000000E+00 0. -1.
         -5    1    3    3    0  503  0.79494355121E+02 -0.62901019154E+01 -0.28430468552E+03  0.29531366729E+03  0.47000000000E+01 0.  1.
         13    1    4    4    0    0  0.34940582039E+02  0.66041450934E+02 -0.16457527349E+03  0.18074108044E+03  0.00000000000E+00 0. -1.
        -14    1    4    4    0    0 -0.38695348165E+02  0.22079495888E+02 -0.82203916411E+02  0.93500363537E+02  0.00000000000E+00 0.  1.
</event>
<event>
12    1  0.8135779E-002  0.1943113E+03  0.7818608E-02  0.1155613E+00
         21   -1    0    0  501  502  0.00000000000E+00  0.00000000000E+00  0.10374947984E+03  0.10374947984E+03  0.00000000000E+00 0.  1.
         21   -1    0    0  502  503 -0.00000000000E+00 -0.00000000000E+00 -0.52684998406E+03  0.52684998406E+03  0.00000000000E+00 0.  1.
         -6    2    1    2    0  503  0.75290906889E+02 -0.21220894619E+02 -0.38962181677E+03  0.43342518608E+03  0.17301209436E+03 0.  0.
        -24    2    3    3    0    0  0.17603153454E+01 -0.33633564026E+02 -0.32086417835E+03  0.33188443024E+03  0.77840469884E+02 0.  0.
          6    2    1    2  501    0 -0.75290906889E+02  0.21220894619E+02 -0.33478687447E+02  0.19717427781E+03  0.17787025128E+03 0.  0.
         24    2    5    5    0    0 -0.32238241361E+02  0.80715582789E+02 -0.27036571620E+02  0.12330452226E+03  0.83178840415E+02 0.  0.
          5    1    5    5  501    0 -0.43052665528E+02 -0.59494688170E+02 -0.64421158266E+01  0.73869755556E+02  0.47000000000E+01 0. -1.
        -13    1    6    6    0    0 -0.57386826497E+02  0.43464494908E+02 -0.23536656582E+01  0.72027424742E+02  0.00000000000E+00 0.  1.
         14    1    6    6    0    0  0.25148585136E+02  0.37251087881E+02 -0.24682905962E+02  0.51277097514E+02  0.00000000000E+00 0. -1.
         -5    1    3    3    0  503  0.73530591543E+02  0.12412669407E+02 -0.68757638426E+02  0.10154075584E+03  0.47000000000E+01 0.  1.
         13    1    4    4    0    0 -0.28294943972E+02 -0.40872978223E+02 -0.14401000675E+03  0.15234856825E+03  0.00000000000E+00 0. -1.
        -14    1    4    4    0    0  0.30055259318E+02  0.72394141973E+01 -0.17685417159E+03  0.17953586199E+03  0.00000000000E+00 0.  1.
</event>
<event>
12    1  0.8135779E-002  0.1853729E+03  0.7818608E-02  0.1165142E+00
         21   -1    0    0  503  502  0.00000000000E+00  0.00000000000E+00  0.27353255191E+03  0.27353255191E+03  0.00000000000E+00 0.  1.
         21   -1    0    0  501  503 -0.00000000000E+00 -0.00000000000E+00 -0.54896474125E+03  0.54896474125E+03  0.00000000000E+00 0.  1.
          6    2    1    2  501    0  0.54378362555E+00  0.26591595335E+02 -0.50255198471E+03  0.53565062389E+03  0.18345485793E+03 0.  0.
         24    2    3    3    0    0  0.68263436405E+02  0.37973083444E+02 -0.37332418771E+03  0.38923544995E+03  0.77662311005E+02 0.  0.
         -6    2    1    2    0  502 -0.54378362555E+00 -0.26591595335E+02  0.22711979536E+03  0.28684666927E+03  0.17317679285E+03 0.  0.
        -24    2    5    5    0    0 -0.19814422108E+02 -0.64877446658E+01  0.31790112348E+02  0.89485838845E+02  0.81008653590E+02 0.  0.
          5    1    3    3  501    0 -0.67719652780E+02 -0.11381488109E+02 -0.12922779699E+03  0.14641517394E+03  0.47000000000E+01 0. -1.
        -13    1    4    4    0    0  0.76266103628E+02  0.53507445490E+01 -0.26716676123E+03  0.27789067515E+03  0.00000000000E+00 0.  1.
         14    1    4    4    0    0 -0.80026672232E+01  0.32622338895E+02 -0.10615742648E+03  0.11134477480E+03  0.00000000000E+00 0. -1.
         -5    1    5    5    0  502  0.19270638482E+02 -0.20103850669E+02  0.19532968301E+03  0.19736083042E+03  0.47000000000E+01 0.  1.
         11    1    6    6    0    0 -0.37659974097E+02  0.26480669661E+02  0.19922963213E+02  0.50163970914E+02  0.00000000000E+00 0. -1.
        -12    1    6    6    0    0  0.17845551989E+02 -0.32968414326E+02  0.11867149134E+02  0.39321867931E+02  0.00000000000E+00 0.  1.
</event>
<event>
12    1  0.8135779E-002  0.1884312E+03  0.7818608E-02  0.1160069E+00
         21   -1    0    0  503  502  0.00000000000E+00  0.00000000000E+00  0.13083938012E+03  0.13083938012E+03  0.00000000000E+00 0.  1.
         21   -1    0    0  501  503 -0.00000000000E+00 -0.00000000000E+00 -0.46542287926E+03  0.46542287926E+03  0.00000000000E+00 0.  1.
          6    2    1    2  501    0 -0.14043117529E+02  0.75687168565E+02 -0.36016318297E+03  0.40610276908E+03  0.17110284641E+03 0.  0.
         24    2    3    3    0    0 -0.71280839588E+01  0.11701979392E+03 -0.24300258837E+03  0.28158410166E+03  0.80590983395E+02 0.  0.
         -6    2    1    2    0  502  0.14043117529E+02 -0.75687168565E+02  0.25579683829E+02  0.19015949030E+03  0.17198998486E+03 0.  0.
        -24    2    5    5    0    0 -0.44485973186E+02 -0.14824500877E+02 -0.19104980322E+02  0.94510507094E+02  0.79802681920E+02 0.  0.
          5    1    3    3  501    0 -0.69150335703E+01 -0.41332625355E+02 -0.11716059460E+03  0.12451866741E+03  0.47000000000E+01 0. -1.
        -13    1    4    4    0    0  0.35569589910E+02  0.46225997480E+02 -0.11934986350E+03  0.13283986031E+03  0.00000000000E+00 0.  1.
         14    1    4    4    0    0 -0.42697673869E+02  0.70793796440E+02 -0.12365272488E+03  0.14874424136E+03  0.00000000000E+00 0. -1.
         -5    1    5    5    0  502  0.58529090715E+02 -0.60862667688E+02  0.44684664151E+02  0.95648983206E+02  0.47000000000E+01 0.  1.
         13    1    6    6    0    0  0.18824910579E+02 -0.21228953559E+02 -0.10699949370E+02  0.30323829640E+02  0.00000000000E+00 0. -1.
        -14    1    6    6    0    0 -0.63310883765E+02  0.64044526821E+01 -0.84050309520E+01  0.64186677454E+02  0.00000000000E+00 0.  1.
</event>
<event>
12    1  0.8135779E-002  0.2117507E+03  0.7818608E-02  0.1141974E+00
         21   -1    0    0  503  502  0.00000000000E+00  0.00000000000E+00  0.11488151022E+03  0.11488151022E+03  0.00000000000E+00 0. -1.
         21   -1    0    0  501  503 -0.00000000000E+00 -0.00000000000E+00 -0.37405510357E+03  0.37405510357E+03  0.00000000000E+00 0. -1.
          6    2    1    2  501    0 -0.12107774418E+03  0.62818944398E+00 -0.12512892511E+03  0.23832466133E+03  0.16273039527E+03 0.  0.
         24    2    3    3    0    0 -0.70930795846E+02 -0.23382647871E+02 -0.90469747940E+01  0.10952890859E+03  0.79604070523E+02 0.  0.
         -6    2    1    2    0  502  0.12107774418E+03 -0.62818944398E+00 -0.13404466825E+03  0.25061195246E+03  0.17371863133E+03 0.  0.
        -24    2    5    5    0    0  0.68337418475E+02  0.51891570221E+02 -0.13084562759E+03  0.17596484286E+03  0.80500371661E+02 0.  0.
          5    1    3    3  501    0 -0.50146948338E+02  0.24010837315E+02 -0.11608195031E+03  0.12879575274E+03  0.47000000000E+01 0. -1.
        -11    1    4    4    0    0 -0.66008790170E+02 -0.46276895147E+02 -0.20904065443E+02  0.83280798244E+02  0.00000000000E+00 0.  1.
         12    1    4    4    0    0 -0.49220056762E+01  0.22894247276E+02  0.11857090649E+02  0.26248110349E+02  0.00000000000E+00 0. -1.
         -5    1    5    5    0  502  0.52740325709E+02 -0.52519759665E+02 -0.31990406556E+01  0.74647109605E+02  0.47000000000E+01 0.  1.
         11    1    6    6    0    0  0.26958954407E+02 -0.16496933996E+02 -0.65479775970E+02  0.72708562873E+02  0.00000000000E+00 0. -1.
        -12    1    6    6    0    0  0.41378464067E+02  0.68388504217E+02 -0.65365851622E+02  0.10325627998E+03  0.00000000000E+00 0.  1.
</event>
<event>
12    1  0.8135779E-002  0.1876489E+03  0.7818608E-02  0.1162781E+00
         21   -1    0    0  503  502  0.00000000000E+00  0.00000000000E+00  0.74729553124E+02  0.74729553124E+02  0.00000000000E+00 0.  1.
         21   -1    0    0  501  503 -0.00000000000E+00 -0.00000000000E+00 -0.65583144522E+03  0.65583144522E+03  0.00000000000E+00 0.  1.
          6    2    1    2  501    0 -0.59885420514E+02  0.42823117723E+02 -0.50105499229E+03  0.53504039305E+03  0.17260369029E+03 0.  0.
         24    2    3    3    0    0 -0.94275001834E+01  0.87963174526E+02 -0.30392209548E+03  0.32655275444E+03  0.80259974314E+02 0.  0.
         -6    2    1    2    0  502  0.59885420514E+02 -0.42823117723E+02 -0.80046899810E+02  0.19552060529E+03  0.16248297733E+03 0.  0.
        -24    2    5    5    0    0  0.98821879137E+02 -0.50769083947E+02 -0.61800322750E+02  0.15154090812E+03  0.82474864413E+02 0.  0.
          5    1    3    3  501    0 -0.50457920330E+02 -0.45140056802E+02 -0.19713289680E+03  0.20848763861E+03  0.47000000000E+01 0. -1.
        -13    1    4    4    0    0 -0.30895522784E+02  0.33727930228E+02 -0.21770458722E+03  0.22245762271E+03  0.00000000000E+00 0.  1.
         14    1    4    4    0    0  0.21468022600E+02  0.54235244298E+02 -0.86217508260E+02  0.10409513173E+03  0.00000000000E+00 0. -1.
         -5    1    5    5    0  502 -0.38936458623E+02  0.79459662231E+01 -0.18246577059E+02  0.43979697176E+02  0.47000000000E+01 0.  1.
         13    1    6    6    0    0  0.34144674284E+02  0.18491150802E+02 -0.36885888507E+02  0.53556980972E+02  0.00000000000E+00 0. -1.
        -14    1    6    6    0    0  0.64677204853E+02 -0.69260234748E+02 -0.24914434243E+02  0.97983927144E+02  0.00000000000E+00 0.  1.
</event>
<event>
12    1  0.8135779E-002  0.1953067E+03  0.7818608E-02  0.1154274E+00
         21   -1    0    0  503  502  0.00000000000E+00  0.00000000000E+00  0.25320262340E+03  0.25320262340E+03  0.00000000000E+00 0. -1.
         21   -1    0    0  501  503 -0.00000000000E+00 -0.00000000000E+00 -0.15175549302E+03  0.15175549302E+03  0.00000000000E+00 0. -1.
          6    2    1    2  501    0 -0.12789032458E+02  0.86869858615E+02  0.22983190684E+02  0.19665436357E+03  0.17445566764E+03 0.  0.
         24    2    3    3    0    0  0.83399017301E+01 -0.18186534865E+02  0.32994666749E+02  0.88925085641E+02  0.80116907149E+02 0.  0.
         -6    2    1    2    0  502  0.12789032458E+02 -0.86869858615E+02  0.78463939693E+02  0.20830375285E+03  0.17182529479E+03 0.  0.
        -24    2    5    5    0    0  0.14644414672E+02 -0.53889611906E+02  0.11930411993E+03  0.15556714850E+03  0.82759383203E+02 0.  0.
          5    1    3    3  501    0 -0.21128934188E+02  0.10505639348E+03 -0.10011476065E+02  0.10772927793E+03  0.47000000000E+01 0. -1.
        -13    1    4    4    0    0 -0.27512770911E+02 -0.28665665042E-01 -0.10735174078E+02  0.29532987445E+02  0.00000000000E+00 0.  1.
         14    1    4    4    0    0  0.35852672641E+02 -0.18157869200E+02  0.43729840827E+02  0.59392098196E+02  0.00000000000E+00 0. -1.
         -5    1    5    5    0  502 -0.18553822139E+01 -0.32980246709E+02 -0.40840180237E+02  0.52736604345E+02  0.47000000000E+01 0.  1.
         13    1    6    6    0    0  0.47308240067E+02 -0.20089843489E+02  0.49101127436E+02  0.71081587666E+02  0.00000000000E+00 0. -1.
        -14    1    6    6    0    0 -0.32663825396E+02 -0.33799768418E+02  0.70202992494E+02  0.84485560835E+02  0.00000000000E+00 0.  1.
</event>
<event>
12    1  0.8135779E-002  0.2366974E+03  0.7818608E-02  0.1122846E+00
         21   -1    0    0  503  502  0.00000000000E+00  0.00000000000E+00  0.15107469143E+03  0.15107469143E+03  0.00000000000E+00 0.  1.
         21   -1    0    0  501  503 -0.00000000000E+00 -0.00000000000E+00 -0.72738423352E+03  0.72738423352E+03  0.00000000000E+00 0.  1.
          6    2    1    2  501    0 -0.15603906669E+03  0.57878337872E+01 -0.60039899789E+03  0.64537169853E+03  0.17788755785E+03 0.  0.
         24    2    3    3    0    0 -0.73880943451E+02 -0.63645308948E+02 -0.27358015174E+03  0.30127350510E+03  0.80065637381E+02 0.  0.
         -6    2    1    2    0  502  0.15603906669E+03 -0.57878337872E+01  0.24089455800E+02  0.23308722643E+03  0.17136996205E+03 0.  0.
        -24    2    5    5    0    0  0.11693492624E+02  0.26049201714E+02  0.23390743648E+01  0.83606757226E+02  0.78545018335E+02 0.  0.
          5    1    3    3  501    0 -0.82158123235E+02  0.69433142735E+02 -0.32681884615E+03  0.34409819343E+03  0.47000000000E+01 0. -1.
        -11    1    4    4    0    0 -0.59548445218E+02 -0.44378062248E+00 -0.10572593191E+03  0.12134326082E+03  0.00000000000E+00 0.  1.
         12    1    4    4    0    0 -0.14332498233E+02 -0.63201528325E+02 -0.16785421984E+03  0.17993024428E+03  0.00000000000E+00 0. -1.
         -5    1    5    5    0  502  0.14434557406E+03 -0.31837035501E+02  0.21750381435E+02  0.14948046920E+03  0.47000000000E+01 0.  1.
         13    1    6    6    0    0  0.34737440252E+01  0.30920629393E+02 -0.33967144409E+02  0.46064293318E+02  0.00000000000E+00 0. -1.
        -14    1    6    6    0    0  0.82197485988E+01 -0.48714276791E+01  0.36306218773E+02  0.37542463908E+02  0.00000000000E+00 0.  1.
</event>
<event>
12    1  0.8135779E-002  0.2063592E+03  0.7818608E-02  0.1145220E+00
         21   -1    0    0  503  502  0.00000000000E+00  0.00000000000E+00  0.88959855946E+02  0.88959855946E+02  0.00000000000E+00 0. -1.
         21   -1    0    0  501  503 -0.00000000000E+00 -0.00000000000E+00 -0.47035408112E+03  0.47035408112E+03  0.00000000000E+00 0. -1.
          6    2    1    2  501    0  0.74073856310E+02  0.77406535769E+02 -0.18891493232E+03  0.27712179716E+03  0.17213056334E+03 0.  0.
         24    2    3    3    0    0  0.47783977130E+02 -0.11535862958E+02 -0.15398902925E+03  0.17790578663E+03  0.74306548720E+02 0.  0.
         -6    2    1    2    0  502 -0.74073856310E+02 -0.77406535769E+02 -0.19247929285E+03  0.28219213991E+03  0.17636728065E+03 0.  0.
        -24    2    5    5    0    0 -0.52864748518E+02  0.26102222450E+02 -0.77064531031E+02  0.12564647077E+03  0.79825346983E+02 0.  0.
          5    1    3    3  501    0  0.26289879180E+02  0.88942398727E+02 -0.34925903072E+02  0.99216010523E+02  0.47000000000E+01 0. -1.
        -13    1    4    4    0    0  0.31825436157E+02  0.37197394947E+01 -0.12007485005E+02  0.34218044138E+02  0.00000000000E+00 0.  1.
         14    1    4    4    0    0  0.15958540972E+02 -0.15255602453E+02 -0.14198154425E+03  0.14368774249E+03  0.00000000000E+00 0. -1.
         -5    1    5    5    0  502 -0.21209107791E+02 -0.10350875822E+03 -0.11541476182E+03  0.15654566914E+03  0.47000000000E+01 0.  1.
         11    1    6    6    0    0 -0.48093377225E+02 -0.86297688696E+01 -0.98588343872E+01  0.49846188010E+02  0.00000000000E+00 0. -1.
        -12    1    6    6    0    0 -0.47713712938E+01  0.34731991320E+02 -0.67205696644E+02  0.75800282759E+02  0.00000000000E+00 0.  1.
</event>
<event>
12    1  0.8135779E-002  0.1750936E+03  0.7818608E-02  0.1173159E+00
         21   -1    0    0  503  502  0.00000000000E+00  0.00000000000E+00  0.81267056254E+03  0.81267056254E+03  0.00000000000E+00 0. -1.
         21   -1    0    0  501  503 -0.00000000000E+00 -0.00000000000E+00 -0.21374579439E+03  0.21374579439E+03  0.00000000000E+00 0. -1.
          6    2    1    2  501    0  0.14278939267E+02  0.90307220342E+01 -0.16715477133E+03  0.24058201448E+03  0.17220205013E+03 0.  0.
         24    2    3    3    0    0 -0.34505694939E+02  0.56370878170E+02 -0.11387625572E+03  0.15408507152E+03  0.80038045696E+02 0.  0.
         -6    2    1    2    0  502 -0.14278939267E+02 -0.90307220342E+01  0.76607953948E+03  0.78583434244E+03  0.17427653573E+03 0.  0.
        -24    2    5    5    0    0 -0.19897085467E+02  0.15117596231E+02  0.75203618732E+03  0.75695510108E+03  0.82450968972E+02 0.  0.
          5    1    3    3  501    0  0.48784634205E+02 -0.47340156136E+02 -0.53278515606E+02  0.86496942967E+02  0.47000000000E+01 0. -1.
        -11    1    4    4    0    0 -0.26313358913E+02  0.41584005460E+02 -0.11782014723E+02  0.50600773100E+02  0.00000000000E+00 0.  1.
         12    1    4    4    0    0 -0.81923360255E+01  0.14786872710E+02 -0.10209424100E+03  0.10348429842E+03  0.00000000000E+00 0. -1.
         -5    1    5    5    0  502  0.56181462006E+01 -0.24148318265E+02  0.14043352157E+02  0.28879241360E+02  0.47000000000E+01 0.  1.
         13    1    6    6    0    0 -0.27446255635E+02  0.46434925521E+02  0.46977133465E+03  0.47285791324E+03  0.00000000000E+00 0. -1.
        -14    1    6    6    0    0  0.75491701676E+01 -0.31317329290E+02  0.28226485267E+03  0.28409718783E+03  0.00000000000E+00 0.  1.
</event>
<event>
12    1  0.8135779E-002  0.4338909E+03  0.7818608E-02  0.1032759E+00
         21   -1    0    0  503  502  0.00000000000E+00  0.00000000000E+00  0.35080128785E+03  0.35080128785E+03  0.00000000000E+00 0. -1.
         21   -1    0    0  501  503 -0.00000000000E+00 -0.00000000000E+00 -0.11967104160E+04  0.11967104160E+04  0.00000000000E+00 0.  1.
          6    2    1    2  501    0 -0.35848443720E+03 -0.17046692501E+03 -0.99809281250E+03  0.10877061489E+04  0.17130481556E+03 0.  0.
         24    2    3    3    0    0 -0.32871285613E+03 -0.16725439743E+03 -0.77236660352E+03  0.85995391779E+03  0.83333038104E+02 0.  0.
         -6    2    1    2    0  502  0.35848443720E+03  0.17046692501E+03  0.15218368439E+03  0.45980555486E+03  0.17518907000E+03 0.  0.
        -24    2    5    5    0    0  0.12848193250E+03  0.74555291397E+02  0.12323537149E+03  0.20888666667E+03  0.79878559527E+02 0.  0.
          5    1    3    3  501    0 -0.29771581070E+02 -0.32125275784E+01 -0.22572620898E+03  0.22775223115E+03  0.47000000000E+01 0. -1.
        -11    1    4    4    0    0 -0.25073799059E+03 -0.93438780970E+02 -0.59869008671E+03  0.65576685311E+03  0.00000000000E+00 0.  1.
         12    1    4    4    0    0 -0.77974865541E+02 -0.73815616465E+02 -0.17367651680E+03  0.20418706467E+03  0.00000000000E+00 0. -1.
         -5    1    5    5    0  502  0.23000250470E+03  0.95911633616E+02  0.28948312900E+02  0.25091888819E+03  0.47000000000E+01 0.  1.
         13    1    6    6    0    0  0.10461136660E+03  0.53278286974E+02  0.47436406061E+02  0.12661882366E+03  0.00000000000E+00 0. -1.
        -14    1    6    6    0    0  0.23870565902E+02  0.21277004423E+02  0.75798965431E+02  0.82267843013E+02  0.00000000000E+00 0.  1.
</event>
<event>
12    1  0.8135779E-002  0.1977624E+03  0.7818608E-02  0.1151948E+00
         21   -1    0    0  503  502  0.00000000000E+00  0.00000000000E+00  0.10701439395E+04  0.10701439395E+04  0.00000000000E+00 0. -1.
         21   -1    0    0  501  503 -0.00000000000E+00 -0.00000000000E+00 -0.52727700620E+02  0.52727700620E+02  0.00000000000E+00 0.  1.
          6    2    1    2  501    0  0.95855732602E+02 -0.72347637424E+01  0.19389697669E+03  0.27593956264E+03  0.17118978177E+03 0.  0.
         24    2    3    3    0    0  0.81705153013E+02 -0.10733066741E+02  0.40134615279E+02  0.12141632551E+03  0.79625410555E+02 0.  0.
         -6    2    1    2    0  502 -0.95855732602E+02  0.72347637424E+01  0.82351926220E+03  0.84693207749E+03  0.17282738610E+03 0.  0.
        -24    2    5    5    0    0 -0.93987619481E+02 -0.49982894114E+02  0.66750375882E+03  0.68067842336E+03  0.80186567862E+02 0.  0.
          5    1    3    3  501    0  0.14150579589E+02  0.34983029983E+01  0.15376236142E+03  0.15452323714E+03  0.47000000000E+01 0. -1.
        -11    1    4    4    0    0  0.77788180730E+02  0.20312563851E+02  0.40716838326E+02  0.90119155759E+02  0.00000000000E+00 0.  1.
         12    1    4    4    0    0  0.39169722833E+01 -0.31045630592E+02 -0.58222304713E+00  0.31297169750E+02  0.00000000000E+00 0. -1.
         -5    1    5    5    0  502 -0.18681131208E+01  0.57217657857E+02  0.15601550337E+03  0.16625365413E+03  0.47000000000E+01 0.  1.
         13    1    6    6    0    0 -0.31858023084E+01 -0.15470338314E+02  0.30427804688E+03  0.30468772623E+03  0.00000000000E+00 0. -1.
        -14    1    6    6    0    0 -0.90801817172E+02 -0.34512555801E+02  0.36322571194E+03  0.37599069712E+03  0.00000000000E+00 0.  1.
</event>
<event>
12    1  0.8135779E-002  0.1739706E+03  0.7818608E-02  0.1173860E+00
         21   -1    0    0  503  502  0.00000000000E+00  0.00000000000E+00  0.28944885477E+02  0.28944885477E+02  0.00000000000E+00 0. -1.
         21   -1    0    0  501  503 -0.00000000000E+00 -0.00000000000E+00 -0.19055134825E+04  0.19055134825E+04  0.00000000000E+00 0. -1.
          6    2    1    2  501    0  0.23255864063E+02  0.88433027111E+00 -0.15893644451E+04  0.15988574387E+04  0.17240693859E+03 0.  0.
         24    2    3    3    0    0 -0.46842694221E+01  0.15100485524E+02 -0.35770829044E+03  0.36679342916E+03  0.79575320181E+02 0.  0.
         -6    2    1    2    0  502 -0.23255864063E+02 -0.88433027111E+00 -0.28720415184E+03  0.33560092926E+03  0.17204691695E+03 0.  0.
        -24    2    5    5    0    0  0.23908838353E+02  0.55392415868E+02 -0.17725327764E+03  0.20330253151E+03  0.79203804183E+02 0.  0.
          5    1    3    3  501    0  0.27940133485E+02 -0.14216155252E+02 -0.12316561547E+04  0.12320640095E+04  0.47000000000E+01 0. -1.
        -11    1    4    4    0    0 -0.36989248857E+02  0.20811913156E+01 -0.98160851324E+02  0.10491943872E+03  0.00000000000E+00 0.  1.
         12    1    4    4    0    0  0.32304979435E+02  0.13019294208E+02 -0.25954743911E+03  0.26187399044E+03  0.00000000000E+00 0. -1.
         -5    1    5    5    0  502 -0.47164702416E+02 -0.56276746139E+02 -0.10995087420E+03  0.13229839775E+03  0.47000000000E+01 0.  1.
         11    1    6    6    0    0 -0.16416023763E+02 -0.10371771074E+02 -0.18602167539E+02  0.26890520793E+02  0.00000000000E+00 0. -1.
        -12    1    6    6    0    0  0.40324862116E+02  0.65764186941E+02 -0.15865111010E+03  0.17641201071E+03  0.00000000000E+00 0.  1.
</event>
<event>
12    1  0.8135779E-002  0.1945708E+03  0.7818608E-02  0.1154411E+00
         21   -1    0    0  503  502  0.00000000000E+00  0.00000000000E+00  0.31526435482E+02  0.31526435482E+02  0.00000000000E+00 0.  1.
         21   -1    0    0  501  503 -0.00000000000E+00 -0.00000000000E+00 -0.17875953341E+04  0.17875953341E+04  0.00000000000E+00 0.  1.
          6    2    1    2  501    0  0.68399813221E+01  0.89172100157E+02 -0.13993087848E+04  0.14127713404E+04  0.17279854202E+03 0.  0.
         24    2    3    3    0    0  0.31805118080E+02  0.56188620423E+02 -0.38754719544E+03  0.40015355871E+03  0.75903328379E+02 0.  0.
         -6    2    1    2    0  502 -0.68399813221E+01 -0.89172100157E+02 -0.35676011380E+03  0.40635042921E+03  0.17275544486E+03 0.  0.
        -24    2    5    5    0    0 -0.19092631662E+02 -0.64914241878E+02 -0.36361362020E+03  0.37793156789E+03  0.77711117809E+02 0.  0.
          5    1    3    3  501    0 -0.24965136758E+02  0.32983479734E+02 -0.10117615894E+04  0.10126177817E+04  0.47000000000E+01 0. -1.
        -13    1    4    4    0    0  0.36515208795E+02  0.43862795351E+01 -0.25711400563E+03  0.25973103745E+03  0.00000000000E+00 0.  1.
         14    1    4    4    0    0 -0.47100907150E+01  0.51802340888E+02 -0.13043318981E+03  0.14042252127E+03  0.00000000000E+00 0. -1.
         -5    1    5    5    0  502  0.12252650340E+02 -0.24257858279E+02  0.68535063987E+01  0.28418861317E+02  0.47000000000E+01 0.  1.
         13    1    6    6    0    0  0.13634421158E+02 -0.34924207238E+02 -0.57676276449E+02  0.68790628407E+02  0.00000000000E+00 0. -1.
        -14    1    6    6    0    0 -0.32727052820E+02 -0.29990034640E+02 -0.30593734375E+03  0.30914093949E+03  0.00000000000E+00 0.  1.
</event>
<event>
12    1  0.8135779E-002  0.1773670E+03  0.7818608E-02  0.1170835E+00
         21   -1    0    0  501  502  0.00000000000E+00  0.00000000000E+00  0.12410045484E+03  0.12410045484E+03  0.00000000000E+00 0. -1.
         21   -1    0    0  502  503 -0.00000000000E+00 -0.00000000000E+00 -0.25428363798E+03  0.25428363798E+03  0.00000000000E+00 0. -1.
         -6    2    1    2    0  503  0.80512630423E+01  0.35533431409E+02 -0.86716914300E+02  0.19576868779E+03  0.17169189937E+03 0.  0.
        -24    2    3    3    0    0  0.24892745267E+02  0.74235972126E+02 -0.17162581336E+02  0.11427379583E+03  0.81445183345E+02 0.  0.
          6    2    1    2  501    0 -0.80512630423E+01 -0.35533431409E+02 -0.43466268839E+02  0.18261540503E+03  0.17358462502E+03 0.  0.
         24    2    5    5    0    0 -0.58059819119E+02  0.41073358261E+01 -0.60114537259E+02  0.11649807789E+03  0.81056966125E+02 0.  0.
          5    1    5    5  501    0  0.50008556077E+02 -0.39640767235E+02  0.16648268420E+02  0.66117327149E+02  0.47000000000E+01 0. -1.
        -11    1    6    6    0    0  0.14247566264E+02  0.19652112437E+02 -0.24214250048E+02  0.34285982166E+02  0.00000000000E+00 0.  1.
         12    1    6    6    0    0 -0.72307385383E+02 -0.15544776611E+02 -0.35900287211E+02  0.82212095720E+02  0.00000000000E+00 0. -1.
         -5    1    3    3    0  503 -0.16841482224E+02 -0.38702540717E+02 -0.69554332964E+02  0.81494891960E+02  0.47000000000E+01 0.  1.
         13    1    4    4    0    0  0.14500789924E+02  0.79975948668E+02 -0.38437759422E+02  0.89910436676E+02  0.00000000000E+00 0. -1.
        -14    1    4    4    0    0  0.10391955343E+02 -0.57399765418E+01  0.21275178086E+02  0.24363359152E+02  0.00000000000E+00 0.  1.
</event>
<event>
12    1  0.8135779E-002  0.2004682E+03  0.7818608E-02  0.1149412E+00
         21   -1    0    0  501  502  0.00000000000E+00  0.00000000000E+00  0.12176590842E+03  0.12176590842E+03  0.00000000000E+00 0.  1.
         21   -1    0    0  502  503 -0.00000000000E+00 -0.00000000000E+00 -0.33820707676E+03  0.33820707676E+03  0.00000000000E+00 0.  1.
         -6    2    1    2    0  503 -0.33995859337E+02  0.96108279560E+02 -0.14500868777E+03  0.24715827143E+03  0.17224160866E+03 0.  0.
        -24    2    3    3    0    0 -0.78473038008E+02  0.23668618094E+02 -0.85944437081E+02  0.14354167196E+03  0.80619750354E+02 0.  0.
          6    2    1    2  501    0  0.33995859337E+02 -0.96108279560E+02 -0.71432480567E+02  0.21281471376E+03  0.17261223380E+03 0.  0.
         24    2    5    5    0    0  0.45386333279E+02 -0.45630893668E+02  0.22437930503E+02  0.10552327208E+03  0.80558069235E+02 0.  0.
          5    1    5    5  501    0 -0.11390473942E+02 -0.50477385892E+02 -0.93870411070E+02  0.10729144168E+03  0.47000000000E+01 0. -1.
        -13    1    6    6    0    0  0.59393861149E+02 -0.56606158475E+01  0.55275517547E+01  0.59918504173E+02  0.00000000000E+00 0.  1.
         14    1    6    6    0    0 -0.14007527870E+02 -0.39970277820E+02  0.16910378749E+02  0.45604767903E+02  0.00000000000E+00 0. -1.
         -5    1    3    3    0  503  0.44477178671E+02  0.72439661466E+02 -0.59064250693E+02  0.10361659947E+03  0.47000000000E+01 0.  1.
         11    1    4    4    0    0 -0.51256079039E+02  0.18902157275E+01 -0.94613696808E+02  0.10762207105E+03  0.00000000000E+00 0. -1.
        -12    1    4    4    0    0 -0.27216958969E+02  0.21778402366E+02  0.86692597266E+01  0.35919600908E+02  0.00000000000E+00 0.  1.
</event>
<event>
12    1  0.8135779E-002  0.2465303E+03  0.7818608E-02  0.1115999E+00
         21   -1    0    0  501  502  0.00000000000E+00  0.00000000000E+00  0.60090423449E+02  0.60090423449E+02  0.00000000000E+00 0.  1.
         21   -1    0    0  502  503 -0.00000000000E+00 -0.00000000000E+00 -0.10067107743E+04  0.10067107743E+04  0.00000000000E+00 0. -1.
         -6    2    1    2    0  503 -0.17359096874E+03 -0.20002781282E+02 -0.51633067729E+03  0.57089153204E+03  0.16966389528E+03 0.  0.
        -24    2    3    3    0    0 -0.11776119024E+03 -0.61981003008E+02 -0.23802356104E+03  0.28391404822E+03  0.79010306326E+02 0.  0.
          6    2    1    2  501    0  0.17359096874E+03  0.20002781282E+02 -0.43028967352E+03  0.49590966566E+03  0.17390588741E+03 0.  0.
         24    2    5    5    0    0  0.65274984965E+02 -0.35252845645E+01 -0.33197010380E+03  0.34767083805E+03  0.79985064345E+02 0.  0.
          5    1    5    5  501    0  0.10831598377E+03  0.23528065847E+02 -0.98319569719E+02  0.14823882762E+03  0.47000000000E+01 0. -1.
        -11    1    6    6    0    0  0.11981002035E+02  0.34776469283E+02 -0.98195749373E+02  0.10485872601E+03  0.00000000000E+00 0.  1.
         12    1    6    6    0    0  0.53293982931E+02 -0.38301753847E+02 -0.23377435443E+03  0.24281211204E+03  0.00000000000E+00 0. -1.
         -5    1    3    3    0  503 -0.55829778503E+02  0.41978221726E+02 -0.27830711625E+03  0.28697748382E+03  0.47000000000E+01 0. -1.
         11    1    4    4    0    0 -0.79303279725E+02 -0.23039212152E+02 -0.20243073394E+03  0.21862757721E+03  0.00000000000E+00 0. -1.
        -12    1    4    4    0    0 -0.38457910511E+02 -0.38941790856E+02 -0.35592827095E+02  0.65286471007E+02  0.00000000000E+00 0.  1.
</event>
<event>
12    1  0.8135779E-002  0.2088427E+03  0.7818608E-02  0.1142558E+00
         21   -1    0    0  503  502  0.00000000000E+00  0.00000000000E+00  0.82625268634E+03  0.82625268634E+03  0.00000000000E+00 0.  1.
         21   -1    0    0  501  503 -0.00000000000E+00 -0.00000000000E+00 -0.76481316666E+02  0.76481316666E+02  0.00000000000E+00 0. -1.
          6    2    1    2  501    0 -0.29830137008E+02 -0.11357549833E+03  0.12294344985E+03  0.24203096953E+03  0.17226336655E+03 0.  0.
         24    2    3    3    0    0  0.17967788034E+02 -0.65212387954E+02  0.13695612196E+03  0.17244593476E+03  0.80032019363E+02 0.  0.
         -6    2    1    2    0  502  0.29830137008E+02  0.11357549833E+03  0.62682791983E+03  0.66070303349E+03  0.17270213225E+03 0.  0.
        -24    2    5    5    0    0 -0.18169149839E+02 -0.48000167837E+01  0.26847333455E+03  0.28023385877E+03  0.78102023472E+02 0.  0.
          5    1    3    3  501    0 -0.47797925042E+02 -0.48363110372E+02 -0.14012672117E+02  0.69585034763E+02  0.47000000000E+01 0. -1.
        -13    1    4    4    0    0 -0.19219700878E+02 -0.64620256167E+02  0.83381925246E+02  0.10722742124E+03  0.00000000000E+00 0.  1.
         14    1    4    4    0    0  0.37187488912E+02 -0.59213178703E+00  0.53574196717E+02  0.65218513518E+02  0.00000000000E+00 0. -1.
         -5    1    5    5    0  502  0.47999286847E+02  0.11837551511E+03  0.35835458528E+03  0.38046917472E+03  0.47000000000E+01 0.  1.
         13    1    6    6    0    0  0.31498957076E+01 -0.27192728709E+02  0.33624990924E+02  0.43359040029E+02  0.00000000000E+00 0. -1.
        -14    1    6    6    0    0 -0.21319045546E+02  0.22392711925E+02  0.23484834362E+03  0.23687481874E+03  0.00000000000E+00 0.  1.
</event>
<event>
12    1  0.8135779E-002  0.1940308E+03  0.7818608E-02  0.1157795E+00
         21   -1    0    0  503  502  0.00000000000E+00  0.00000000000E+00  0.31910905745E+04  0.31910905745E+04  0.00000000000E+00 0.  1.
         21   -1    0    0  501  503 -0.00000000000E+00 -0.00000000000E+00 -0.32994427727E+02  0.32994427727E+02  0.00000000000E+00 0.  1.
          6    2    1    2  501    0 -0.97637315587E+02  0.21640561207E+02  0.24600140141E+03  0.30553334883E+03  0.15110452828E+03 0.  0.
         24    2    3    3    0    0 -0.39194155215E+02  0.44532946861E+02  0.21887650263E+03  0.23699493296E+03  0.68849906960E+02 0.  0.
         -6    2    1    2    0  502  0.97637315587E+02 -0.21640561207E+02  0.29120947454E+04  0.29185516534E+04  0.16627263243E+03 0.  0.
        -24    2    5    5    0    0  0.11994621224E+03 -0.28025009289E+02  0.17141864430E+04  0.17204094085E+04  0.78745645245E+02 0.  0.
          5    1    3    3  501    0 -0.58443160371E+02 -0.22892385654E+02  0.27124898777E+02  0.68538415862E+02  0.47000000000E+01 0. -1.
        -13    1    4    4    0    0 -0.51568932989E+02  0.86845935729E+01  0.11250395184E+03  0.12406416160E+03  0.00000000000E+00 0.  1.
         14    1    4    4    0    0  0.12374777773E+02  0.35848353288E+02  0.10637255079E+03  0.11293077136E+03  0.00000000000E+00 0. -1.
         -5    1    5    5    0  502 -0.22308896651E+02  0.63844480822E+01  0.11979083024E+04  0.11981422449E+04  0.47000000000E+01 0.  1.
         13    1    6    6    0    0  0.45513052542E+02 -0.45735267549E+02  0.10151070431E+04  0.10171555739E+04  0.00000000000E+00 0. -1.
        -14    1    6    6    0    0  0.74433159695E+02  0.17710258260E+02  0.69907939993E+03  0.70325383463E+03  0.00000000000E+00 0.  1.
</event>
<event>
12    1  0.8135779E-002  0.1744105E+03  0.7818608E-02  0.1173819E+00
         21   -1    0    0  501  502  0.00000000000E+00  0.00000000000E+00  0.13703323351E+03  0.13703323351E+03  0.00000000000E+00 0.  1.
         21   -1    0    0  502  503 -0.00000000000E+00 -0.00000000000E+00 -0.30900984013E+03  0.30900984013E+03  0.00000000000E+00 0.  1.
         -6    2    1    2    0  503 -0.82970906156E+01  0.10790532491E+02 -0.20566770820E+03  0.26840833783E+03  0.17192600826E+03 0.  0.
        -24    2    3    3    0    0  0.50241762696E+02  0.43676611632E+02 -0.12720639753E+03  0.16503252432E+03  0.81378039954E+02 0.  0.
          6    2    1    2  501    0  0.82970906156E+01 -0.10790532491E+02  0.33691101587E+02  0.17763473581E+03  0.17387849705E+03 0.  0.
         24    2    5    5    0    0 -0.44786356939E+02  0.19195315187E+02 -0.21144244088E+02  0.95500646658E+02  0.79366344007E+02 0.  0.
          5    1    5    5  501    0  0.53083447555E+02 -0.29985847677E+02  0.54835345675E+02  0.82134089150E+02  0.47000000000E+01 0. -1.
        -11    1    6    6    0    0  0.16377159937E+02 -0.11804533021E+02  0.70161935732E+01  0.21372537044E+02  0.00000000000E+00 0.  1.
         12    1    6    6    0    0 -0.61163516877E+02  0.30999848207E+02 -0.28160437661E+02  0.74128109614E+02  0.00000000000E+00 0. -1.
         -5    1    3    3    0  503 -0.58538853312E+02 -0.32886079141E+02 -0.78461310670E+02  0.10337581352E+03  0.47000000000E+01 0.  1.
         13    1    4    4    0    0  0.54904330760E+02 -0.18378855619E+00 -0.42143565182E+02  0.69214156072E+02  0.00000000000E+00 0. -1.
        -14    1    4    4    0    0 -0.46625680644E+01  0.43860400188E+02 -0.85062832351E+02  0.95818368245E+02  0.00000000000E+00 0.  1.
</event>
<event>
12    1  0.8135779E-002  0.2315584E+03  0.7818608E-02  0.1125562E+00
         21   -1    0    0  501  502  0.00000000000E+00  0.00000000000E+00  0.40325933460E+03  0.40325933460E+03  0.00000000000E+00 0.  1.
         21   -1    0    0  502  503 -0.00000000000E+00 -0.00000000000E+00 -0.14938624337E+03  0.14938624337E+03  0.00000000000E+00 0.  1.
         -6    2    1    2    0  503 -0.13259690385E+03 -0.79037822976E+02  0.35166789328E+02  0.23413066972E+03  0.17248637935E+03 0.  0.
        -24    2    3    3    0    0 -0.13357755653E+02 -0.11613127482E+02 -0.15862168205E+02  0.87877093589E+02  0.84601896146E+02 0.  0.
          6    2    1    2  501    0  0.13259690385E+03  0.79037822976E+02  0.21870630190E+03  0.31851490825E+03  0.17259891052E+03 0.  0.
         24    2    5    5    0    0  0.10305736718E+03  0.22148551878E+02  0.21697951335E+03  0.25421836720E+03  0.80221504136E+02 0.  0.
          5    1    5    5  501    0  0.29539536664E+02  0.56889271098E+02  0.17267885513E+01  0.64296541051E+02  0.47000000000E+01 0. -1.
        -11    1    6    6    0    0  0.98339367366E+02  0.34989036429E+02  0.13267951723E+03  0.16881563357E+03  0.00000000000E+00 0.  1.
         12    1    6    6    0    0  0.47179998170E+01 -0.12840484552E+02  0.84299996116E+02  0.85402733627E+02  0.00000000000E+00 0. -1.
         -5    1    3    3    0  503 -0.11923914819E+03 -0.67424695493E+02  0.51028957533E+02  0.14625357613E+03  0.47000000000E+01 0.  1.
         11    1    4    4    0    0  0.88245918556E+01 -0.36848345913E+02  0.16408829077E+02  0.41290721592E+02  0.00000000000E+00 0. -1.
        -12    1    4    4    0    0 -0.22182347509E+02  0.25235218431E+02 -0.32270997282E+02  0.46586371996E+02  0.00000000000E+00 0.  1.
</event>
<event>
12    1  0.8135779E-002  0.1874300E+03  0.7818608E-02  0.1161394E+00
         21   -1    0    0  503  502  0.00000000000E+00  0.00000000000E+00  0.46553120443E+02  0.46553120443E+02  0.00000000000E+00 0.  1.
         21   -1    0    0  501  503 -0.00000000000E+00 -0.00000000000E+00 -0.10434113115E+04  0.10434113115E+04  0.00000000000E+00 0.  1.
          6    2    1    2  501    0  0.25724013281E+02 -0.67423332937E+02 -0.78775447160E+03  0.80915420428E+03  0.17019338442E+03 0.  0.
         24    2    3    3    0    0 -0.27093754891E+02  0.99500800966E+01 -0.48712125906E+03  0.49422757765E+03  0.78362630354E+02 0.  0.
         -6    2    1    2    0  502 -0.25724013281E+02  0.67423332937E+02 -0.20910371947E+03  0.28081022768E+03  0.17298088850E+03 0.  0.
        -24    2    5    5    0    0  0.29686985077E+02  0.25229262884E+02 -0.38959495466E+02  0.96903008541E+02  0.79715230595E+02 0.  0.
          5    1    3    3  501    0  0.52817768172E+02 -0.77373413033E+02 -0.30063321254E+03  0.31492662663E+03  0.47000000000E+01 0. -1.
        -11    1    4    4    0    0  0.25789127033E+02 -0.85852600638E+01 -0.14033630814E+03  0.14294427287E+03  0.00000000000E+00 0.  1.
         12    1    4    4    0    0 -0.52882881924E+02  0.18535340160E+02 -0.34678495091E+03  0.35128330478E+03  0.00000000000E+00 0. -1.
         -5    1    5    5    0  502 -0.55410998358E+02  0.42194070052E+02 -0.17014422401E+03  0.18390721914E+03  0.47000000000E+01 0.  1.
         13    1    6    6    0    0  0.19353710859E+02  0.17393936009E+02 -0.63788266372E+02  0.68891639991E+02  0.00000000000E+00 0. -1.
        -14    1    6    6    0    0  0.10333274218E+02  0.78353268753E+01  0.24828770907E+02  0.28011368550E+02  0.00000000000E+00 0.  1.
</event>
<event>
12    1  0.8135779E-002  0.1847120E+03  0.7818608E-02  0.1163602E+00
         21   -1    0    0  503  502  0.00000000000E+00  0.00000000000E+00  0.14068689758E+04  0.14068689758E+04  0.00000000000E+00 0. -1.
         21   -1    0    0  501  503 -0.00000000000E+00 -0.00000000000E+00 -0.24282138527E+02  0.24282138527E+02  0.00000000000E+00 0.  1.
          6    2    1    2  501    0  0.40836132457E+02 -0.47385023339E+02  0.75661241900E+03  0.77883302547E+03  0.17379758000E+03 0.  0.
         24    2    3    3    0    0  0.36087503136E+02 -0.97697859292E+02  0.52652040015E+03  0.54320968604E+03  0.83700965587E+02 0.  0.
         -6    2    1    2    0  502 -0.40836132457E+02  0.47385023339E+02  0.62597441831E+03  0.65231808890E+03  0.17251662697E+03 0.  0.
        -24    2    5    5    0    0 -0.72050001535E+02  0.16687357611E+00  0.25063482068E+03  0.27270544048E+03  0.79744676089E+02 0.  0.
          5    1    3    3  501    0  0.47486293209E+01  0.50312835954E+02  0.23009201885E+03  0.23562333942E+03  0.47000000000E+01 0. -1.
        -13    1    4    4    0    0  0.37105470086E+02 -0.77270388127E+02  0.22154751107E+03  0.23755173847E+03  0.00000000000E+00 0.  1.
         14    1    4    4    0    0 -0.10179669499E+01 -0.20427471166E+02  0.30497288909E+03  0.30565794757E+03  0.00000000000E+00 0. -1.
         -5    1    5    5    0  502  0.31213869079E+02  0.47218149762E+02  0.37533959763E+03  0.37961264842E+03  0.47000000000E+01 0.  1.
         13    1    6    6    0    0 -0.14532473787E+02  0.35525273780E+02  0.69466008297E+02  0.79364754017E+02  0.00000000000E+00 0. -1.
        -14    1    6    6    0    0 -0.57517527749E+02 -0.35358400204E+02  0.18116881238E+03  0.19334068647E+03  0.00000000000E+00 0.  1.
</event>
<event>
12    1  0.8135779E-002  0.2185213E+03  0.7818608E-02  0.1135424E+00
         21   -1    0    0  503  502  0.00000000000E+00  0.00000000000E+00  0.15117005828E+04  0.15117005828E+04  0.00000000000E+00 0. -1.
         21   -1    0    0  501  503 -0.00000000000E+00 -0.00000000000E+00 -0.49163817128E+02  0.49163817128E+02  0.00000000000E+00 0.  1.
          6    2    1    2  501    0  0.84434030387E+02 -0.10515548717E+03  0.26272821484E+03  0.34172748652E+03  0.17194411360E+03 0.  0.
         24    2    3    3    0    0  0.19096826802E+02  0.12450641040E+02  0.97188723355E+02  0.12836028003E+03  0.80690806699E+02 0.  0.
         -6    2    1    2    0  502 -0.84434030387E+02  0.10515548717E+03  0.11998085508E+04  0.12191369134E+04  0.16901914981E+03 0.  0.
        -24    2    5    5    0    0 -0.80846347841E+02  0.11944795576E+03  0.11886088808E+04  0.12000406119E+04  0.80637785150E+02 0.  0.
          5    1    3    3  501    0  0.65337203585E+02 -0.11760612821E+03  0.16553949148E+03  0.21336720649E+03  0.47000000000E+01 0. -1.
        -11    1    4    4    0    0  0.11570791441E+02  0.27783428129E+02  0.42385735994E+00  0.30099530698E+02  0.00000000000E+00 0.  1.
         12    1    4    4    0    0  0.75260353613E+01 -0.15332787090E+02  0.96764865995E+02  0.98260749332E+02  0.00000000000E+00 0. -1.
         -5    1    5    5    0  502 -0.35876825457E+01 -0.14292468586E+02  0.11199669954E+02  0.19096301511E+02  0.47000000000E+01 0.  1.
         13    1    6    6    0    0 -0.34582730934E+02  0.95173558708E+02  0.54594711660E+03  0.55525870158E+03  0.00000000000E+00 0. -1.
        -14    1    6    6    0    0 -0.46263616907E+02  0.24274397052E+02  0.64266176425E+03  0.64478191028E+03  0.00000000000E+00 0.  1.
</event>
<event>
12    1  0.8135779E-002  0.2134395E+03  0.7818608E-02  0.1140027E+00
         21   -1    0    0  501  502  0.00000000000E+00  0.00000000000E+00  0.18024495432E+03  0.18024495432E+03  0.00000000000E+00 0.  1.
         21   -1    0    0  502  503 -0.00000000000E+00 -0.00000000000E+00 -0.45476678925E+03  0.45476678925E+03  0.00000000000E+00 0.  1.
         -6    2    1    2    0  503  0.93122070959E+02 -0.74704514544E+02 -0.35142222065E+03  0.40814152127E+03  0.16979234265E+03 0.  0.
        -24    2    3    3    0    0 -0.35527983587E+01  0.33835502898E+01 -0.16481333565E+03  0.18389000580E+03  0.81412700717E+02 0.  0.
          6    2    1    2  501    0 -0.93122070959E+02  0.74704514544E+02  0.76900385722E+02  0.22687022229E+03  0.17692920575E+03 0.  0.
         24    2    5    5    0    0 -0.12897709896E+03  0.34513866230E+02  0.38062026518E+02  0.16030161565E+03  0.80134830739E+02 0.  0.
          5    1    5    5  501    0  0.35855028004E+02  0.40190648314E+02  0.38838359204E+02  0.66568606646E+02  0.47000000000E+01 0. -1.
        -11    1    6    6    0    0 -0.35671521826E+02  0.39276613702E+02  0.40648619833E+02  0.66838762313E+02  0.00000000000E+00 0.  1.
         12    1    6    6    0    0 -0.93305577138E+02 -0.47627474725E+01 -0.25865933149E+01  0.93462853335E+02  0.00000000000E+00 0. -1.
         -5    1    3    3    0  503  0.96674869318E+02 -0.78088064834E+02 -0.18660888501E+03  0.22425151547E+03  0.47000000000E+01 0.  1.
         11    1    4    4    0    0  0.18506384408E+02  0.35081318294E+02 -0.57614182392E+02  0.69946973986E+02  0.00000000000E+00 0. -1.
        -12    1    4    4    0    0 -0.22059182767E+02 -0.31697768004E+02 -0.10719915325E+03  0.11394303181E+03  0.00000000000E+00 0.  1.
</event>
<event>
12    1  0.8135779E-002  0.1980344E+03  0.7818608E-02  0.1152344E+00
         21   -1    0    0  501  502  0.00000000000E+00  0.00000000000E+00  0.81052070464E+02  0.81052070464E+02  0.00000000000E+00 0. -1.
         21   -1    0    0  502  503 -0.00000000000E+00 -0.00000000000E+00 -0.51703770344E+03  0.51703770344E+03  0.00000000000E+00 0. -1.
         -6    2    1    2    0  503  0.77641570912E+02  0.60240564604E+02 -0.12885386041E+03  0.23264817492E+03  0.16692727995E+03 0.  0.
        -24    2    3    3    0    0  0.65141954625E+02  0.10441465819E+03 -0.10566562353E+03  0.18100153629E+03  0.80314612910E+02 0.  0.
          6    2    1    2  501    0 -0.77641570912E+02 -0.60240564604E+02 -0.30713177256E+03  0.36544159898E+03  0.17193166490E+03 0.  0.
         24    2    5    5    0    0 -0.43554260326E+01 -0.54949953274E+02 -0.77379645146E+02  0.12418037199E+03  0.79966794389E+02 0.  0.
          5    1    5    5  501    0 -0.73286144879E+02 -0.52906113308E+01 -0.22975212741E+03  0.24126122699E+03  0.47000000000E+01 0. -1.
        -11    1    6    6    0    0  0.22420572936E+02  0.11017300495E+02 -0.28075504550E+02  0.37580539601E+02  0.00000000000E+00 0.  1.
         12    1    6    6    0    0 -0.26775998968E+02 -0.65967253768E+02 -0.49304140596E+02  0.86599832392E+02  0.00000000000E+00 0. -1.
         -5    1    3    3    0  503  0.12499616286E+02 -0.44174093584E+02 -0.23188236880E+02  0.51646638621E+02  0.47000000000E+01 0.  1.
         11    1    4    4    0    0  0.31374240642E+02  0.24154365706E+02 -0.81542213729E+02  0.90647167514E+02  0.00000000000E+00 0. -1.
        -12    1    4    4    0    0  0.33767713983E+02  0.80260292482E+02 -0.24123409806E+02  0.90354368780E+02  0.00000000000E+00 0.  1.
</event>
<event>
12    1  0.8135779E-002  0.2931009E+03  0.7818608E-02  0.1088898E+00
         21   -1    0    0  501  502  0.00000000000E+00  0.00000000000E+00  0.76260314007E+03  0.76260314007E+03  0.00000000000E+00 0. -1.
         21   -1    0    0  502  503 -0.00000000000E+00 -0.00000000000E+00 -0.12672991995E+03  0.12672991995E+03  0.00000000000E+00 0.  1.
         -6    2    1    2    0  503  0.82210405769E+02 -0.22325602258E+03  0.46799329919E+03  0.55155827886E+03  0.16910648852E+03 0.  0.
        -24    2    3    3    0    0 -0.22076217771E+01 -0.55020977998E+02  0.21898908773E+03  0.23938105207E+03  0.79466256572E+02 0.  0.
          6    2    1    2  501    0 -0.82210405769E+02  0.22325602258E+03  0.16787992093E+03  0.33777478116E+03  0.17119092412E+03 0.  0.
         24    2    5    5    0    0 -0.22497706237E+02  0.33194444691E+02  0.26046835148E+02  0.93177716384E+02  0.79972690745E+02 0.  0.
          5    1    5    5  501    0 -0.59712699531E+02  0.19006157789E+03  0.14183308578E+03  0.24459706478E+03  0.47000000000E+01 0. -1.
        -11    1    6    6    0    0 -0.46200676576E+02  0.10888960503E+01  0.13231312617E+01  0.46232444095E+02  0.00000000000E+00 0.  1.
         12    1    6    6    0    0  0.23702970338E+02  0.32105548641E+02  0.24723703886E+02  0.46945272289E+02  0.00000000000E+00 0. -1.
         -5    1    3    3    0  503  0.84418027546E+02 -0.16823504458E+03  0.24900421146E+03  0.31217722679E+03  0.47000000000E+01 0.  1.
         11    1    4    4    0    0 -0.53098871000E+01 -0.73217107227E+02  0.19931276882E+03  0.21240178791E+03  0.00000000000E+00 0. -1.
        -12    1    4    4    0    0  0.31022653229E+01  0.18196129229E+02  0.19676318904E+02  0.26979264161E+02  0.00000000000E+00 0.  1.
</event>
<event>
12    1  0.8135779E-002  0.1849919E+03  0.7818608E-02  0.1163275E+00
         21   -1    0    0  501  502  0.00000000000E+00  0.00000000000E+00  0.26267368997E+03  0.26267368997E+03  0.00000000000E+00 0. -1.
         21   -1    0    0  502  503 -0.00000000000E+00 -0.00000000000E+00 -0.14045735889E+03  0.14045735889E+03  0.00000000000E+00 0.  1.
         -6    2    1    2    0  503  0.20053756962E+02 -0.64486075327E+02  0.52871216113E+01  0.18506744271E+03  0.17222484611E+03 0.  0.
        -24    2    3    3    0    0  0.66535294207E+02 -0.35848310183E+02 -0.38226503667E+02  0.11509473030E+03  0.77932564711E+02 0.  0.
          6    2    1    2  501    0 -0.20053756962E+02  0.64486075327E+02  0.11692920946E+03  0.21806360615E+03  0.17122701078E+03 0.  0.
         24    2    5    5    0    0  0.10307053271E+02  0.10226514112E+03  0.10670642841E+03  0.16830788424E+03  0.79855416840E+02 0.  0.
          5    1    5    5  501    0 -0.30360810233E+02 -0.37779065789E+02  0.10222781053E+02  0.49755721906E+02  0.47000000000E+01 0. -1.
        -13    1    6    6    0    0  0.12005177862E+02  0.10231932846E+03  0.55398119459E+02  0.11697145341E+03  0.00000000000E+00 0.  1.
         14    1    6    6    0    0 -0.16981245911E+01 -0.54187345421E-01  0.51308308950E+02  0.51336430833E+02  0.00000000000E+00 0. -1.
         -5    1    3    3    0  503 -0.46481537245E+02 -0.28637765144E+02  0.43513625279E+02  0.69972712410E+02  0.47000000000E+01 0.  1.
         13    1    4    4    0    0  0.26081439817E+02  0.16539112803E+02 -0.37920146689E+02  0.48905227534E+02  0.00000000000E+00 0. -1.
        -14    1    4    4    0    0  0.40453854390E+02 -0.52387422986E+02 -0.30635697860E+00  0.66189502768E+02  0.00000000000E+00 0.  1.
</event>
<event>
12    1  0.8135779E-002  0.1939079E+03  0.7818608E-02  0.1156750E+00
         21   -1    0    0  503  502  0.00000000000E+00  0.00000000000E+00  0.44863908777E+03  0.44863908777E+03  0.00000000000E+00 0.  1.
         21   -1    0    0  501  503 -0.00000000000E+00 -0.00000000000E+00 -0.22186131925E+03  0.22186131925E+03  0.00000000000E+00 0. -1.
          6    2    1    2  501    0 -0.74759217576E+02 -0.39560403906E+02 -0.15339767383E+03  0.24724706238E+03  0.17448867398E+03 0.  0.
         24    2    3    3    0    0  0.67995504986E+01 -0.43287760303E+02 -0.13114310440E+03  0.16249399933E+03  0.85356440339E+02 0.  0.
         -6    2    1    2    0  502  0.74759217576E+02  0.39560403906E+02  0.38017544235E+03  0.42325334465E+03  0.16569870433E+03 0.  0.
        -24    2    5    5    0    0  0.36827881685E+02  0.39838975559E+02  0.87648322810E+02  0.12823966783E+03  0.76287266759E+02 0.  0.
          5    1    3    3  501    0 -0.81558768075E+02  0.37273563976E+01 -0.22254569431E+02  0.84753063049E+02  0.47000000000E+01 0. -1.
        -11    1    4    4    0    0 -0.38177272841E+02 -0.16550671440E+02 -0.41953648334E+02  0.59089233327E+02  0.00000000000E+00 0.  1.
         12    1    4    4    0    0  0.44976823339E+02 -0.26737088863E+02 -0.89189456068E+02  0.10340476600E+03  0.00000000000E+00 0. -1.
         -5    1    5    5    0  502  0.37931335891E+02 -0.27857165309E+00  0.29252711954E+03  0.29501367682E+03  0.47000000000E+01 0.  1.
         13    1    6    6    0    0 -0.16893910356E+02  0.25362679255E+02  0.87660263310E+01  0.31709823774E+02  0.00000000000E+00 0. -1.
        -14    1    6    6    0    0  0.53721792042E+02  0.14476296304E+02  0.78882296479E+02  0.96529844052E+02  0.00000000000E+00 0.  1.
</event>
<event>
12    1  0.8135779E-002  0.1879324E+03  0.7818608E-02  0.1160586E+00
         21   -1    0    0  503  502  0.00000000000E+00  0.00000000000E+00  0.26138231547E+02  0.26138231547E+02  0.00000000000E+00 0. -1.
         21   -1    0    0  501  503 -0.00000000000E+00 -0.00000000000E+00 -0.15660703449E+04  0.15660703449E+04  0.00000000000E+00 0. -1.
          6    2    1    2  501    0 -0.39992456666E+02  0.63743690946E+02 -0.10719826350E+04  0.10883314471E+04  0.17220892606E+03 0.  0.
         24    2    3    3    0    0  0.11753833937E+02 -0.60059578101E+01 -0.30610720787E+03  0.31753319073E+03  0.83375538166E+02 0.  0.
         -6    2    1    2    0  502  0.39992456666E+02 -0.63743690946E+02 -0.46794947835E+03  0.50387712938E+03  0.17103447750E+03 0.  0.
        -24    2    5    5    0    0 -0.17702744738E+02  0.15020769756E+02 -0.14176271572E+03  0.16335918469E+03  0.77785248986E+02 0.  0.
          5    1    3    3  501    0 -0.51746290603E+02  0.69749648756E+02 -0.76587542716E+03  0.77079825637E+03  0.47000000000E+01 0. -1.
        -11    1    4    4    0    0 -0.35370462852E+02 -0.10730304320E+02 -0.12690246467E+03  0.13217580948E+03  0.00000000000E+00 0.  1.
         12    1    4    4    0    0  0.47124296789E+02  0.47243465100E+01 -0.17920474320E+03  0.18535738124E+03  0.00000000000E+00 0. -1.
         -5    1    5    5    0  502  0.57695201404E+02 -0.78764460702E+02 -0.32618676264E+03  0.34051794469E+03  0.47000000000E+01 0.  1.
         13    1    6    6    0    0 -0.10321988020E+02 -0.19787088951E+02 -0.61402850271E+01  0.23146823239E+02  0.00000000000E+00 0. -1.
        -14    1    6    6    0    0 -0.73807567179E+01  0.34807858706E+02 -0.13562243069E+03  0.14021236145E+03  0.00000000000E+00 0.  1.
</event>
<event>
12    1  0.8135779E-002  0.1755926E+03  0.7818608E-02  0.1172869E+00
         21   -1    0    0  503  502  0.00000000000E+00  0.00000000000E+00  0.18499770723E+04  0.18499770723E+04  0.00000000000E+00 0. -1.
         21   -1    0    0  501  503 -0.00000000000E+00 -0.00000000000E+00 -0.62194689676E+02  0.62194689676E+02  0.00000000000E+00 0. -1.
          6    2    1    2  501    0 -0.30409389233E+02  0.17380413143E+01  0.75388569007E+02  0.19109212174E+03  0.17293065349E+03 0.  0.
         24    2    3    3    0    0  0.18038768830E+02  0.58208473125E+02  0.59264029966E+02  0.11481483517E+03  0.77178997156E+02 0.  0.
         -6    2    1    2    0  502  0.30409389233E+02 -0.17380413143E+01  0.17123938136E+04  0.17210796402E+04  0.16998471509E+03 0.  0.
        -24    2    5    5    0    0 -0.33038847899E+02 -0.44301905262E+02  0.10347982975E+04  0.10391741227E+04  0.77595854306E+02 0.  0.
          5    1    3    3  501    0 -0.48448158063E+02 -0.56470431810E+02  0.16124539041E+02  0.76277286579E+02  0.47000000000E+01 0. -1.
        -11    1    4    4    0    0 -0.22407908316E+01 -0.11374868668E+02  0.37332204616E+02  0.39090948853E+02  0.00000000000E+00 0.  1.
         12    1    4    4    0    0  0.20279559661E+02  0.69583341793E+02  0.21931825351E+02  0.75723886313E+02  0.00000000000E+00 0. -1.
         -5    1    5    5    0  502  0.63448237132E+02  0.42563863948E+02  0.67759551608E+03  0.68190551745E+03  0.47000000000E+01 0.  1.
         13    1    6    6    0    0  0.12843904456E+02 -0.56443760184E+01  0.60984978928E+03  0.61001113953E+03  0.00000000000E+00 0. -1.
        -14    1    6    6    0    0 -0.45882752355E+02 -0.38657529244E+02  0.42494850821E+03  0.42916298321E+03  0.00000000000E+00 0.  1.
</event>
<event>
12    1  0.8135779E-002  0.1859516E+03  0.7818608E-02  0.1162763E+00
         21   -1    0    0  503  502  0.00000000000E+00  0.00000000000E+00  0.23104724301E+03  0.23104724301E+03  0.00000000000E+00 0.  1.
         21   -1    0    0  501  503 -0.00000000000E+00 -0.00000000000E+00 -0.18445972298E+03  0.18445972298E+03  0.00000000000E+00 0. -1.
          6    2    1    2  501    0 -0.62059214622E+02  0.24513815082E+02 -0.69443790794E+02  0.19849546659E+03  0.17356767248E+03 0.  0.
         24    2    3    3    0    0 -0.31104526029E+02 -0.63371898587E+01 -0.10977331252E+03  0.13884198744E+03  0.78862321930E+02 0.  0.
         -6    2    1    2    0  502  0.62059214622E+02 -0.24513815082E+02  0.11603131083E+03  0.21701149940E+03  0.17081701476E+03 0.  0.
        -24    2    5    5    0    0 -0.28309249546E+02  0.73078662725E+01  0.69797496939E+02  0.11052800647E+03  0.80560108715E+02 0.  0.
          5    1    3    3  501    0 -0.30954688594E+02  0.30851004941E+02  0.40329521729E+02  0.59653479150E+02  0.47000000000E+01 0. -1.
        -11    1    4    4    0    0 -0.17764302134E+02 -0.11555798317E+02  0.61267860288E+01  0.22060018406E+02  0.00000000000E+00 0.  1.
         12    1    4    4    0    0 -0.13340223894E+02  0.52186084578E+01 -0.11590009855E+03  0.11678196904E+03  0.00000000000E+00 0. -1.
         -5    1    5    5    0  502  0.90368464169E+02 -0.31821681355E+02  0.46233813887E+02  0.10648349293E+03  0.47000000000E+01 0.  1.
         11    1    6    6    0    0  0.66786588349E+01  0.36214965450E+02  0.16020721490E+02  0.40159578228E+02  0.00000000000E+00 0. -1.
        -12    1    6    6    0    0 -0.34987908381E+02 -0.28907099177E+02  0.53776775449E+02  0.70368428244E+02  0.00000000000E+00 0.  1.
</event>
<event>
12    1  0.8135779E-002  0.2144120E+03  0.7818608E-02  0.1138316E+00
         21   -1    0    0  503  502  0.00000000000E+00  0.00000000000E+00  0.23630624564E+03  0.23630624564E+03  0.00000000000E+00 0.  1.
         21   -1    0    0  501  503 -0.00000000000E+00 -0.00000000000E+00 -0.19529761370E+03  0.19529761370E+03  0.00000000000E+00 0.  1.
          6    2    1    2  501    0 -0.38365372390E+02  0.12180918551E+03  0.40444153909E+02  0.21719115922E+03  0.17095873943E+03 0.  0.
         24    2    3    3    0    0 -0.47975584394E+01 -0.44485491568E+01  0.33316453349E+02  0.86268633236E+02  0.79306272514E+02 0.  0.
         -6    2    1    2    0  502  0.38365372390E+02 -0.12180918551E+03  0.56447803650E+00  0.21441270011E+03  0.17222981119E+03 0.  0.
        -24    2    5    5    0    0  0.89196928181E+02 -0.57556599546E+02  0.26960739978E+01  0.13232204554E+03  0.78949355745E+02 0.  0.
          5    1    3    3  501    0 -0.33567813950E+02  0.12625773466E+03  0.71277005606E+01  0.13092252599E+03  0.47000000000E+01 0. -1.
        -11    1    4    4    0    0 -0.14065513993E+01 -0.40174623168E+02  0.49061877594E+01  0.40497523528E+02  0.00000000000E+00 0.  1.
         12    1    4    4    0    0 -0.33910070401E+01  0.35726074012E+02  0.28410265589E+02  0.45771109708E+02  0.00000000000E+00 0. -1.
         -5    1    5    5    0  502 -0.50831555792E+02 -0.64252585961E+02 -0.21315959613E+01  0.82090654573E+02  0.47000000000E+01 0.  1.
         11    1    6    6    0    0  0.62518787801E+02 -0.44798099080E+02  0.38397139950E+02  0.85963997497E+02  0.00000000000E+00 0. -1.
        -12    1    6    6    0    0  0.26678140380E+02 -0.12758500466E+02 -0.35701065952E+02  0.46358048043E+02  0.00000000000E+00 0.  1.
</event>
<event>
12    1  0.8135779E-002  0.3065206E+03  0.7818608E-02  0.1082059E+00
         21   -1    0    0  501  502  0.00000000000E+00  0.00000000000E+00  0.15720610339E+03  0.15720610339E+03  0.00000000000E+00 0.  1.
         21   -1    0    0  502  503 -0.00000000000E+00 -0.00000000000E+00 -0.62797872377E+03  0.62797872377E+03  0.00000000000E+00 0. -1.
         -6    2    1    2    0  503 -0.25176029055E+03 -0.29814777686E+02 -0.32251784035E+03  0.44494113841E+03  0.17228666357E+03 0.  0.
        -24    2    3    3    0    0 -0.72686463207E+02 -0.62214986905E+02 -0.12764743406E+03  0.17826947805E+03  0.79574574151E+02 0.  0.
          6    2    1    2  501    0  0.25176029055E+03  0.29814777686E+02 -0.14825478004E+03  0.34024368876E+03  0.17179674930E+03 0.  0.
         24    2    5    5    0    0  0.17054746209E+03  0.73598752112E+02 -0.14238893311E+03  0.24767448177E+03  0.81023623159E+02 0.  0.
          5    1    5    5  501    0  0.81212828457E+02 -0.43783974426E+02 -0.58658469296E+01  0.92569206990E+02  0.47000000000E+01 0. -1.
        -11    1    6    6    0    0  0.53912154609E+02 -0.80107459985E+01 -0.14713972533E+02  0.56455234069E+02  0.00000000000E+00 0.  1.
         12    1    6    6    0    0  0.11663530748E+03  0.81609498111E+02 -0.12767496057E+03  0.19121924770E+03  0.00000000000E+00 0. -1.
         -5    1    3    3    0  503 -0.17907382734E+03  0.32400209219E+02 -0.19487040628E+03  0.26667166036E+03  0.47000000000E+01 0.  1.
         13    1    4    4    0    0  0.11633271678E+02  0.56858071037E+01 -0.29192241260E+02  0.31935064774E+02  0.00000000000E+00 0. -1.
        -14    1    4    4    0    0 -0.84319734885E+02 -0.67900794009E+02 -0.98455192803E+02  0.14633441327E+03  0.00000000000E+00 0.  1.
</event>
<event>
12    1  0.8135779E-002  0.2130375E+03  0.7818608E-02  0.1139327E+00
         21   -1    0    0  501  502  0.00000000000E+00  0.00000000000E+00  0.41823220451E+03  0.41823220451E+03  0.00000000000E+00 0.  1.
         21   -1    0    0  502  503 -0.00000000000E+00 -0.00000000000E+00 -0.13730635788E+03  0.13730635788E+03  0.00000000000E+00 0.  1.
         -6    2    1    2    0  503  0.27989009170E+02 -0.12335873219E+03  0.12247671015E+02  0.21264944064E+03  0.17049638622E+03 0.  0.
        -24    2    3    3    0    0  0.53712162886E+02 -0.13343322484E+03  0.41838956285E+02  0.17189517456E+03  0.84309138545E+02 0.  0.
          6    2    1    2  501    0 -0.27989009170E+02  0.12335873219E+03  0.26867817562E+03  0.34288912176E+03  0.17141827885E+03 0.  0.
         24    2    5    5    0    0  0.47032381663E+01  0.27554956172E+02  0.20806999444E+03  0.22481038463E+03  0.80406407650E+02 0.  0.
          5    1    5    5  501    0 -0.32692247336E+02  0.95803776020E+02  0.60608181174E+02  0.11807873712E+03  0.47000000000E+01 0. -1.
        -13    1    6    6    0    0 -0.80369540001E+01  0.52347775769E+02  0.16682109300E+03  0.17502616755E+03  0.00000000000E+00 0.  1.
         14    1    6    6    0    0  0.12740192166E+02 -0.24792819597E+02  0.41248901442E+02  0.49784217080E+02  0.00000000000E+00 0. -1.
         -5    1    3    3    0  503 -0.25723153716E+02  0.10074492648E+02 -0.29591285270E+02  0.40754266073E+02  0.47000000000E+01 0.  1.
         11    1    4    4    0    0  0.52053668133E+02 -0.24122526775E+02  0.15976342817E+02  0.59554380141E+02  0.00000000000E+00 0. -1.
        -12    1    4    4    0    0  0.16584947528E+01 -0.10931069806E+03  0.25862613468E+02  0.11234079442E+03  0.00000000000E+00 0.  1.
</event>
<event>
12    1  0.8135779E-002  0.1963411E+03  0.7818608E-02  0.1153692E+00
         21   -1    0    0  503  502  0.00000000000E+00  0.00000000000E+00  0.71181059034E+02  0.71181059034E+02  0.00000000000E+00 0. -1.
         21   -1    0    0  501  503 -0.00000000000E+00 -0.00000000000E+00 -0.58094127713E+03  0.58094127713E+03  0.00000000000E+00 0. -1.
          6    2    1    2  501    0  0.85749078028E+02  0.25940693565E+02 -0.34805531795E+03  0.39776375312E+03  0.17043378474E+03 0.  0.
         24    2    3    3    0    0  0.11698437858E+03  0.41262291448E+02 -0.32024675557E+03  0.35297757777E+03  0.81530757524E+02 0.  0.
         -6    2    1    2    0  502 -0.85749078028E+02 -0.25940693565E+02 -0.16170490015E+03  0.25435858304E+03  0.17471116183E+03 0.  0.
        -24    2    5    5    0    0 -0.49864822556E+02 -0.84132533018E+02 -0.12406619302E+03  0.17617461893E+03  0.77976230122E+02 0.  0.
          5    1    3    3  501    0 -0.31235300548E+02 -0.15321597883E+02 -0.27808562372E+02  0.44786175358E+02  0.47000000000E+01 0. -1.
        -11    1    4    4    0    0  0.66251093537E+02  0.11719822096E+02 -0.74794867447E+02  0.10060235495E+03  0.00000000000E+00 0.  1.
         12    1    4    4    0    0  0.50733285040E+02  0.29542469352E+02 -0.24545188813E+03  0.25237522282E+03  0.00000000000E+00 0. -1.
         -5    1    5    5    0  502 -0.35884255473E+02  0.58191839453E+02 -0.37638707131E+02  0.78183964112E+02  0.47000000000E+01 0.  1.
         11    1    6    6    0    0 -0.28350097155E+02 -0.85553626673E+02 -0.59233749908E+02  0.10785076807E+03  0.00000000000E+00 0. -1.
        -12    1    6    6    0    0 -0.21514725400E+02  0.14210936544E+01 -0.64832443111E+02  0.68323850858E+02  0.00000000000E+00 0.  1.
</event>
<event>
12    1  0.8135779E-002  0.2329847E+03  0.7818608E-02  0.1125099E+00
         21   -1    0    0  503  502  0.00000000000E+00  0.00000000000E+00  0.12456633839E+04  0.12456633839E+04  0.00000000000E+00 0. -1.
         21   -1    0    0  501  503 -0.00000000000E+00 -0.00000000000E+00 -0.78081536306E+02  0.78081536306E+02  0.00000000000E+00 0.  1.
          6    2    1    2  501    0 -0.12596808556E+03  0.98311437524E+02  0.13796280490E+03  0.26809477706E+03  0.16525125301E+03 0.  0.
         24    2    3    3    0    0 -0.14945286960E+03  0.10159901195E+03  0.14118796061E+03  0.24370554058E+03  0.82461086766E+02 0.  0.
         -6    2    1    2    0  502  0.12596808556E+03 -0.98311437524E+02  0.10296190427E+04  0.10556501432E+04  0.16955457623E+03 0.  0.
        -24    2    5    5    0    0  0.17833633664E+02 -0.59802114540E+02  0.29413740214E+03  0.31125014232E+03  0.80408384895E+02 0.  0.
          5    1    3    3  501    0  0.23484784033E+02 -0.32875744213E+01 -0.32251557084E+01  0.24389236478E+02  0.47000000000E+01 0. -1.
        -11    1    4    4    0    0 -0.10375293473E+03  0.20940961767E+02  0.71578207291E+02  0.12777572189E+03  0.00000000000E+00 0.  1.
         12    1    4    4    0    0 -0.45699934864E+02  0.80658050178E+02  0.69609753318E+02  0.11592981869E+03  0.00000000000E+00 0. -1.
         -5    1    5    5    0  502  0.10813445190E+03 -0.38509322984E+02  0.73548164057E+03  0.74440000084E+03  0.47000000000E+01 0.  1.
         11    1    6    6    0    0 -0.18643621270E+02 -0.20096185649E+02  0.20680859912E+03  0.20861744405E+03  0.00000000000E+00 0. -1.
        -12    1    6    6    0    0  0.36477254934E+02 -0.39705928891E+02  0.87328803016E+02  0.10263269826E+03  0.00000000000E+00 0.  1.
</event>
<event>
12    1  0.8135779E-002  0.1936840E+03  0.7818608E-02  0.1155379E+00
         21   -1    0    0  503  502  0.00000000000E+00  0.00000000000E+00  0.27581887129E+03  0.27581887129E+03  0.00000000000E+00 0. -1.
         21   -1    0    0  501  503 -0.00000000000E+00 -0.00000000000E+00 -0.17929739674E+03  0.17929739674E+03  0.00000000000E+00 0. -1.
          6    2    1    2  501    0  0.20651584386E+01 -0.86497856568E+02 -0.64455322178E+02  0.20326902702E+03  0.17227206598E+03 0.  0.
         24    2    3    3    0    0  0.12267335111E+02  0.20015114366E+02 -0.41401620987E+02  0.93712372609E+02  0.80726837210E+02 0.  0.
         -6    2    1    2    0  502 -0.20651584386E+01  0.86497856568E+02  0.16097679673E+03  0.25184724101E+03  0.17328404326E+03 0.  0.
        -24    2    5    5    0    0 -0.26004744273E+02  0.78399208501E+02  0.18404128345E+03  0.21731099312E+03  0.80809597829E+02 0.  0.
          5    1    3    3  501    0 -0.10202176672E+02 -0.10651297093E+03 -0.23053701190E+02  0.10955665441E+03  0.47000000000E+01 0. -1.
        -11    1    4    4    0    0  0.46018071226E+02  0.26020485775E+01 -0.22436135926E+02  0.51262205683E+02  0.00000000000E+00 0.  1.
         12    1    4    4    0    0 -0.33750736115E+02  0.17413065789E+02 -0.18965485062E+02  0.42450166927E+02  0.00000000000E+00 0. -1.
         -5    1    5    5    0  502  0.23939585835E+02  0.80986480665E+01 -0.23064486717E+02  0.34536247884E+02  0.47000000000E+01 0.  1.
         11    1    6    6    0    0  0.12745166678E+01  0.81355702812E+02  0.10009303595E+03  0.12899221147E+03  0.00000000000E+00 0. -1.
        -12    1    6    6    0    0 -0.27279260941E+02 -0.29564943106E+01  0.83948247492E+02  0.88318781656E+02  0.00000000000E+00 0.  1.
</event>
<event>
12    1  0.8135779E-002  0.1768353E+03  0.7818608E-02  0.1172621E+00
         21   -1    0    0  501  502  0.00000000000E+00  0.00000000000E+00  0.13805228471E+03  0.13805228471E+03  0.00000000000E+00 0.  1.
         21   -1    0    0  502  503 -0.00000000000E+00 -0.00000000000E+00 -0.41904981075E+03  0.41904981075E+03  0.00000000000E+00 0.  1.
         -6    2    1    2    0  503 -0.24760060038E+02  0.12429460176E+02 -0.33204156357E+03  0.37304719820E+03  0.16776489531E+03 0.  0.
        -24    2    3    3    0    0  0.26768892265E+02  0.47933800704E+02 -0.26105106121E+03  0.27829735627E+03  0.79294004219E+02 0.  0.
          6    2    1    2  501    0  0.24760060038E+02 -0.12429460176E+02  0.51044037531E+02  0.18405489726E+03  0.17465153702E+03 0.  0.
         24    2    5    5    0    0  0.69767320684E+02 -0.38791470320E+02  0.66758971113E+02  0.12937713005E+03  0.76872780294E+02 0.  0.
          5    1    5    5  501    0 -0.45007260647E+02  0.26362010144E+02 -0.15714933581E+02  0.54677767211E+02  0.47000000000E+01 0. -1.
        -11    1    6    6    0    0 -0.11723009845E+02 -0.25681521240E+02  0.15270750594E+02  0.32096188507E+02  0.00000000000E+00 0.  1.
         12    1    6    6    0    0  0.81490330529E+02 -0.13109949081E+02  0.51488220519E+02  0.97280941540E+02  0.00000000000E+00 0. -1.
         -5    1    3    3    0  503 -0.51528952303E+02 -0.35504340527E+02 -0.70990502351E+02  0.94749841930E+02  0.47000000000E+01 0.  1.
         13    1    4    4    0    0  0.36964045912E+02  0.24416521224E+01 -0.50403886788E+02  0.62552810957E+02  0.00000000000E+00 0. -1.
        -14    1    4    4    0    0 -0.10195153647E+02  0.45492148581E+02 -0.21064717443E+03  0.21574454532E+03  0.00000000000E+00 0.  1.
</event>
<event>
12    1  0.8135779E-002  0.2169689E+03  0.7818608E-02  0.1136289E+00
         21   -1    0    0  503  502  0.00000000000E+00  0.00000000000E+00  0.97388016864E+03  0.97388016864E+03  0.00000000000E+00 0. -1.
         21   -1    0    0  501  503 -0.00000000000E+00 -0.00000000000E+00 -0.57383464617E+02  0.57383464617E+02  0.00000000000E+00 0. -1.
          6    2    1    2  501    0  0.10930166313E+03  0.76748685904E+02  0.25245656120E+03  0.33288107670E+03  0.17099205122E+03 0.  0.
         24    2    3    3    0    0  0.56508265554E+02  0.36598591285E+02  0.24443985200E+03  0.26590697311E+03  0.80143846569E+02 0.  0.
         -6    2    1    2    0  502 -0.10930166313E+03 -0.76748685904E+02  0.66404014282E+03  0.69838255656E+03  0.17015190177E+03 0.  0.
        -24    2    5    5    0    0 -0.10877085680E+03 -0.37960018586E+00  0.35528730044E+03  0.38028991802E+03  0.80994521499E+02 0.  0.
          5    1    3    3  501    0  0.52793397579E+02  0.40150094619E+02  0.80167092070E+01  0.66974103595E+02  0.47000000000E+01 0. -1.
        -11    1    4    4    0    0 -0.83195237704E+01 -0.13920007588E+02  0.14622567438E+02  0.21835763451E+02  0.00000000000E+00 0.  1.
         12    1    4    4    0    0  0.64827789325E+02  0.50518598873E+02  0.22981728456E+03  0.24407120966E+03  0.00000000000E+00 0. -1.
         -5    1    5    5    0  502 -0.53080632872E+00 -0.76369085718E+02  0.30875284238E+03  0.31809263853E+03  0.47000000000E+01 0.  1.
         11    1    6    6    0    0 -0.43676906904E+01 -0.20935125719E+02  0.12227638115E+03  0.12413246794E+03  0.00000000000E+00 0. -1.
        -12    1    6    6    0    0 -0.10440316611E+03  0.20555525533E+02  0.23301091929E+03  0.25615745008E+03  0.00000000000E+00 0.  1.
</event>
<event>
12    1  0.8135779E-002  0.1982071E+03  0.7818608E-02  0.1152567E+00
         21   -1    0    0  503  502  0.00000000000E+00  0.00000000000E+00  0.26613263751E+02  0.26613263751E+02  0.00000000000E+00 0. -1.
         21   -1    0    0  501  503 -0.00000000000E+00 -0.00000000000E+00 -0.16607603833E+04  0.16607603833E+04  0.00000000000E+00 0. -1.
          6    2    1    2  501    0 -0.11624412733E+02  0.91692097473E+02 -0.11412545862E+04  0.11583384935E+04  0.17533815096E+03 0.  0.
         24    2    3    3    0    0 -0.14494708729E+02  0.15244008176E+02 -0.92870405326E+03  0.93239078267E+03  0.80117892487E+02 0.  0.
         -6    2    1    2    0  502  0.11624412733E+02 -0.91692097473E+02 -0.49289253333E+03  0.52903515358E+03  0.16850096914E+03 0.  0.
        -24    2    5    5    0    0  0.57548100864E+02 -0.27596467079E+02 -0.18803966826E+03  0.21411517278E+03  0.80081467682E+02 0.  0.
          5    1    3    3  501    0  0.28702959960E+01  0.76448089296E+02 -0.21255053297E+03  0.22594771081E+03  0.47000000000E+01 0. -1.
        -13    1    4    4    0    0  0.20708248093E+02  0.22647455166E+02 -0.16433749789E+03  0.16717820425E+03  0.00000000000E+00 0.  1.
         14    1    4    4    0    0 -0.35202956822E+02 -0.74034469895E+01 -0.76436655537E+03  0.76521257841E+03  0.00000000000E+00 0. -1.
         -5    1    5    5    0  502 -0.45923688130E+02 -0.64095630394E+02 -0.30485286507E+03  0.31491998080E+03  0.47000000000E+01 0.  1.
         11    1    6    6    0    0  0.60696253703E+02  0.49704774477E+01 -0.15938224594E+03  0.17062075249E+03  0.00000000000E+00 0. -1.
        -12    1    6    6    0    0 -0.31481528396E+01 -0.32566944526E+02 -0.28657422320E+02  0.43494420287E+02  0.00000000000E+00 0.  1.
</event>
<event>
12    1  0.8135779E-002  0.1858701E+03  0.7818608E-02  0.1162430E+00
         21   -1    0    0  501  502  0.00000000000E+00  0.00000000000E+00  0.11298855022E+03  0.11298855022E+03  0.00000000000E+00 0.  1.
         21   -1    0    0  502  503 -0.00000000000E+00 -0.00000000000E+00 -0.34991893676E+03  0.34991893676E+03  0.00000000000E+00 0.  1.
         -6    2    1    2    0  503 -0.65421599460E+02 -0.19866746702E+02 -0.20170047379E+03  0.27372813361E+03  0.17195736884E+03 0.  0.
        -24    2    3    3    0    0 -0.82072682213E+02  0.39819140949E+02 -0.11339214738E+03  0.16574612466E+03  0.79325340228E+02 0.  0.
          6    2    1    2  501    0  0.65421599460E+02  0.19866746702E+02 -0.35229912741E+02  0.18917935337E+03  0.17283809675E+03 0.  0.
         24    2    5    5    0    0 -0.10545662652E+02  0.55884161625E+02 -0.34676332239E+02  0.10497320430E+03  0.81133686477E+02 0.  0.
          5    1    5    5  501    0  0.75967262112E+02 -0.36017414922E+02 -0.55358050193E+00  0.84206149074E+02  0.47000000000E+01 0. -1.
        -13    1    6    6    0    0  0.20871166498E+01  0.38396154086E+02  0.22019778971E+02  0.44311300708E+02  0.00000000000E+00 0.  1.
         14    1    6    6    0    0 -0.12632779302E+02  0.17488007539E+02 -0.56696111210E+02  0.60661903588E+02  0.00000000000E+00 0. -1.
         -5    1    3    3    0  503  0.16651082753E+02 -0.59685887651E+02 -0.88308326415E+02  0.10798200894E+03  0.47000000000E+01 0.  1.
         11    1    4    4    0    0  0.58264146930E+01  0.12643305068E+02 -0.55096418985E+02  0.56827947844E+02  0.00000000000E+00 0. -1.
        -12    1    4    4    0    0 -0.87899096906E+02  0.27175835880E+02 -0.58295728394E+02  0.10891817682E+03  0.00000000000E+00 0.  1.
</event>
<event>
12    1  0.8135779E-002  0.2201997E+03  0.7818608E-02  0.1133803E+00
         21   -1    0    0  503  502  0.00000000000E+00  0.00000000000E+00  0.10796306865E+03  0.10796306865E+03  0.00000000000E+00 0.  1.
         21   -1    0    0  501  503 -0.00000000000E+00 -0.00000000000E+00 -0.67986216359E+03  0.67986216359E+03  0.00000000000E+00 0.  1.
          6    2    1    2  501    0 -0.14974059822E+02 -0.13655302616E+03 -0.51565136435E+03  0.56055510706E+03  0.17162385345E+03 0.  0.
         24    2    3    3    0    0 -0.45323887877E+02 -0.90228124160E+02 -0.47464303731E+03  0.49148353914E+03  0.77940279560E+02 0.  0.
         -6    2    1    2    0  502  0.14974059822E+02  0.13655302616E+03 -0.56247730582E+02  0.22727012518E+03  0.17209576166E+03 0.  0.
        -24    2    5    5    0    0  0.12672308643E+02  0.70261884797E+02  0.36183003635E+02  0.11340466022E+03  0.80337334698E+02 0.  0.
          5    1    3    3  501    0  0.30349828055E+02 -0.46324901996E+02 -0.41008327040E+02  0.69071567917E+02  0.47000000000E+01 0. -1.
        -11    1    4    4    0    0 -0.10520109895E+02 -0.80385537252E+02 -0.22349881410E+03  0.23774824335E+03  0.00000000000E+00 0.  1.
         12    1    4    4    0    0 -0.34803777982E+02 -0.98425869083E+01 -0.25114422321E+03  0.25373529579E+03  0.00000000000E+00 0. -1.
         -5    1    5    5    0  502  0.23017511789E+01  0.66291141360E+02 -0.92430734217E+02  0.11386546495E+03  0.47000000000E+01 0.  1.
         13    1    6    6    0    0  0.98596778849E+01 -0.13134463935E+02 -0.87745962882E+01  0.18620443896E+02  0.00000000000E+00 0. -1.
        -14    1    6    6    0    0  0.28126307584E+01  0.83396348732E+02  0.44957599923E+02  0.94784216325E+02  0.00000000000E+00 0.  1.
</event>
<event>
12    1  0.8135779E-002  0.1980275E+03  0.7818608E-02  0.1151522E+00
         21   -1    0    0  501  502  0.00000000000E+00  0.00000000000E+00  0.36397940678E+03  0.36397940678E+03  0.00000000000E+00 0. -1.
         21   -1    0    0  502  503 -0.00000000000E+00 -0.00000000000E+00 -0.11448445427E+03  0.11448445427E+03  0.00000000000E+00 0.  1.
         -6    2    1    2    0  503 -0.98691706601E+02  0.13379899917E+02  0.65363653489E+02  0.20805818972E+03  0.17057763171E+03 0.  0.
        -24    2    3    3    0    0 -0.18878481074E+01 -0.34637670377E+02  0.46889434601E+02  0.98330978693E+02  0.79164576130E+02 0.  0.
          6    2    1    2  501    0  0.98691706601E+02 -0.13379899917E+02  0.18413129903E+03  0.27040567133E+03  0.17116020897E+03 0.  0.
         24    2    5    5    0    0  0.13283308719E+03 -0.31665518914E+02  0.11802081313E+03  0.19364185124E+03  0.70149269972E+02 0.  0.
          5    1    5    5  501    0 -0.34141380590E+02  0.18285618997E+02  0.66110485894E+02  0.76763820097E+02  0.47000000000E+01 0. -1.
        -11    1    6    6    0    0  0.27117009490E+02 -0.37810528368E+02  0.25704891036E+02  0.53157404774E+02  0.00000000000E+00 0.  1.
         12    1    6    6    0    0  0.10571607770E+03  0.61450094545E+01  0.92315922096E+02  0.14048444646E+03  0.00000000000E+00 0. -1.
         -5    1    3    3    0  503 -0.96803858494E+02  0.48017570294E+02  0.18474218888E+02  0.10972721103E+03  0.47000000000E+01 0.  1.
         13    1    4    4    0    0  0.25105581317E+02  0.12606197365E+02  0.30585283896E+02  0.41529098429E+02  0.00000000000E+00 0. -1.
        -14    1    4    4    0    0 -0.26993429424E+02 -0.47243867742E+02  0.16304150705E+02  0.56801880264E+02  0.00000000000E+00 0.  1.
</event>
<event>
12    1  0.8135779E-002  0.1772271E+03  0.7818608E-02  0.1171126E+00
         21   -1    0    0  503  502  0.00000000000E+00  0.00000000000E+00  0.94799530017E+02  0.94799530017E+02  0.00000000000E+00 0. -1.
         21   -1    0    0  501  503 -0.00000000000E+00 -0.00000000000E+00 -0.34007739440E+03  0.34007739440E+03  0.00000000000E+00 0. -1.
          6    2    1    2  501    0  0.21929310658E+02 -0.30325118456E+02 -0.16487433463E+03  0.24026403995E+03  0.17071249280E+03 0.  0.
         24    2    3    3    0    0  0.62754531279E+02  0.26728998314E+02 -0.10669590677E+03  0.14900238126E+03  0.78518294379E+02 0.  0.
         -6    2    1    2    0  502 -0.21929310658E+02  0.30325118456E+02 -0.80403529759E+02  0.19461288447E+03  0.17323088561E+03 0.  0.
        -24    2    5    5    0    0  0.29732634688E+01 -0.27910959017E+02 -0.97201434136E+02  0.12891784273E+03  0.79898870128E+02 0.  0.
          5    1    3    3  501    0 -0.40825220621E+02 -0.57054116770E+02 -0.58178427854E+02  0.91261658690E+02  0.47000000000E+01 0. -1.
        -11    1    4    4    0    0 -0.14671535782E+02 -0.93417404666E+01 -0.10327000374E+02  0.20227926584E+02  0.00000000000E+00 0.  1.
         12    1    4    4    0    0  0.77426067061E+02  0.36070738780E+02 -0.96368906399E+02  0.12877445468E+03  0.00000000000E+00 0. -1.
         -5    1    5    5    0  502 -0.24902574127E+02  0.58236077473E+02  0.16797904377E+02  0.65695041739E+02  0.47000000000E+01 0.  1.
         11    1    6    6    0    0 -0.11897888211E+02 -0.55244312611E+00  0.11068087361E+02  0.16259381757E+02  0.00000000000E+00 0. -1.
        -12    1    6    6    0    0  0.14871151680E+02 -0.27358515891E+02 -0.10826952150E+03  0.11265846097E+03  0.00000000000E+00 0.  1.
</event>
<event>
12    1  0.8135779E-002  0.2073083E+03  0.7818608E-02  0.1144490E+00
         21   -1    0    0  501  502  0.00000000000E+00  0.00000000000E+00  0.20168805362E+04  0.20168805362E+04  0.00000000000E+00 0. -1.
         21   -1    0    0  502  503 -0.00000000000E+00 -0.00000000000E+00 -0.37161020543E+02  0.37161020543E+02  0.00000000000E+00 0. -1.
         -6    2    1    2    0  503 -0.23835072576E+01 -0.11333971048E+03  0.31605891576E+03  0.37798145260E+03  0.17356603700E+03 0.  0.
        -24    2    3    3    0    0  0.56271052235E+02 -0.42058867148E+02  0.22235963920E+03  0.24636473480E+03  0.79475743369E+02 0.  0.
          6    2    1    2  501    0  0.23835072576E+01  0.11333971048E+03  0.16636605999E+04  0.16760601041E+04  0.16899499985E+03 0.  0.
         24    2    5    5    0    0 -0.25179574816E+02  0.10901047404E+03  0.16053660123E+04  0.16112618424E+04  0.80295684156E+02 0.  0.
          5    1    5    5  501    0  0.27563082073E+02  0.43292364447E+01  0.58294587590E+02  0.64798261735E+02  0.47000000000E+01 0. -1.
        -13    1    6    6    0    0  0.18517918855E+02 -0.44226454733E+00  0.30687327615E+03  0.30743180794E+03  0.00000000000E+00 0.  1.
         14    1    6    6    0    0 -0.43697493671E+02  0.10945273859E+03  0.12984927361E+04  0.13038300344E+04  0.00000000000E+00 0. -1.
         -5    1    3    3    0  503 -0.58654559493E+02 -0.71280843335E+02  0.93699276564E+02  0.13161671780E+03  0.47000000000E+01 0.  1.
         11    1    4    4    0    0  0.99532540115E+01 -0.98643537448E+01 -0.27627370491E+01  0.14283047862E+02  0.00000000000E+00 0. -1.
        -12    1    4    4    0    0  0.46317798223E+02 -0.32194513403E+02  0.22512237625E+03  0.23208168694E+03  0.00000000000E+00 0.  1.
</event>
<event>
12    1  0.8135779E-002  0.1946935E+03  0.7818608E-02  0.1154619E+00
         21   -1    0    0  501  502  0.00000000000E+00  0.00000000000E+00  0.54043136010E+02  0.54043136010E+02  0.00000000000E+00 0. -1.
         21   -1    0    0  502  503 -0.00000000000E+00 -0.00000000000E+00 -0.73295856714E+03  0.73295856714E+03  0.00000000000E+00 0. -1.
         -6    2    1    2    0  503  0.95258140704E+00  0.90926439390E+02 -0.42894965184E+03  0.47106618168E+03  0.17215405577E+03 0.  0.
        -24    2    3    3    0    0 -0.66502532530E+02  0.63308061757E+02 -0.28479700777E+03  0.30946469044E+03  0.78921235909E+02 0.  0.
          6    2    1    2  501    0 -0.95258140704E+00 -0.90926439390E+02 -0.24996577929E+03  0.31593552147E+03  0.17048119579E+03 0.  0.
         24    2    5    5    0    0  0.10725944562E+02 -0.12792965138E+03 -0.17418898325E+03  0.23067217363E+03  0.79917508792E+02 0.  0.
          5    1    5    5  501    0 -0.11678525969E+02  0.37003211994E+02 -0.75776796040E+02  0.85263347839E+02  0.47000000000E+01 0. -1.
        -13    1    6    6    0    0  0.21076843983E+02 -0.53283046163E+02 -0.13293509407E+03  0.14475861147E+03  0.00000000000E+00 0.  1.
         14    1    6    6    0    0 -0.10350899421E+02 -0.74646605221E+02 -0.41253889180E+02  0.85913562156E+02  0.00000000000E+00 0. -1.
         -5    1    3    3    0  503  0.67455113937E+02  0.27618377633E+02 -0.14415264407E+03  0.16160149124E+03  0.47000000000E+01 0.  1.
         13    1    4    4    0    0 -0.61544666191E+02  0.54681973705E+01 -0.12470836123E+03  0.13917550963E+03  0.00000000000E+00 0. -1.
        -14    1    4    4    0    0 -0.49578663385E+01  0.57839864386E+02 -0.16008864653E+03  0.17028918081E+03  0.00000000000E+00 0.  1.
</event>
<event>
12    1  0.8135779E-002  0.1919150E+03  0.7818608E-02  0.1156843E+00
         21   -1    0    0  503  502  0.00000000000E+00  0.00000000000E+00  0.10945664048E+04  0.10945664048E+04  0.00000000000E+00 0.  1.
         21   -1    0    0  501  503 -0.00000000000E+00 -0.00000000000E+00 -0.43390579341E+02  0.43390579341E+02  0.00000000000E+00 0.  1.
          6    2    1    2  501    0 -0.67994125110E+02  0.47965998577E+02  0.25447021724E+03  0.31846251068E+03  0.17245098195E+03 0.  0.
         24    2    3    3    0    0  0.12340667341E+02 -0.13868667219E+02  0.15686810422E+03  0.17765957307E+03  0.81306148487E+02 0.  0.
         -6    2    1    2    0  502  0.67994125110E+02 -0.47965998577E+02  0.79670560817E+03  0.81949447341E+03  0.17293764137E+03 0.  0.
        -24    2    5    5    0    0 -0.15612968083E+02 -0.51070456002E+02  0.56956299594E+03  0.57738780276E+03  0.78247761487E+02 0.  0.
          5    1    3    3  501    0 -0.80334792451E+02  0.61834665796E+02  0.97602113026E+02  0.14080293761E+03  0.47000000000E+01 0. -1.
        -13    1    4    4    0    0  0.25528220061E+01  0.11854528424E+02 -0.52556903426E+01  0.13216240968E+02  0.00000000000E+00 0.  1.
         14    1    4    4    0    0  0.97878453353E+01 -0.25723195643E+02  0.16212379456E+03  0.16444333210E+03  0.00000000000E+00 0. -1.
         -5    1    5    5    0  502  0.83607093193E+02  0.31044574253E+01  0.22714261223E+03  0.24210667066E+03  0.47000000000E+01 0.  1.
         11    1    6    6    0    0  0.59120259081E+01 -0.49894870901E+02  0.52962862957E+03  0.53200651824E+03  0.00000000000E+00 0. -1.
        -12    1    6    6    0    0 -0.21524993991E+02 -0.11755851010E+01  0.39934366372E+02  0.45381284514E+02  0.00000000000E+00 0.  1.
</event>
<event>
12    1  0.8135779E-002  0.2222941E+03  0.7818608E-02  0.1132314E+00
         21   -1    0    0  501  502  0.00000000000E+00  0.00000000000E+00  0.15736974131E+04  0.15736974131E+04  0.00000000000E+00 0. -1.
         21   -1    0    0  502  503 -0.00000000000E+00 -0.00000000000E+00 -0.53405424567E+02  0.53405424567E+02  0.00000000000E+00 0. -1.
         -6    2    1    2    0  503 -0.14020163778E+03  0.17178734158E+02  0.23745340538E+03  0.32526724470E+03  0.17164804863E+03 0.  0.
        -24    2    3    3    0    0 -0.31578265762E+02 -0.36164710412E+02  0.55434920477E+02  0.10664112806E+03  0.77422391061E+02 0.  0.
          6    2    1    2  501    0  0.14020163778E+03 -0.17178734158E+02  0.12828385832E+04  0.13018355930E+04  0.17073216618E+03 0.  0.
         24    2    5    5    0    0  0.14148147997E+03  0.24800498389E+02  0.77833334464E+03  0.79556341357E+03  0.80537418161E+02 0.  0.
          5    1    5    5  501    0 -0.12798421896E+01 -0.41979232546E+02  0.50450523852E+03  0.50627217942E+03  0.47000000000E+01 0. -1.
        -11    1    6    6    0    0  0.85164310590E+02 -0.21457495486E+02  0.51010711588E+03  0.51761245501E+03  0.00000000000E+00 0.  1.
         12    1    6    6    0    0  0.56317169384E+02  0.46257993875E+02  0.26822622876E+03  0.27795095855E+03  0.00000000000E+00 0. -1.
         -5    1    3    3    0  503 -0.10862337202E+03  0.53343444569E+02  0.18201848491E+03  0.21862611664E+03  0.47000000000E+01 0.  1.
         13    1    4    4    0    0 -0.31025223166E+02 -0.27149293598E+02 -0.84810491873E+01  0.42090103477E+02  0.00000000000E+00 0. -1.
        -14    1    4    4    0    0 -0.55304259650E+00 -0.90154168131E+01  0.63915969664E+02  0.64551024582E+02  0.00000000000E+00 0.  1.
</event>
<event>
12    1  0.8135779E-002  0.2154550E+03  0.7818608E-02  0.1138144E+00
         21   -1    0    0  503  502  0.00000000000E+00  0.00000000000E+00  0.42157726112E+03  0.42157726112E+03  0.00000000000E+00 0. -1.
         21   -1    0    0  501  503 -0.00000000000E+00 -0.00000000000E+00 -0.12699537567E+03  0.12699537567E+03  0.00000000000E+00 0. -1.
          6    2    1    2  501    0 -0.12027971507E+03 -0.54420684429E+02  0.42306117455E+02  0.21956922643E+03  0.17027042277E+03 0.  0.
         24    2    3    3    0    0 -0.26277236380E+02 -0.33910840522E+02 -0.34793932124E+02  0.96185162054E+02  0.78743440553E+02 0.  0.
         -6    2    1    2    0  502  0.12027971507E+03  0.54420684429E+02  0.25227576800E+03  0.32900341036E+03  0.16483737487E+03 0.  0.
        -24    2    5    5    0    0  0.87413917423E+02  0.34006008422E+02  0.26120987504E+03  0.28901806404E+03  0.80642674513E+02 0.  0.
          5    1    3    3  501    0 -0.94002478695E+02 -0.20509843907E+02  0.77100049579E+02  0.12338406438E+03  0.47000000000E+01 0. -1.
        -11    1    4    4    0    0  0.18206389829E+02  0.13929740487E+02 -0.17862812876E+01  0.22993501288E+02  0.00000000000E+00 0.  1.
         12    1    4    4    0    0 -0.44483626209E+02 -0.47840581008E+02 -0.33007650836E+02  0.73191660766E+02  0.00000000000E+00 0. -1.
         -5    1    5    5    0  502  0.32865797651E+02  0.20414676006E+02 -0.89341070385E+01  0.39985346319E+02  0.47000000000E+01 0.  1.
         11    1    6    6    0    0  0.84105857302E+02  0.49249836477E+02  0.16566965408E+03  0.19221284012E+03  0.00000000000E+00 0. -1.
        -12    1    6    6    0    0  0.33080601213E+01 -0.15243828055E+02  0.95540220962E+02  0.96805223914E+02  0.00000000000E+00 0.  1.
</event>
<event>
12    1  0.8135779E-002  0.2489927E+03  0.7818608E-02  0.1114115E+00
         21   -1    0    0  501  502  0.00000000000E+00  0.00000000000E+00  0.30443636732E+03  0.30443636732E+03  0.00000000000E+00 0. -1.
         21   -1    0    0  502  503 -0.00000000000E+00 -0.00000000000E+00 -0.51181446243E+03  0.51181446243E+03  0.00000000000E+00 0.  1.
         -6    2    1    2    0  503  0.17718703102E+03  0.29210123091E+02 -0.42074027984E+03  0.48834721244E+03  0.17091559778E+03 0.  0.
        -24    2    3    3    0    0  0.95255891818E+02  0.19601745659E+02 -0.37023969787E+03  0.39151007459E+03  0.82126678168E+02 0.  0.
          6    2    1    2  501    0 -0.17718703102E+03 -0.29210123091E+02  0.21336218473E+03  0.32790361732E+03  0.17247865122E+03 0.  0.
         24    2    5    5    0    0 -0.12520534606E+03  0.17654136939E+02  0.60451933069E+02  0.15967166583E+03  0.76502009280E+02 0.  0.
          5    1    5    5  501    0 -0.51981684959E+02 -0.46864260031E+02  0.15291025166E+03  0.16823195149E+03  0.47000000000E+01 0. -1.
        -13    1    6    6    0    0 -0.10664798116E+02  0.26182576174E+02 -0.30384599706E+01  0.28434089628E+02  0.00000000000E+00 0.  1.
         14    1    6    6    0    0 -0.11454054794E+03 -0.85284392345E+01  0.63490393040E+02  0.13123757620E+03  0.00000000000E+00 0. -1.
         -5    1    3    3    0  503  0.81931139199E+02  0.96083774326E+01 -0.50500581969E+02  0.96837137848E+02  0.47000000000E+01 0.  1.
         13    1    4    4    0    0 -0.10928643151E+02 -0.77486119935E+01 -0.82598522501E+02  0.83677907169E+02  0.00000000000E+00 0. -1.
        -14    1    4    4    0    0  0.10618453497E+03  0.27350357652E+02 -0.28764117537E+03  0.30783216742E+03  0.00000000000E+00 0.  1.
</event>
<event>
12    1  0.8135779E-002  0.2029947E+03  0.7818608E-02  0.1147272E+00
         21   -1    0    0  501  502  0.00000000000E+00  0.00000000000E+00  0.58749234262E+03  0.58749234262E+03  0.00000000000E+00 0. -1.
         21   -1    0    0  502  503 -0.00000000000E+00 -0.00000000000E+00 -0.70256213853E+02  0.70256213853E+02  0.00000000000E+00 0.  1.
         -6    2    1    2    0  503  0.10591070313E+03 -0.10609271201E+02  0.27510605486E+03  0.34189206702E+03  0.17285025427E+03 0.  0.
        -24    2    3    3    0    0  0.42224637366E+02  0.14759968714E+02  0.25718304280E+03  0.27087912688E+03  0.72329850008E+02 0.  0.
          6    2    1    2  501    0 -0.10591070313E+03  0.10609271201E+02  0.24213007391E+03  0.31585648945E+03  0.17265200712E+03 0.  0.
         24    2    5    5    0    0 -0.67798983043E+02  0.63706893114E+02  0.91356581887E+02  0.15145881137E+03  0.77061508912E+02 0.  0.
          5    1    5    5  501    0 -0.38111720085E+02 -0.53097621914E+02  0.15077349203E+03  0.16439767808E+03  0.47000000000E+01 0. -1.
        -13    1    6    6    0    0 -0.35210218453E+02 -0.60356591004E+01  0.55004200724E+01  0.36144754602E+02  0.00000000000E+00 0.  1.
         14    1    6    6    0    0 -0.32588764590E+02  0.69742552215E+02  0.85856161815E+02  0.11531405677E+03  0.00000000000E+00 0. -1.
         -5    1    3    3    0  503  0.63686065761E+02 -0.25369239915E+02  0.17923012060E+02  0.71012940139E+02  0.47000000000E+01 0.  1.
         13    1    4    4    0    0  0.44732215154E+02 -0.18228538058E+02  0.18926658372E+03  0.19533328028E+03  0.00000000000E+00 0. -1.
        -14    1    4    4    0    0 -0.25075777881E+01  0.32988506772E+02  0.67916459075E+02  0.75545846602E+02  0.00000000000E+00 0.  1.
</event>
<event>
12    1  0.8135779E-002  0.1786013E+03  0.7818608E-02  0.1169175E+00
         21   -1    0    0  501  502  0.00000000000E+00  0.00000000000E+00  0.40921263021E+03  0.40921263021E+03  0.00000000000E+00 0. -1.
         21   -1    0    0  502  503 -0.00000000000E+00 -0.00000000000E+00 -0.82325031892E+02  0.82325031892E+02  0.00000000000E+00 0. -1.
         -6    2    1    2    0  503  0.15733228428E+01 -0.48842452419E+02  0.10667568681E+03  0.20803395860E+03  0.17178581220E+03 0.  0.
        -24    2    3    3    0    0  0.10500030552E+02  0.16810768047E+02  0.11271490067E+03  0.14133618074E+03  0.82936207940E+02 0.  0.
          6    2    1    2  501    0 -0.15733228428E+01  0.48842452419E+02  0.22021191151E+03  0.28350370350E+03  0.17173527135E+03 0.  0.
         24    2    5    5    0    0  0.74096157942E+01  0.61540877136E+02  0.23896809993E+03  0.25868782590E+03  0.77275199914E+02 0.  0.
          5    1    5    5  501    0 -0.89829386370E+01 -0.12698424717E+02 -0.18756188419E+02  0.24815877596E+02  0.47000000000E+01 0. -1.
        -13    1    6    6    0    0  0.90167746860E+01 -0.13243169216E+02  0.96060885205E+02  0.97387768343E+02  0.00000000000E+00 0.  1.
         14    1    6    6    0    0 -0.16071588918E+01  0.74784046352E+02  0.14290721472E+03  0.16130005756E+03  0.00000000000E+00 0. -1.
         -5    1    3    3    0  503 -0.89267077091E+01 -0.65653220465E+02 -0.60392138648E+01  0.66697777865E+02  0.47000000000E+01 0.  1.
         11    1    4    4    0    0  0.36000878430E+02 -0.11073837043E+02  0.89209552273E+02  0.96835103818E+02  0.00000000000E+00 0. -1.
        -12    1    4    4    0    0 -0.25500847878E+02  0.27884605090E+02  0.23505348399E+02  0.44501076918E+02  0.00000000000E+00 0.  1.
</event>
<event>
12    1  0.8135779E-002  0.1799930E+03  0.7818608E-02  0.1168405E+00
         21   -1    0    0  503  502  0.00000000000E+00  0.00000000000E+00  0.37360063704E+03  0.37360063704E+03  0.00000000000E+00 0. -1.
         21   -1    0    0  501  503 -0.00000000000E+00 -0.00000000000E+00 -0.15891062965E+03  0.15891062965E+03  0.00000000000E+00 0.  1.
          6    2    1    2  501    0  0.13338043904E+02  0.47013580097E+02 -0.73962027314E+02  0.19233855266E+03  0.17069140935E+03 0.  0.
         24    2    3    3    0    0 -0.24253273894E+02  0.79282501960E+02 -0.14870672934E+02  0.11508398221E+03  0.78417151420E+02 0.  0.
         -6    2    1    2    0  502 -0.13338043904E+02 -0.47013580097E+02  0.28865203470E+03  0.34017271404E+03  0.17323192001E+03 0.  0.
        -24    2    5    5    0    0 -0.52850412366E+02  0.23401481123E+02  0.14328137149E+03  0.17381698726E+03  0.79636663919E+02 0.  0.
          5    1    3    3  501    0  0.37591317798E+02 -0.32268921863E+02 -0.59091354379E+02  0.77254570443E+02  0.47000000000E+01 0. -1.
        -11    1    4    4    0    0 -0.27233212796E+01 -0.47779063790E+01 -0.26921424883E+02  0.27477408646E+02  0.00000000000E+00 0.  1.
         12    1    4    4    0    0 -0.21529952615E+02  0.84060408339E+02  0.12050751948E+02  0.87606573567E+02  0.00000000000E+00 0. -1.
         -5    1    5    5    0  502  0.39512368462E+02 -0.70415061221E+02  0.14537066321E+03  0.16635572677E+03  0.47000000000E+01 0.  1.
         13    1    6    6    0    0  0.15191429766E+02  0.27308856062E+01  0.70085643804E+02  0.71765135978E+02  0.00000000000E+00 0. -1.
        -14    1    6    6    0    0 -0.68041842132E+02  0.20670595517E+02  0.73195727682E+02  0.10205185128E+03  0.00000000000E+00 0.  1.
</event>
<event>
12    1  0.8135779E-002  0.1734827E+03  0.7818608E-02  0.1174393E+00
         21   -1    0    0  503  502  0.00000000000E+00  0.00000000000E+00  0.73942236019E+02  0.73942236019E+02  0.00000000000E+00 0. -1.
         21   -1    0    0  501  503 -0.00000000000E+00 -0.00000000000E+00 -0.67254544210E+03  0.67254544210E+03  0.00000000000E+00 0. -1.
          6    2    1    2  501    0 -0.27025916471E+02 -0.58967610743E+01 -0.53408375099E+03  0.56139582408E+03  0.17074731704E+03 0.  0.
         24    2    3    3    0    0  0.11624693005E+01  0.56978818426E+02 -0.38388685789E+03  0.39608060915E+03  0.79137805154E+02 0.  0.
         -6    2    1    2    0  502  0.27025916471E+02  0.58967610743E+01 -0.64519455096E+02  0.18509185404E+03  0.17126313787E+03 0.  0.
        -24    2    5    5    0    0  0.51724859266E+02  0.48150794621E+02 -0.80826238166E+02  0.13328990137E+03  0.78989600221E+02 0.  0.
          5    1    3    3  501    0 -0.28188385771E+02 -0.62875579501E+02 -0.15019689310E+03  0.16531521493E+03  0.47000000000E+01 0. -1.
        -13    1    4    4    0    0  0.28125234339E+01 -0.21747648646E+01  0.30258986492E+01  0.46686135970E+01  0.00000000000E+00 0.  1.
         14    1    4    4    0    0 -0.16500541334E+01  0.59153583291E+02 -0.38691275654E+03  0.39141199556E+03  0.00000000000E+00 0. -1.
         -5    1    5    5    0  502 -0.24698942795E+02 -0.42254033547E+02  0.16306783070E+02  0.51801952668E+02  0.47000000000E+01 0.  1.
         11    1    6    6    0    0 -0.11409014292E+02  0.37823214535E+02 -0.17282021142E+02  0.43121101791E+02  0.00000000000E+00 0. -1.
        -12    1    6    6    0    0  0.63133873557E+02  0.10327580086E+02 -0.63544217023E+02  0.90168799581E+02  0.00000000000E+00 0.  1.
</event>
<event>
12    1  0.8135779E-002  0.2219769E+03  0.7818608E-02  0.1132445E+00
         21   -1    0    0  501  502  0.00000000000E+00  0.00000000000E+00  0.72763798236E+03  0.72763798236E+03  0.00000000000E+00 0.  1.
         21   -1    0    0  502  503 -0.00000000000E+00 -0.00000000000E+00 -0.89850613476E+02  0.89850613476E+02  0.00000000000E+00 0.  1.
         -6    2    1    2    0  503 -0.10177966981E+03 -0.96803035685E+02  0.11589979161E+03  0.25041267591E+03  0.17188315117E+03 0.  0.
        -24    2    3    3    0    0 -0.13987286854E+03 -0.74057845045E+02  0.98640678665E+02  0.20257542613E+03  0.79106485315E+02 0.  0.
          6    2    1    2  501    0  0.10177966981E+03  0.96803035685E+02  0.52188757727E+03  0.56707591993E+03  0.17169311793E+03 0.  0.
         24    2    5    5    0    0  0.50217274100E+02  0.91495463263E+02  0.48954649864E+03  0.50579879252E+03  0.72687342561E+02 0.  0.
          5    1    5    5  501    0  0.51562395705E+02  0.53075724218E+01  0.32341078633E+02  0.61277127405E+02  0.47000000000E+01 0. -1.
        -11    1    6    6    0    0  0.38466331704E+02  0.59547119619E+01  0.11428236818E+03  0.12072935412E+03  0.00000000000E+00 0.  1.
         12    1    6    6    0    0  0.11750942395E+02  0.85540751301E+02  0.37526413046E+03  0.38506943840E+03  0.00000000000E+00 0. -1.
         -5    1    3    3    0  503  0.38093198730E+02 -0.22745190639E+02  0.17259112942E+02  0.47837249777E+02  0.47000000000E+01 0.  1.
         11    1    4    4    0    0  0.40232972564E+01 -0.24199357362E+02  0.11187530039E+02  0.26962133556E+02  0.00000000000E+00 0. -1.
        -12    1    4    4    0    0 -0.14389616579E+03 -0.49858487683E+02  0.87453148626E+02  0.17561329257E+03  0.00000000000E+00 0.  1.
</event>
<event>
12    1  0.8135779E-002  0.1889663E+03  0.7818608E-02  0.1160511E+00
         21   -1    0    0  501  502  0.00000000000E+00  0.00000000000E+00  0.20289557421E+03  0.20289557421E+03  0.00000000000E+00 0.  1.
         21   -1    0    0  502  503 -0.00000000000E+00 -0.00000000000E+00 -0.19938062314E+03  0.19938062314E+03  0.00000000000E+00 0.  1.
         -6    2    1    2    0  503  0.14795007722E+02  0.70735110304E+02 -0.73447489593E+02  0.19823827842E+03  0.16935623171E+03 0.  0.
        -24    2    3    3    0    0  0.17062675023E+02 -0.30016441259E+02 -0.11202531027E+02  0.79694858847E+02  0.70948236063E+02 0.  0.
          6    2    1    2  501    0 -0.14795007722E+02 -0.70735110304E+02  0.76962440663E+02  0.20403791894E+03  0.17460213918E+03 0.  0.
         24    2    5    5    0    0 -0.27657228219E+02  0.28424071979E+02  0.45565944185E+02  0.99129339027E+02  0.78597203805E+02 0.  0.
          5    1    5    5  501    0  0.12862220497E+02 -0.99159182283E+02  0.31396496478E+02  0.10490857991E+03  0.47000000000E+01 0. -1.
        -13    1    6    6    0    0 -0.41081914628E+02 -0.95369911601E+01  0.58591719403E+01  0.42579429373E+02  0.00000000000E+00 0.  1.
         14    1    6    6    0    0  0.13424686409E+02  0.37961063139E+02  0.39706772245E+02  0.56549909655E+02  0.00000000000E+00 0. -1.
         -5    1    3    3    0  503 -0.22676673006E+01  0.10075155156E+03 -0.62244958567E+02  0.11854341957E+03  0.47000000000E+01 0.  1.
         13    1    4    4    0    0  0.29289777095E+02 -0.12265897205E+02  0.23040620839E+02  0.39232811334E+02  0.00000000000E+00 0. -1.
        -14    1    4    4    0    0 -0.12227102072E+02 -0.17750544054E+02 -0.34243151865E+02  0.40462047513E+02  0.00000000000E+00 0.  1.
</event>
<event>
12    1  0.8135779E-002  0.1874992E+03  0.7818608E-02  0.1161398E+00
         21   -1    0    0  503  502  0.00000000000E+00  0.00000000000E+00  0.45866041992E+03  0.45866041992E+03  0.00000000000E+00 0.  1.
         21   -1    0    0  501  503 -0.00000000000E+00 -0.00000000000E+00 -0.81428384433E+02  0.81428384433E+02  0.00000000000E+00 0. -1.
          6    2    1    2  501    0  0.29508319245E+02  0.64782027736E+02  0.11699985246E+03  0.22100884985E+03  0.17346035344E+03 0.  0.
         24    2    3    3    0    0  0.49205372655E+02  0.93999330973E+02  0.12714011044E+03  0.18404211408E+03  0.80310952869E+02 0.  0.
         -6    2    1    2    0  502 -0.29508319245E+02 -0.64782027736E+02  0.26023218303E+03  0.31907995451E+03  0.17036365886E+03 0.  0.
        -24    2    5    5    0    0 -0.40081184013E+02 -0.41999803627E+02  0.55287416084E+02  0.11254844915E+03  0.78993482089E+02 0.  0.
          5    1    3    3  501    0 -0.19697053411E+02 -0.29217303236E+02 -0.10140257984E+02  0.36966735770E+02  0.47000000000E+01 0. -1.
        -13    1    4    4    0    0  0.27754335884E+01  0.11852428320E+02  0.75501096770E+02  0.76476131585E+02  0.00000000000E+00 0.  1.
         14    1    4    4    0    0  0.46429939067E+02  0.82146902653E+02  0.51639013670E+02  0.10756598249E+03  0.00000000000E+00 0. -1.
         -5    1    5    5    0  502  0.10572864768E+02 -0.22782224110E+02  0.20494476695E+03  0.20653150536E+03  0.47000000000E+01 0.  1.
         11    1    6    6    0    0 -0.18641387088E+02  0.10217633212E+02  0.51801091599E+02  0.55993342746E+02  0.00000000000E+00 0. -1.
        -12    1    6    6    0    0 -0.21439796925E+02 -0.52217436838E+02  0.34863244858E+01  0.56555106406E+02  0.00000000000E+00 0.  1.
</event>
<event>
12    1  0.8135779E-002  0.3423686E+03  0.7818608E-02  0.1065802E+00
         21   -1    0    0  503  502  0.00000000000E+00  0.00000000000E+00  0.56240939542E+03  0.56240939542E+03  0.00000000000E+00 0. -1.
         21   -1    0    0  501  503 -0.00000000000E+00 -0.00000000000E+00 -0.52912856083E+03  0.52912856083E+03  0.00000000000E+00 0.  1.
          6    2    1    2  501    0  0.22050815747E+03 -0.19597022061E+03 -0.40830017786E+03  0.53278034452E+03  0.17354447668E+03 0.  0.
         24    2    3    3    0    0  0.22961795454E+02 -0.56053240464E+02 -0.10094291274E+03  0.14151073810E+03  0.78527750191E+02 0.  0.
         -6    2    1    2    0  502 -0.22050815747E+03  0.19597022061E+03  0.44158101244E+03  0.55875761173E+03  0.17374723952E+03 0.  0.
        -24    2    5    5    0    0 -0.13800300451E+03  0.67075270332E+02  0.14711820005E+03  0.22686689726E+03  0.79252149129E+02 0.  0.
          5    1    3    3  501    0  0.19754636202E+03 -0.13991698015E+03 -0.30735726512E+03  0.39126960641E+03  0.47000000000E+01 0. -1.
        -11    1    4    4    0    0  0.56983204105E-01 -0.35172469889E+02 -0.10454963730E+03  0.11030744555E+03  0.00000000000E+00 0.  1.
         12    1    4    4    0    0  0.22904812249E+02 -0.20880770576E+02  0.36067245612E+01  0.31203292552E+02  0.00000000000E+00 0. -1.
         -5    1    5    5    0  502 -0.82505152964E+02  0.12889495028E+03  0.29446281239E+03  0.33189071447E+03  0.47000000000E+01 0.  1.
         13    1    6    6    0    0  0.46073227993E+00 -0.12823433601E+02  0.10506273883E+02  0.16584164569E+02  0.00000000000E+00 0. -1.
        -14    1    6    6    0    0 -0.13846373679E+03  0.79898703933E+02  0.13661192617E+03  0.21028273269E+03  0.00000000000E+00 0.  1.
</event>
<event>
12    1  0.8135779E-002  0.1927267E+03  0.7818608E-02  0.1156136E+00
         21   -1    0    0  501  502  0.00000000000E+00  0.00000000000E+00  0.75064073549E+02  0.75064073549E+02  0.00000000000E+00 0.  1.
         21   -1    0    0  502  503 -0.00000000000E+00 -0.00000000000E+00 -0.70829483020E+03  0.70829483020E+03  0.00000000000E+00 0.  1.
         -6    2    1    2    0  503  0.80615002289E+01 -0.89342494156E+02 -0.53257532384E+03  0.56637449103E+03  0.17057701921E+03 0.  0.
        -24    2    3    3    0    0 -0.23160794418E+02  0.12433186329E+02 -0.17079725418E+03  0.18922918415E+03  0.77103667723E+02 0.  0.
          6    2    1    2  501    0 -0.80615002289E+01  0.89342494156E+02 -0.10065543281E+03  0.21698441272E+03  0.17001073542E+03 0.  0.
         24    2    5    5    0    0 -0.58715903773E+02  0.55963443991E+02 -0.10807752344E+03  0.15568835234E+03  0.77321714687E+02 0.  0.
          5    1    5    5  501    0  0.50654403544E+02  0.33379050165E+02  0.74220906284E+01  0.61296060376E+02  0.47000000000E+01 0. -1.
        -13    1    6    6    0    0 -0.44090975720E+02  0.75636486562E+02 -0.84427547902E+02  0.12162607896E+03  0.00000000000E+00 0.  1.
         14    1    6    6    0    0 -0.14624928053E+02 -0.19673042571E+02 -0.23649975539E+02  0.34062273376E+02  0.00000000000E+00 0. -1.
         -5    1    3    3    0  503  0.31222294647E+02 -0.10177568049E+03 -0.36177806966E+03  0.37714530689E+03  0.47000000000E+01 0.  1.
         13    1    4    4    0    0 -0.38127996556E+02 -0.68316580672E+01 -0.15591008037E+03  0.16064983297E+03  0.00000000000E+00 0. -1.
        -14    1    4    4    0    0  0.14967202138E+02  0.19264844396E+02 -0.14887173814E+02  0.28579351176E+02  0.00000000000E+00 0.  1.
</event>
<event>
12    1  0.8135779E-002  0.1880604E+03  0.7818608E-02  0.1161075E+00
         21   -1    0    0  503  502  0.00000000000E+00  0.00000000000E+00  0.26202556759E+03  0.26202556759E+03  0.00000000000E+00 0.  1.
         21   -1    0    0  501  503 -0.00000000000E+00 -0.00000000000E+00 -0.18982514827E+03  0.18982514827E+03  0.00000000000E+00 0.  1.
          6    2    1    2  501    0  0.47256538286E+02  0.60514120019E+02 -0.88474742907E+02  0.20449829531E+03  0.16762050447E+03 0.  0.
         24    2    3    3    0    0  0.83277787648E+02  0.49443221074E+02 -0.10632718265E+03  0.16253527810E+03  0.75712778513E+02 0.  0.
         -6    2    1    2    0  502 -0.47256538286E+02 -0.60514120019E+02  0.16067516223E+03  0.24735242055E+03  0.17167286641E+03 0.  0.
        -24    2    5    5    0    0 -0.76998273397E+02 -0.41264433041E+01  0.59133553483E+02  0.12736521624E+03  0.82336866097E+02 0.  0.
          5    1    3    3  501    0 -0.36021249362E+02  0.11070898945E+02  0.17852439741E+02  0.41963017215E+02  0.47000000000E+01 0. -1.
        -13    1    4    4    0    0 -0.97012170363E+01  0.17341573265E+02 -0.37637258923E+02  0.42560627751E+02  0.00000000000E+00 0.  1.
         14    1    4    4    0    0  0.92979004684E+02  0.32101647808E+02 -0.68689923725E+02  0.11997465035E+03  0.00000000000E+00 0. -1.
         -5    1    5    5    0  502  0.29741735111E+02 -0.56387676714E+02  0.10154160875E+03  0.11998720432E+03  0.47000000000E+01 0.  1.
         11    1    6    6    0    0 -0.63124397704E+01 -0.67760546744E+01 -0.19506380740E+02  0.21593070703E+02  0.00000000000E+00 0. -1.
        -12    1    6    6    0    0 -0.70685833627E+02  0.26496113703E+01  0.78639934223E+02  0.10577214553E+03  0.00000000000E+00 0.  1.
</event>
<event>
12    1  0.8135779E-002  0.2049079E+03  0.7818608E-02  0.1145807E+00
         21   -1    0    0  503  502  0.00000000000E+00  0.00000000000E+00  0.41910126208E+03  0.41910126208E+03  0.00000000000E+00 0. -1.
         21   -1    0    0  501  503 -0.00000000000E+00 -0.00000000000E+00 -0.22361403310E+03  0.22361403310E+03  0.00000000000E+00 0. -1.
          6    2    1    2  501    0 -0.12074719425E+02  0.11236172515E+03 -0.14126651252E+03  0.24888446897E+03  0.17092774850E+03 0.  0.
         24    2    3    3    0    0  0.24606535984E+02  0.10320762775E+03 -0.37874809126E+02  0.13869714517E+03  0.80901797706E+02 0.  0.
         -6    2    1    2    0  502  0.12074719425E+02 -0.11236172515E+03  0.33675374150E+03  0.39383082621E+03  0.17008433534E+03 0.  0.
        -24    2    5    5    0    0  0.55548398068E+02 -0.59030832649E+02  0.28361094826E+03  0.30676538356E+03  0.84258927403E+02 0.  0.
          5    1    3    3  501    0 -0.36681255408E+02  0.91540974047E+01 -0.10339170339E+03  0.11018732381E+03  0.47000000000E+01 0. -1.
        -13    1    4    4    0    0  0.44407772617E+01  0.49158583336E+02  0.23326109473E+02  0.54592986742E+02  0.00000000000E+00 0.  1.
         14    1    4    4    0    0  0.20165758722E+02  0.54049044413E+02 -0.61200918599E+02  0.84104158424E+02  0.00000000000E+00 0. -1.
         -5    1    5    5    0  502 -0.43473678643E+02 -0.53330892505E+02  0.53142793238E+02  0.87065442647E+02  0.47000000000E+01 0.  1.
         11    1    6    6    0    0  0.54261411704E+02 -0.71924703820E+02  0.27871135004E+03  0.29291206950E+03  0.00000000000E+00 0. -1.
        -12    1    6    6    0    0  0.12869863643E+01  0.12893871171E+02  0.48995982211E+01  0.13853314058E+02  0.00000000000E+00 0.  1.
</event>
<event>
12    1  0.8135779E-002  0.2809962E+03  0.7818608E-02  0.1095146E+00
         21   -1    0    0  501  502  0.00000000000E+00  0.00000000000E+00  0.14480372344E+03  0.14480372344E+03  0.00000000000E+00 0.  1.
         21   -1    0    0  502  503 -0.00000000000E+00 -0.00000000000E+00 -0.77215914580E+03  0.77215914580E+03  0.00000000000E+00 0.  1.
         -6    2    1    2    0  503  0.45948318215E+02 -0.21731059321E+03 -0.56220320452E+03  0.62851515348E+03  0.17211540639E+03 0.  0.
        -24    2    3    3    0    0 -0.91982736207E+01 -0.20087169161E+03 -0.37684792174E+03  0.43437588664E+03  0.78955747390E+02 0.  0.
          6    2    1    2  501    0 -0.45948318215E+02  0.21731059321E+03 -0.65152217840E+02  0.28844771576E+03  0.17211081131E+03 0.  0.
         24    2    5    5    0    0 -0.80858437087E+02  0.15552875573E+03 -0.90780876062E+02  0.21285254420E+03  0.79610033315E+02 0.  0.
          5    1    5    5  501    0  0.34910118872E+02  0.61781837480E+02  0.25628658222E+02  0.75595171568E+02  0.47000000000E+01 0. -1.
        -13    1    6    6    0    0 -0.67420872049E+02  0.93859858077E+02 -0.18740633848E+02  0.11707458436E+03  0.00000000000E+00 0.  1.
         14    1    6    6    0    0 -0.13437565038E+02  0.61668897656E+02 -0.72040242214E+02  0.95777959837E+02  0.00000000000E+00 0. -1.
         -5    1    3    3    0  503  0.55146591836E+02 -0.16438901607E+02 -0.18535528277E+03  0.19413926684E+03  0.47000000000E+01 0.  1.
         13    1    4    4    0    0 -0.26791687636E+02 -0.69132087772E+02 -0.79674937574E+02  0.10883536081E+03  0.00000000000E+00 0. -1.
        -14    1    4    4    0    0  0.17593414015E+02 -0.13173960383E+03 -0.29717298417E+03  0.32554052582E+03  0.00000000000E+00 0.  1.
</event>
<event>
12    1  0.8135779E-002  0.1788646E+03  0.7818608E-02  0.1170210E+00
         21   -1    0    0  501  502  0.00000000000E+00  0.00000000000E+00  0.13850456921E+03  0.13850456921E+03  0.00000000000E+00 0. -1.
         21   -1    0    0  502  503 -0.00000000000E+00 -0.00000000000E+00 -0.25598266737E+03  0.25598266737E+03  0.00000000000E+00 0. -1.
         -6    2    1    2    0  503 -0.81589262135E+01  0.13373140431E+02 -0.12895495588E+03  0.22050382816E+03  0.17817729548E+03 0.  0.
        -24    2    3    3    0    0  0.54972742221E+02  0.14770829134E+02 -0.12780043641E+03  0.15717149828E+03  0.71622262902E+02 0.  0.
          6    2    1    2  501    0  0.81589262135E+01 -0.13373140431E+02  0.11476857724E+02  0.17398340842E+03  0.17289620927E+03 0.  0.
         24    2    5    5    0    0  0.38881991656E+02 -0.32258821374E+02 -0.39140225622E+02  0.11165560707E+03  0.91556411551E+02 0.  0.
          5    1    5    5  501    0 -0.30723065442E+02  0.18885680944E+02  0.50617083346E+02  0.62327801352E+02  0.47000000000E+01 0. -1.
        -13    1    6    6    0    0  0.52767623152E+02 -0.19665188835E+02  0.11659664880E+02  0.57507299451E+02  0.00000000000E+00 0.  1.
         14    1    6    6    0    0 -0.13885631496E+02 -0.12593632539E+02 -0.50799890502E+02  0.54148307615E+02  0.00000000000E+00 0. -1.
         -5    1    3    3    0  503 -0.63131668434E+02 -0.13976887030E+01 -0.11545194691E+01  0.63332329882E+02  0.47000000000E+01 0.  1.
         11    1    4    4    0    0  0.57944545008E+02  0.35979540891E+02 -0.82348883427E+02  0.10692724751E+03  0.00000000000E+00 0. -1.
        -12    1    4    4    0    0 -0.29718027873E+01 -0.21208711758E+02 -0.45451552983E+02  0.50244250764E+02  0.00000000000E+00 0.  1.
</event>
<event>
12    1  0.8135779E-002  0.2226503E+03  0.7818608E-02  0.1131969E+00
         21   -1    0    0  503  502  0.00000000000E+00  0.00000000000E+00  0.26921804215E+03  0.26921804215E+03  0.00000000000E+00 0. -1.
         21   -1    0    0  501  503 -0.00000000000E+00 -0.00000000000E+00 -0.78462980675E+03  0.78462980675E+03  0.00000000000E+00 0. -1.
          6    2    1    2  501    0 -0.27040883394E+02  0.13809279422E+03 -0.71878625545E+03  0.75248045953E+03  0.17254660748E+03 0.  0.
         24    2    3    3    0    0  0.17425457264E+02  0.13726549391E+03 -0.65740224775E+03  0.67653293634E+03  0.79835056337E+02 0.  0.
         -6    2    1    2    0  502  0.27040883394E+02 -0.13809279422E+03  0.20337449085E+03  0.30136738936E+03  0.17222163236E+03 0.  0.
        -24    2    5    5    0    0  0.82175811163E+02 -0.11175113833E+03  0.16802810396E+03  0.23061995010E+03  0.75570740425E+02 0.  0.
          5    1    3    3  501    0 -0.44466340658E+02  0.82730031408E+00 -0.61384007701E+02  0.75947523191E+02  0.47000000000E+01 0. -1.
        -13    1    4    4    0    0  0.62813340715E+01 -0.92727494528E+01 -0.27070607907E+02  0.29296021105E+02  0.00000000000E+00 0.  1.
         14    1    4    4    0    0  0.11144123192E+02  0.14653824336E+03 -0.63033163984E+03  0.64723691523E+03  0.00000000000E+00 0. -1.
         -5    1    5    5    0  502 -0.55134927769E+02 -0.26341655898E+02  0.35346386894E+02  0.70747439261E+02  0.47000000000E+01 0.  1.
         11    1    6    6    0    0 -0.46957506197E+01 -0.29756518043E+02  0.69589080243E+02  0.75829681055E+02  0.00000000000E+00 0. -1.
        -12    1    6    6    0    0  0.86871561783E+02 -0.81994620283E+02  0.98439023716E+02  0.15479026905E+03  0.00000000000E+00 0.  1.
</event>
<event>
12    1  0.8135779E-002  0.1830533E+03  0.7818608E-02  0.1165168E+00
         21   -1    0    0  501  502  0.00000000000E+00  0.00000000000E+00  0.34263374659E+02  0.34263374659E+02  0.00000000000E+00 0.  1.
         21   -1    0    0  502  503 -0.00000000000E+00 -0.00000000000E+00 -0.13441866434E+04  0.13441866434E+04  0.00000000000E+00 0.  1.
         -6    2    1    2    0  503 -0.60047759344E+02 -0.22657360858E+02 -0.29362724482E+03  0.34601367213E+03  0.17143340689E+03 0.  0.
        -24    2    3    3    0    0 -0.95163863250E+02 -0.30133257466E+02 -0.27896424930E+03  0.30694804503E+03  0.80198976808E+02 0.  0.
          6    2    1    2  501    0  0.60047759344E+02  0.22657360858E+02 -0.10162960239E+04  0.10324363459E+04  0.17014144337E+03 0.  0.
         24    2    5    5    0    0  0.90644095872E+02  0.44824709598E+02 -0.56160287115E+03  0.57615191672E+03  0.79546461586E+02 0.  0.
          5    1    5    5  501    0 -0.30596336528E+02 -0.22167348740E+02 -0.45469315274E+03  0.45628442918E+03  0.47000000000E+01 0. -1.
        -11    1    6    6    0    0  0.32225412809E+02 -0.22103581902E+02 -0.20136057690E+03  0.20511735054E+03  0.00000000000E+00 0.  1.
         12    1    6    6    0    0  0.58418683063E+02  0.66928291500E+02 -0.36024229425E+03  0.37103456618E+03  0.00000000000E+00 0. -1.
         -5    1    3    3    0  503  0.35116103906E+02  0.74758966077E+01 -0.14662995516E+02  0.39065627106E+02  0.47000000000E+01 0.  1.
         11    1    4    4    0    0 -0.56531786798E+01  0.22588157576E+02 -0.66238956070E+02  0.70212410535E+02  0.00000000000E+00 0. -1.
        -12    1    4    4    0    0 -0.89510684570E+02 -0.52721415042E+02 -0.21272529323E+03  0.23673563449E+03  0.00000000000E+00 0.  1.
</event>
<event>
12    1  0.8135779E-002  0.1982218E+03  0.7818608E-02  0.1153257E+00
         21   -1    0    0  503  502  0.00000000000E+00  0.00000000000E+00  0.73783182469E+03  0.73783182469E+03  0.00000000000E+00 0. -1.
         21   -1    0    0  501  503 -0.00000000000E+00 -0.00000000000E+00 -0.56854682901E+02  0.56854682901E+02  0.00000000000E+00 0. -1.
          6    2    1    2  501    0  0.16069296316E+02 -0.92960585631E+02  0.47716593317E+03  0.51670029541E+03  0.17433294221E+03 0.  0.
         24    2    3    3    0    0  0.63397467132E+02 -0.10808534822E+03  0.34794336946E+03  0.37817493612E+03  0.79057021306E+02 0.  0.
         -6    2    1    2    0  502 -0.16069296316E+02  0.92960585631E+02  0.20381120862E+03  0.27798621218E+03  0.16382134365E+03 0.  0.
        -24    2    5    5    0    0  0.45631068585E+02  0.71192180601E+02  0.16181989351E+03  0.20010066133E+03  0.81878420411E+02 0.  0.
          5    1    3    3  501    0 -0.47328170816E+02  0.15124762593E+02  0.12922256371E+03  0.13852535929E+03  0.47000000000E+01 0. -1.
        -13    1    4    4    0    0  0.24192405241E+02 -0.47910300444E+02  0.56160500221E+02  0.77683145824E+02  0.00000000000E+00 0.  1.
         14    1    4    4    0    0  0.39205061891E+02 -0.60175047780E+02  0.29178286924E+03  0.30049179030E+03  0.00000000000E+00 0. -1.
         -5    1    5    5    0  502 -0.61700364901E+02  0.21768405030E+02  0.41991315105E+02  0.77885550846E+02  0.47000000000E+01 0.  1.
         13    1    6    6    0    0  0.56946767832E+02  0.20403432750E+02  0.57189845026E+02  0.83246097858E+02  0.00000000000E+00 0. -1.
        -14    1    6    6    0    0 -0.11315699247E+02  0.50788747851E+02  0.10463004849E+03  0.11685456347E+03  0.00000000000E+00 0.  1.
</event>
<event>
12    1  0.8135779E-002  0.3122280E+03  0.7818608E-02  0.1079401E+00
         21   -1    0    0  501  502  0.00000000000E+00  0.00000000000E+00  0.26698352618E+03  0.26698352618E+03  0.00000000000E+00 0. -1.
         21   -1    0    0  502  503 -0.00000000000E+00 -0.00000000000E+00 -0.51035887021E+03  0.51035887021E+03  0.00000000000E+00 0.  1.
         -6    2    1    2    0  503 -0.25411149535E+03  0.51397752643E+02 -0.32997600859E+03  0.45428017541E+03  0.17398830557E+03 0.  0.
        -24    2    3    3    0    0 -0.67436155513E+02 -0.23931365026E+01 -0.18576049540E+03  0.21228565790E+03  0.77491139659E+02 0.  0.
          6    2    1    2  501    0  0.25411149535E+03 -0.51397752643E+02  0.86600664562E+02  0.32306222099E+03  0.17220668536E+03 0.  0.
         24    2    5    5    0    0  0.73844664638E+02 -0.44463981970E+02  0.80540058776E+02  0.14249913403E+03  0.79932608755E+02 0.  0.
          5    1    5    5  501    0  0.18026683072E+03 -0.69337706726E+01  0.60606057856E+01  0.18056308697E+03  0.47000000000E+01 0. -1.
        -11    1    6    6    0    0  0.37510902823E+02 -0.11396473626E+01 -0.71077283685E+01  0.38195371830E+02  0.00000000000E+00 0.  1.
         12    1    6    6    0    0  0.36333761815E+02 -0.43324334608E+02  0.87647787144E+02  0.10430376220E+03  0.00000000000E+00 0. -1.
         -5    1    3    3    0  503 -0.18667533984E+03  0.53790889146E+02 -0.14421551319E+03  0.24199451751E+03  0.47000000000E+01 0.  1.
         13    1    4    4    0    0 -0.10997842325E+01  0.30142113895E+01  0.73540964617E+01  0.80235734200E+01  0.00000000000E+00 0. -1.
        -14    1    4    4    0    0 -0.66336371280E+02 -0.54073478921E+01 -0.19311459186E+03  0.20426208448E+03  0.00000000000E+00 0.  1.
</event>
<event>
12    1  0.8135779E-002  0.2181255E+03  0.7818608E-02  0.1135439E+00
         21   -1    0    0  503  502  0.00000000000E+00  0.00000000000E+00  0.10351903866E+04  0.10351903866E+04  0.00000000000E+00 0. -1.
         21   -1    0    0  501  503 -0.00000000000E+00 -0.00000000000E+00 -0.48261996107E+02  0.48261996107E+02  0.00000000000E+00 0. -1.
          6    2    1    2  501    0  0.22959806718E+01  0.13362869902E+03  0.61684551257E+03  0.65427603256E+03  0.17238572932E+03 0.  0.
         24    2    3    3    0    0  0.24882218080E+02  0.24256639152E+00  0.19245861218E+03  0.20882308361E+03  0.77120550006E+02 0.  0.
         -6    2    1    2    0  502 -0.22959806718E+01 -0.13362869902E+03  0.37008287797E+03  0.42917635019E+03  0.17137415870E+03 0.  0.
        -24    2    5    5    0    0 -0.92482082797E+01 -0.16145551995E+03  0.35021331639E+03  0.39396903691E+03  0.80055110932E+02 0.  0.
          5    1    3    3  501    0 -0.22586237408E+02  0.13338613263E+03  0.42438690039E+03  0.44545294894E+03  0.47000000000E+01 0. -1.
        -11    1    4    4    0    0 -0.16990725050E+02  0.98208389928E+01  0.11308372938E+02  0.22649788404E+02  0.00000000000E+00 0.  1.
         12    1    4    4    0    0  0.41872943130E+02 -0.95782726012E+01  0.18115023924E+03  0.18617329521E+03  0.00000000000E+00 0. -1.
         -5    1    5    5    0  502  0.69522276079E+01  0.27826820927E+02  0.19869561579E+02  0.35207313288E+02  0.47000000000E+01 0.  1.
         13    1    6    6    0    0 -0.14593877126E+02 -0.72184218742E+02  0.24527403963E+03  0.25609157971E+03  0.00000000000E+00 0. -1.
        -14    1    6    6    0    0  0.53456688464E+01 -0.89271301208E+02  0.10493927676E+03  0.13787745719E+03  0.00000000000E+00 0.  1.
</event>
<event>
12    1  0.8135779E-002  0.2198353E+03  0.7818608E-02  0.1136123E+00
         21   -1    0    0  503  502  0.00000000000E+00  0.00000000000E+00  0.26046991604E+03  0.26046991604E+03  0.00000000000E+00 0. -1.
         21   -1    0    0  501  503 -0.00000000000E+00 -0.00000000000E+00 -0.22221095514E+03  0.22221095514E+03  0.00000000000E+00 0. -1.
          6    2    1    2  501    0  0.78217470212E+02 -0.93488832383E+02 -0.90887252626E+02  0.22771749075E+03  0.16951881452E+03 0.  0.
         24    2    3    3    0    0  0.19758445248E+02 -0.76577715006E+02  0.62887964696E+01  0.11296245597E+03  0.80414083982E+02 0.  0.
         -6    2    1    2    0  502 -0.78217470212E+02  0.93488832383E+02  0.12914621353E+03  0.25496338042E+03  0.18294656723E+03 0.  0.
        -24    2    5    5    0    0 -0.95933014261E+02  0.51029033415E+02  0.20349821388E+02  0.13674569997E+03  0.80487053327E+02 0.  0.
          5    1    3    3  501    0  0.58459024964E+02 -0.16911117377E+02 -0.97176049096E+02  0.11475503479E+03  0.47000000000E+01 0. -1.
        -11    1    4    4    0    0 -0.24699134281E+02 -0.41259515372E+02  0.23650168988E+02  0.53588481376E+02  0.00000000000E+00 0.  1.
         12    1    4    4    0    0  0.44457579529E+02 -0.35318199633E+02 -0.17361372519E+02  0.59373974590E+02  0.00000000000E+00 0. -1.
         -5    1    5    5    0  502  0.17715544049E+02  0.42459798968E+02  0.10879639214E+03  0.11821768045E+03  0.47000000000E+01 0.  1.
         11    1    6    6    0    0 -0.54652239988E+02 -0.13534311674E+02  0.21051722227E+02  0.60110065188E+02  0.00000000000E+00 0. -1.
        -12    1    6    6    0    0 -0.41280774273E+02  0.64563345089E+02 -0.70190083848E+00  0.76635634782E+02  0.00000000000E+00 0.  1.
</event>
<event>
12    1  0.8135779E-002  0.2086032E+03  0.7818608E-02  0.1142899E+00
         21   -1    0    0  503  502  0.00000000000E+00  0.00000000000E+00  0.97113452179E+02  0.97113452179E+02  0.00000000000E+00 0. -1.
         21   -1    0    0  501  503 -0.00000000000E+00 -0.00000000000E+00 -0.44590024564E+03  0.44590024564E+03  0.00000000000E+00 0. -1.
          6    2    1    2  501    0  0.11279294545E+03 -0.28617632649E+02 -0.16917153968E+03  0.26857830529E+03  0.17313023650E+03 0.  0.
         24    2    3    3    0    0  0.19225455801E+02 -0.30186599382E+02 -0.16276863746E+02  0.89256782026E+02  0.80131067079E+02 0.  0.
         -6    2    1    2    0  502 -0.11279294545E+03  0.28617632649E+02 -0.17961525379E+03  0.27443539254E+03  0.17179036015E+03 0.  0.
        -24    2    5    5    0    0 -0.14382392668E+03  0.45478558270E+02 -0.13492078620E+03  0.21727860780E+03  0.79074355581E+02 0.  0.
          5    1    3    3  501    0  0.93567489651E+02  0.15689667331E+01 -0.15289467593E+03  0.17932152326E+03  0.47000000000E+01 0. -1.
        -13    1    4    4    0    0 -0.76787120830E+01  0.21020348569E+02 -0.21682762281E+02  0.31160228712E+02  0.00000000000E+00 0.  1.
         14    1    4    4    0    0  0.26904167884E+02 -0.51206947951E+02  0.54058985354E+01  0.58096553314E+02  0.00000000000E+00 0. -1.
         -5    1    5    5    0  502  0.31030981226E+02 -0.16860925621E+02 -0.44694467590E+02  0.57156784740E+02  0.47000000000E+01 0.  1.
         11    1    6    6    0    0 -0.57951669534E+02  0.20895464974E+02 -0.10739966812E+03  0.12381318658E+03  0.00000000000E+00 0. -1.
        -12    1    6    6    0    0 -0.85872257144E+02  0.24583093296E+02 -0.27521118073E+02  0.93465421215E+02  0.00000000000E+00 0.  1.
</event>
<event>
12    1  0.8135779E-002  0.1801823E+03  0.7818608E-02  0.1169014E+00
         21   -1    0    0  501  502  0.00000000000E+00  0.00000000000E+00  0.22622846721E+02  0.22622846721E+02  0.00000000000E+00 0.  1.
         21   -1    0    0  502  503 -0.00000000000E+00 -0.00000000000E+00 -0.15475166026E+04  0.15475166026E+04  0.00000000000E+00 0.  1.
         -6    2    1    2    0  503 -0.23727171102E+02  0.19058455402E+02 -0.52328358039E+03  0.55343597435E+03  0.17759354951E+03 0.  0.
        -24    2    3    3    0    0 -0.73200488055E+02  0.41934677477E+02 -0.26412415594E+03  0.28856500971E+03  0.79946022117E+02 0.  0.
          6    2    1    2  501    0  0.23727171102E+02 -0.19058455402E+02 -0.10016101755E+04  0.10167034750E+04  0.17186276213E+03 0.  0.
         24    2    5    5    0    0 -0.39911267504E+02  0.28663378950E+02 -0.55651541330E+03  0.56453242142E+03  0.81073738212E+02 0.  0.
          5    1    5    5  501    0  0.63638438606E+02 -0.47721834352E+02 -0.44509476223E+03  0.45217105359E+03  0.47000000000E+01 0. -1.
        -13    1    6    6    0    0 -0.25596682311E+02 -0.30376582391E+01 -0.47755654714E+03  0.47825168398E+03  0.00000000000E+00 0.  1.
         14    1    6    6    0    0 -0.14314585194E+02  0.31701037189E+02 -0.78958866163E+02  0.86280737444E+02  0.00000000000E+00 0. -1.
         -5    1    3    3    0  503  0.49473316953E+02 -0.22876222075E+02 -0.25915942445E+03  0.26487096464E+03  0.47000000000E+01 0.  1.
         11    1    4    4    0    0 -0.37932741279E+02  0.10135198747E+02 -0.22086608331E+03  0.22432886990E+03  0.00000000000E+00 0. -1.
        -12    1    4    4    0    0 -0.35267746776E+02  0.31799478730E+02 -0.43258072632E+02  0.64236139813E+02  0.00000000000E+00 0.  1.
</event>
<event>
12    1  0.8135779E-002  0.1805675E+03  0.7818608E-02  0.1167299E+00
         21   -1    0    0  501  502  0.00000000000E+00  0.00000000000E+00  0.34538234613E+03  0.34538234613E+03  0.00000000000E+00 0. -1.
         21   -1    0    0  502  503 -0.00000000000E+00 -0.00000000000E+00 -0.10277593938E+03  0.10277593938E+03  0.00000000000E+00 0. -1.
         -6    2    1    2    0  503 -0.35902689536E+02 -0.47048998394E+02  0.56917497339E+02  0.18915055152E+03  0.17039870384E+03 0.  0.
        -24    2    3    3    0    0  0.40006074806E+02 -0.53636824018E+02  0.36752491343E+02  0.11019323763E+03  0.79463256203E+02 0.  0.
          6    2    1    2  501    0  0.35902689536E+02  0.47048998394E+02  0.18568890941E+03  0.25900773398E+03  0.17059315291E+03 0.  0.
         24    2    5    5    0    0 -0.21302720439E+02  0.28695989148E+02  0.25143611957E+02  0.87525447983E+02  0.75836911403E+02 0.  0.
          5    1    5    5  501    0  0.57205409975E+02  0.18353009246E+02  0.16054529745E+03  0.17148228600E+03  0.47000000000E+01 0. -1.
        -11    1    6    6    0    0  0.10421222046E+02  0.35495992743E+02 -0.11348728429E+02  0.38695749207E+02  0.00000000000E+00 0.  1.
         12    1    6    6    0    0 -0.31723942485E+02 -0.68000035949E+01  0.36492340387E+02  0.48829698776E+02  0.00000000000E+00 0. -1.
         -5    1    3    3    0  503 -0.75908764343E+02  0.65878256242E+01  0.20165005996E+02  0.78957313894E+02  0.47000000000E+01 0.  1.
         11    1    4    4    0    0  0.27635851172E+02 -0.14324311911E+02 -0.22221716613E+02  0.38245664734E+02  0.00000000000E+00 0. -1.
        -12    1    4    4    0    0  0.12370223635E+02 -0.39312512107E+02  0.58974207956E+02  0.71947572892E+02  0.00000000000E+00 0.  1.
</event>
<event>
12    1  0.8135779E-002  0.1964112E+03  0.7818608E-02  0.1153097E+00
         21   -1    0    0  501  502  0.00000000000E+00  0.00000000000E+00  0.40523664703E+03  0.40523664703E+03  0.00000000000E+00 0. -1.
         21   -1    0    0  502  503 -0.00000000000E+00 -0.00000000000E+00 -0.96097767239E+02  0.96097767239E+02  0.00000000000E+00 0. -1.
         -6    2    1    2    0  503 -0.58923520589E+02  0.72221593436E+02  0.12318955848E+03  0.23184697087E+03  0.17288554233E+03 0.  0.
        -24    2    3    3    0    0 -0.57446497024E+02  0.10579989332E+03  0.13386718639E+03  0.19626909067E+03  0.78149951468E+02 0.  0.
          6    2    1    2  501    0  0.58923520589E+02 -0.72221593436E+02  0.18594932131E+03  0.26948744340E+03  0.17134290828E+03 0.  0.
         24    2    5    5    0    0  0.57842339718E+02 -0.11182451400E+03  0.15198523588E+03  0.21709269778E+03  0.90439312848E+02 0.  0.
          5    1    5    5  501    0  0.10811808703E+01  0.39602920564E+02  0.33964085430E+02  0.52394745618E+02  0.47000000000E+01 0. -1.
        -11    1    6    6    0    0  0.23671822264E+02 -0.11652283845E+03  0.13006928848E+03  0.17622697539E+03  0.00000000000E+00 0.  1.
         12    1    6    6    0    0  0.34170517454E+02  0.46983244524E+01  0.21915947397E+02  0.40865722385E+02  0.00000000000E+00 0. -1.
         -5    1    3    3    0  503 -0.14770235644E+01 -0.33578299885E+02 -0.10677627908E+02  0.35577880200E+02  0.47000000000E+01 0.  1.
         13    1    4    4    0    0 -0.60524741577E+02  0.30631765013E+02  0.71378800316E+02  0.98470719025E+02  0.00000000000E+00 0. -1.
        -14    1    4    4    0    0  0.30782445528E+01  0.75168128307E+02  0.62488386075E+02  0.97798371648E+02  0.00000000000E+00 0.  1.
</event>
<event>
12    1  0.8135779E-002  0.1955540E+03  0.7818608E-02  0.1153588E+00
         21   -1    0    0  501  502  0.00000000000E+00  0.00000000000E+00  0.55303611860E+02  0.55303611860E+02  0.00000000000E+00 0. -1.
         21   -1    0    0  502  503 -0.00000000000E+00 -0.00000000000E+00 -0.75666822384E+03  0.75666822384E+03  0.00000000000E+00 0. -1.
         -6    2    1    2    0  503 -0.82483691482E+02 -0.43047283005E+02 -0.47063823696E+03  0.50964860368E+03  0.17200209651E+03 0.  0.
        -24    2    3    3    0    0 -0.10864189409E+03  0.67447646965E+00 -0.26627723434E+03  0.29897978014E+03  0.81742445141E+02 0.  0.
          6    2    1    2  501    0  0.82483691482E+02  0.43047283005E+02 -0.23072637502E+03  0.30232323202E+03  0.17177906903E+03 0.  0.
         24    2    5    5    0    0  0.73397327013E+02  0.92100421042E+02 -0.19253041542E+03  0.23931693313E+03  0.79592577868E+02 0.  0.
          5    1    5    5  501    0  0.90863644695E+01 -0.49053138037E+02 -0.38195959591E+02  0.63006298889E+02  0.47000000000E+01 0. -1.
        -13    1    6    6    0    0 -0.10173526066E+02  0.15813656176E+02 -0.36775009191E+01  0.19159759061E+02  0.00000000000E+00 0.  1.
         14    1    6    6    0    0  0.83570853078E+02  0.76286764866E+02 -0.18885291451E+03  0.22015717407E+03  0.00000000000E+00 0. -1.
         -5    1    3    3    0  503  0.26158202610E+02 -0.43721759475E+02 -0.20436100262E+03  0.21066882353E+03  0.47000000000E+01 0.  1.
         13    1    4    4    0    0 -0.51263434043E+02  0.21129435129E+02 -0.51299612767E+02  0.75538354290E+02  0.00000000000E+00 0. -1.
        -14    1    4    4    0    0 -0.57378460049E+02 -0.20454958659E+02 -0.21497762157E+03  0.22344142585E+03  0.00000000000E+00 0.  1.
</event>
<event>
12    1  0.8135779E-002  0.2031206E+03  0.7818608E-02  0.1147189E+00
         21   -1    0    0  501  502  0.00000000000E+00  0.00000000000E+00  0.13476670308E+04  0.13476670308E+04  0.00000000000E+00 0.  1.
         21   -1    0    0  502  503 -0.00000000000E+00 -0.00000000000E+00 -0.31175338547E+02  0.31175338547E+02  0.00000000000E+00 0.  1.
         -6    2    1    2    0  503  0.55638167959E+02  0.92169361545E+02  0.56288759536E+03  0.59841491038E+03  0.17224158330E+03 0.  0.
        -24    2    3    3    0    0  0.93466903251E+02  0.84967562879E+02  0.51782150588E+03  0.53895129513E+03  0.79836318977E+02 0.  0.
          6    2    1    2  501    0 -0.55638167959E+02 -0.92169361545E+02  0.75360409695E+03  0.78042745901E+03  0.17192174647E+03 0.  0.
         24    2    5    5    0    0 -0.20147851609E+02 -0.11903360435E+03  0.41553195306E+03  0.43940529761E+03  0.76388982621E+02 0.  0.
          5    1    5    5  501    0 -0.35490316350E+02  0.26864242806E+02  0.33807214389E+03  0.34102216140E+03  0.47000000000E+01 0. -1.
        -13    1    6    6    0    0 -0.48678423104E+02 -0.59751976692E+02  0.22257547524E+03  0.23554135470E+03  0.00000000000E+00 0.  1.
         14    1    6    6    0    0  0.28530571495E+02 -0.59281627659E+02  0.19295647782E+03  0.20386394291E+03  0.00000000000E+00 0. -1.
         -5    1    3    3    0  503 -0.37828735292E+02  0.72017986657E+01  0.45066089476E+02  0.59463615249E+02  0.47000000000E+01 0.  1.
         13    1    4    4    0    0  0.66623527275E+01 -0.12412233321E+02  0.10678561161E+03  0.10771080413E+03  0.00000000000E+00 0. -1.
        -14    1    4    4    0    0  0.86804550524E+02  0.97379796200E+02  0.41103589427E+03  0.43124049100E+03  0.00000000000E+00 0.  1.
</event>
<event>
12    1  0.8135779E-002  0.2397171E+03  0.7818608E-02  0.1120139E+00
         21   -1    0    0  501  502  0.00000000000E+00  0.00000000000E+00  0.19104189890E+03  0.19104189890E+03  0.00000000000E+00 0. -1.
         21   -1    0    0  502  503 -0.00000000000E+00 -0.00000000000E+00 -0.33939043503E+03  0.33939043503E+03  0.00000000000E+00 0. -1.
         -6    2    1    2    0  503 -0.74565028449E+02  0.14848779607E+03 -0.16510106602E+03  0.29107154682E+03  0.17278806185E+03 0.  0.
        -24    2    3    3    0    0 -0.41091423255E+02  0.14437059577E+02 -0.11066236620E+03  0.14249246270E+03  0.78492094379E+02 0.  0.
          6    2    1    2  501    0  0.74565028449E+02 -0.14848779607E+03  0.16752529892E+02  0.23936078711E+03  0.17147702499E+03 0.  0.
         24    2    5    5    0    0 -0.19009102317E+02 -0.10929436607E+02  0.16109232129E+02  0.72924841361E+02  0.67658898692E+02 0.  0.
          5    1    5    5  501    0  0.93574130766E+02 -0.13755835946E+03  0.64329776331E+00  0.16643594575E+03  0.47000000000E+01 0. -1.
        -13    1    6    6    0    0 -0.11768698296E+02  0.44226223288E+00 -0.26089812258E+02  0.28624747320E+02  0.00000000000E+00 0.  1.
         14    1    6    6    0    0 -0.72404040207E+01 -0.11371698840E+02  0.42199044387E+02  0.44300094041E+02  0.00000000000E+00 0. -1.
         -5    1    3    3    0  503 -0.33473605194E+02  0.13405073649E+03 -0.54438699824E+02  0.14857908412E+03  0.47000000000E+01 0.  1.
         11    1    4    4    0    0 -0.35117336614E+02  0.41582353056E+02 -0.43065798987E+02  0.69404484430E+02  0.00000000000E+00 0. -1.
        -12    1    4    4    0    0 -0.59740866403E+01 -0.27145293479E+02 -0.67596567210E+02  0.73087978272E+02  0.00000000000E+00 0.  1.
</event>
<event>
12    1  0.8135779E-002  0.2030413E+03  0.7818608E-02  0.1147262E+00
         21   -1    0    0  501  502  0.00000000000E+00  0.00000000000E+00  0.21281758263E+03  0.21281758263E+03  0.00000000000E+00 0. -1.
         21   -1    0    0  502  503 -0.00000000000E+00 -0.00000000000E+00 -0.22333975787E+03  0.22333975787E+03  0.00000000000E+00 0.  1.
         -6    2    1    2    0  503  0.90833427922E+02 -0.56570114553E+02 -0.85076330060E+02  0.21986099662E+03  0.17219171411E+03 0.  0.
        -24    2    3    3    0    0  0.22198061365E+02 -0.12252188101E+02  0.20279410372E+02  0.86456295842E+02  0.80128437924E+02 0.  0.
          6    2    1    2  501    0 -0.90833427922E+02  0.56570114553E+02  0.74554154821E+02  0.21629634389E+03  0.17255404049E+03 0.  0.
         24    2    5    5    0    0 -0.84452317015E+02  0.92487740154E+02  0.18526853581E+02  0.14927438563E+03  0.79078580994E+02 0.  0.
          5    1    5    5  501    0 -0.63811109067E+01 -0.35917625601E+02  0.56027301239E+02  0.67021958263E+02  0.47000000000E+01 0. -1.
        -11    1    6    6    0    0 -0.63568102190E+02  0.38618023930E+02 -0.23304377361E+02  0.77944527662E+02  0.00000000000E+00 0.  1.
         12    1    6    6    0    0 -0.20884214825E+02  0.53869716224E+02  0.41831230942E+02  0.71329857963E+02  0.00000000000E+00 0. -1.
         -5    1    3    3    0  503  0.68635366557E+02 -0.44317926452E+02 -0.10535574043E+03  0.13340470078E+03  0.47000000000E+01 0.  1.
         13    1    4    4    0    0  0.46189841973E+02 -0.24640508118E+02  0.26605090572E+02  0.58723819581E+02  0.00000000000E+00 0. -1.
        -14    1    4    4    0    0 -0.23991780608E+02  0.12388320017E+02 -0.63256801999E+01  0.27732476261E+02  0.00000000000E+00 0.  1.
</event>
<event>
12    1  0.8135779E-002  0.1733397E+03  0.7818608E-02  0.1178506E+00
         21   -1    0    0  503  502  0.00000000000E+00  0.00000000000E+00  0.22337640386E+04  0.22337640386E+04  0.00000000000E+00 0.  1.
         21   -1    0    0  501  503 -0.00000000000E+00 -0.00000000000E+00 -0.17934129263E+02  0.17934129263E+02  0.00000000000E+00 0.  1.
          6    2    1    2  501    0  0.25480097147E+01 -0.18746049705E+02  0.44147269480E+03  0.46889414855E+03  0.15686196338E+03 0.  0.
         24    2    3    3    0    0  0.27186488847E+02 -0.43423724642E+02  0.18474415898E+03  0.20976546739E+03  0.85125918468E+02 0.  0.
         -6    2    1    2    0  502 -0.25480097147E+01  0.18746049705E+02  0.17743572146E+04  0.17828040193E+04  0.17230420705E+03 0.  0.
        -24    2    5    5    0    0 -0.57540493543E+02  0.20756895062E+02  0.72032403869E+03  0.72732486624E+03  0.79956133305E+02 0.  0.
          5    1    3    3  501    0 -0.24638479132E+02  0.24677674938E+02  0.25672853582E+03  0.25912868116E+03  0.47000000000E+01 0. -1.
        -11    1    4    4    0    0 -0.13754390143E+02 -0.54598632127E+02  0.93688069008E+02  0.10930529792E+03  0.00000000000E+00 0.  1.
         12    1    4    4    0    0  0.40940878990E+02  0.11174907485E+02  0.91056089973E+02  0.10046016947E+03  0.00000000000E+00 0. -1.
         -5    1    5    5    0  502  0.54992483828E+02 -0.20108453569E+01  0.10540331759E+04  0.10554791531E+04  0.47000000000E+01 0.  1.
         11    1    6    6    0    0 -0.46326170848E+02  0.86436631680E+01  0.69785246622E+03  0.69944184292E+03  0.00000000000E+00 0. -1.
        -12    1    6    6    0    0 -0.11214322695E+02  0.12113231894E+02  0.22471572470E+02  0.27883023324E+02  0.00000000000E+00 0.  1.
</event>
<event>
12    1  0.8135779E-002  0.2007601E+03  0.7818608E-02  0.1149185E+00
         21   -1    0    0  503  502  0.00000000000E+00  0.00000000000E+00  0.10244970147E+04  0.10244970147E+04  0.00000000000E+00 0.  1.
         21   -1    0    0  501  503 -0.00000000000E+00 -0.00000000000E+00 -0.51633787387E+02  0.51633787387E+02  0.00000000000E+00 0.  1.
          6    2    1    2  501    0 -0.50449148792E+02  0.92862784743E+02  0.22341812689E+03  0.30036691745E+03  0.17069274230E+03 0.  0.
         24    2    3    3    0    0 -0.45642552223E+01  0.97973632573E+02  0.81237942646E+02  0.15080475976E+03  0.80763897471E+02 0.  0.
         -6    2    1    2    0  502  0.50449148792E+02 -0.92862784743E+02  0.74944510040E+03  0.77576388461E+03  0.17021466666E+03 0.  0.
        -24    2    5    5    0    0  0.39275485365E+02  0.46264349206E+01  0.49547208110E+03  0.50345269637E+03  0.80050400923E+02 0.  0.
          5    1    3    3  501    0 -0.45884893570E+02 -0.51108478293E+01  0.14218018424E+03  0.14956215770E+03  0.47000000000E+01 0. -1.
        -11    1    4    4    0    0 -0.40642002503E+02  0.64567655598E+02  0.37563255041E+02  0.85039712172E+02  0.00000000000E+00 0.  1.
         12    1    4    4    0    0  0.36077747281E+02  0.33405976974E+02  0.43674687605E+02  0.65765047585E+02  0.00000000000E+00 0. -1.
         -5    1    5    5    0  502  0.11173663427E+02 -0.97489219664E+02  0.25397301931E+03  0.27231118824E+03  0.47000000000E+01 0.  1.
         13    1    6    6    0    0  0.25589964987E+02  0.11510698911E+02  0.48267926160E+03  0.48349416964E+03  0.00000000000E+00 0. -1.
        -14    1    6    6    0    0  0.13685520378E+02 -0.68842639906E+01  0.12792819500E+02  0.19958526735E+02  0.00000000000E+00 0.  1.
</event>
<event>
12    1  0.8135779E-002  0.2957099E+03  0.7818608E-02  0.1087482E+00
         21   -1    0    0  503  502  0.00000000000E+00  0.00000000000E+00  0.33309005010E+03  0.33309005010E+03  0.00000000000E+00 0. -1.
         21   -1    0    0  501  503 -0.00000000000E+00 -0.00000000000E+00 -0.34436069300E+03  0.34436069300E+03  0.00000000000E+00 0.  1.
          6    2    1    2  501    0 -0.17622190010E+03  0.16422826648E+03 -0.17129648237E+03  0.34121778164E+03  0.17047582835E+03 0.  0.
         24    2    3    3    0    0 -0.16988271604E+02  0.34550030892E+02 -0.64306822962E+02  0.10961322545E+03  0.79983659001E+02 0.  0.
         -6    2    1    2    0  502  0.17622190010E+03 -0.16422826648E+03  0.16002583947E+03  0.33623296147E+03  0.17152041714E+03 0.  0.
        -24    2    5    5    0    0  0.54512043950E+02 -0.55738942967E+02  0.12888291021E+03  0.17017515695E+03  0.79185773969E+02 0.  0.
          5    1    3    3  501    0 -0.15923362849E+03  0.12967823559E+03 -0.10698965941E+03  0.23160455619E+03  0.47000000000E+01 0. -1.
        -13    1    4    4    0    0  0.62637334310E+01  0.36181050457E+02  0.44733475900E+01  0.36990723261E+02  0.00000000000E+00 0.  1.
         14    1    4    4    0    0 -0.23252005035E+02 -0.16310195659E+01 -0.68780170552E+02  0.72622502188E+02  0.00000000000E+00 0. -1.
         -5    1    5    5    0  502  0.12170985615E+03 -0.10848932352E+03  0.31142929259E+02  0.16605780452E+03  0.47000000000E+01 0.  1.
         11    1    6    6    0    0  0.74284560325E+02 -0.37025314268E+02  0.10587409701E+03  0.13453027249E+03  0.00000000000E+00 0. -1.
        -12    1    6    6    0    0 -0.19772516375E+02 -0.18713628699E+02  0.23008813202E+02  0.35644884455E+02  0.00000000000E+00 0.  1.
</event>
<event>
12    1  0.8135779E-002  0.1761108E+03  0.7818608E-02  0.1172023E+00
         21   -1    0    0  503  502  0.00000000000E+00  0.00000000000E+00  0.16099540611E+03  0.16099540611E+03  0.00000000000E+00 0. -1.
         21   -1    0    0  501  503 -0.00000000000E+00 -0.00000000000E+00 -0.32665638181E+03  0.32665638181E+03  0.00000000000E+00 0. -1.
          6    2    1    2  501    0  0.24739098996E+02  0.17620632119E+02 -0.23979827078E+03  0.29657237071E+03  0.17184135331E+03 0.  0.
         24    2    3    3    0    0 -0.18079336094E+01  0.72932006464E+02 -0.17467076988E+03  0.20697452227E+03  0.83703218753E+02 0.  0.
         -6    2    1    2    0  502 -0.24739098996E+02 -0.17620632119E+02  0.74137295068E+02  0.19107941720E+03  0.17347188667E+03 0.  0.
        -24    2    5    5    0    0 -0.41854094456E+01  0.52799717719E+02  0.20852494255E+02  0.10028933061E+03  0.82569942927E+02 0.  0.
          5    1    3    3  501    0  0.26547032605E+02 -0.55311374345E+02 -0.65127500896E+02  0.89597848440E+02  0.47000000000E+01 0. -1.
        -13    1    4    4    0    0 -0.26222183800E+02  0.12614082829E+02 -0.11466647966E+02  0.31276221390E+02  0.00000000000E+00 0.  1.
         14    1    4    4    0    0  0.24414250191E+02  0.60317923635E+02 -0.16320412191E+03  0.17569830088E+03  0.00000000000E+00 0. -1.
         -5    1    5    5    0  502 -0.20553689550E+02 -0.70420349838E+02  0.53284800813E+02  0.90790086590E+02  0.47000000000E+01 0.  1.
         13    1    6    6    0    0  0.15913921504E+01  0.42242129497E+02  0.51931687922E+02  0.66961408616E+02  0.00000000000E+00 0. -1.
        -14    1    6    6    0    0 -0.57768015960E+01  0.10557588222E+02 -0.31079193667E+02  0.33327921999E+02  0.00000000000E+00 0.  1.
</event>
<event>
12    1  0.8135779E-002  0.2127084E+03  0.7818608E-02  0.1139545E+00
         21   -1    0    0  503  502  0.00000000000E+00  0.00000000000E+00  0.39425443701E+03  0.39425443701E+03  0.00000000000E+00 0.  1.
         21   -1    0    0  501  503 -0.00000000000E+00 -0.00000000000E+00 -0.13047537544E+03  0.13047537544E+03  0.00000000000E+00 0. -1.
          6    2    1    2  501    0 -0.43552515594E+02  0.11695748679E+03  0.40137646489E+02  0.21646222737E+03  0.17224688642E+03 0.  0.
         24    2    3    3    0    0 -0.53018591823E+02  0.25397229198E+02  0.67783553337E+02  0.12023710833E+03  0.80039751289E+02 0.  0.
         -6    2    1    2    0  502  0.43552515594E+02 -0.11695748679E+03  0.22364141508E+03  0.30826758507E+03  0.17157373381E+03 0.  0.
        -24    2    5    5    0    0 -0.36426008542E+02 -0.92127861088E+02  0.11759246772E+03  0.17305832551E+03  0.79415355413E+02 0.  0.
          5    1    3    3  501    0  0.94660762290E+01  0.91560257594E+02 -0.27645906848E+02  0.96225119046E+02  0.47000000000E+01 0. -1.
        -13    1    4    4    0    0 -0.69396826956E+02  0.64599650122E+01  0.64541413129E+02  0.94990761384E+02  0.00000000000E+00 0.  1.
         14    1    4    4    0    0  0.16378235134E+02  0.18937264186E+02  0.32421402083E+01  0.25246346945E+02  0.00000000000E+00 0. -1.
         -5    1    5    5    0  502  0.79978524136E+02 -0.24829625704E+02  0.10604894736E+03  0.13520925956E+03  0.47000000000E+01 0.  1.
         11    1    6    6    0    0  0.17221253279E+02 -0.15690445856E+02  0.52011767839E+00  0.23303050832E+02  0.00000000000E+00 0. -1.
        -12    1    6    6    0    0 -0.53647261821E+02 -0.76437415232E+02  0.11707235005E+03  0.14975527468E+03  0.00000000000E+00 0.  1.
</event>
<event>
12    1  0.8135779E-002  0.2062233E+03  0.7818608E-02  0.1144608E+00
         21   -1    0    0  503  502  0.00000000000E+00  0.00000000000E+00  0.66066619863E+03  0.66066619863E+03  0.00000000000E+00 0. -1.
         21   -1    0    0  501  503 -0.00000000000E+00 -0.00000000000E+00 -0.19328102254E+03  0.19328102254E+03  0.00000000000E+00 0. -1.
          6    2    1    2  501    0  0.76558653939E+02  0.81862383818E+02 -0.11505196981E+03  0.23607903883E+03  0.17301352387E+03 0.  0.
         24    2    3    3    0    0  0.10796535051E+03  0.18612450933E+02 -0.73547385952E+02  0.15403237479E+03  0.79459513361E+02 0.  0.
         -6    2    1    2    0  502 -0.76558653939E+02 -0.81862383818E+02  0.58243714590E+03  0.61786818234E+03  0.17310512542E+03 0.  0.
        -24    2    5    5    0    0 -0.81277957510E+02 -0.11477018142E+03  0.54081689973E+03  0.56439361024E+03  0.79239682805E+02 0.  0.
          5    1    3    3  501    0 -0.31406696567E+02  0.63249932885E+02 -0.41504583859E+02  0.82046664042E+02  0.47000000000E+01 0. -1.
        -11    1    4    4    0    0  0.18757720121E+02  0.28110761573E+02  0.57716125057E+01  0.34283793420E+02  0.00000000000E+00 0.  1.
         12    1    4    4    0    0  0.89207630384E+02 -0.94983106401E+01 -0.79318998457E+02  0.11974858137E+03  0.00000000000E+00 0. -1.
         -5    1    5    5    0  502  0.47193035708E+01  0.32907797607E+02  0.41620246169E+02  0.53474572095E+02  0.47000000000E+01 0.  1.
         13    1    6    6    0    0 -0.21901909492E+01 -0.56442520723E+02  0.12577213389E+03  0.13787380007E+03  0.00000000000E+00 0. -1.
        -14    1    6    6    0    0 -0.79087766560E+02 -0.58327660702E+02  0.41504476584E+03  0.42651981018E+03  0.00000000000E+00 0.  1.
</event>
<event>
12    1  0.8135779E-002  0.2147614E+03  0.7818608E-02  0.1138092E+00
         21   -1    0    0  503  502  0.00000000000E+00  0.00000000000E+00  0.38585413555E+03  0.38585413555E+03  0.00000000000E+00 0. -1.
         21   -1    0    0  501  503 -0.00000000000E+00 -0.00000000000E+00 -0.19863964305E+03  0.19863964305E+03  0.00000000000E+00 0. -1.
          6    2    1    2  501    0 -0.11658970590E+02 -0.12441617869E+03 -0.91465164053E+02  0.23342735228E+03  0.17466291948E+03 0.  0.
         24    2    3    3    0    0  0.58969800484E+02 -0.92970816799E+02 -0.67921786541E+02  0.15247295331E+03  0.80707014932E+02 0.  0.
         -6    2    1    2    0  502  0.11658970590E+02  0.12441617869E+03  0.27867965656E+03  0.35106642632E+03  0.17311836296E+03 0.  0.
        -24    2    5    5    0    0  0.20504262887E+02  0.13972744863E+03  0.14140252165E+03  0.21257535819E+03  0.72452916323E+02 0.  0.
          5    1    3    3  501    0 -0.70628771074E+02 -0.31445361893E+02 -0.23543377511E+02  0.80954398971E+02  0.47000000000E+01 0. -1.
        -13    1    4    4    0    0  0.61482477847E+02 -0.63894056784E+02 -0.12114162993E+02  0.89494684309E+02  0.00000000000E+00 0.  1.
         14    1    4    4    0    0 -0.25126773628E+01 -0.29076760015E+02 -0.55807623548E+02  0.62978269003E+02  0.00000000000E+00 0. -1.
         -5    1    5    5    0  502 -0.88452922976E+01 -0.15311269937E+02  0.13727713491E+03  0.13849106813E+03  0.47000000000E+01 0.  1.
         13    1    6    6    0    0 -0.15458805076E+02  0.79207575463E+02  0.10754702240E+03  0.13445882899E+03  0.00000000000E+00 0. -1.
        -14    1    6    6    0    0  0.35963067963E+02  0.60519873166E+02  0.33855499247E+02  0.78116529202E+02  0.00000000000E+00 0.  1.
</event>
<event>
12    1  0.8135779E-002  0.1843701E+03  0.7818608E-02  0.1164095E+00
         21   -1    0    0  501  502  0.00000000000E+00  0.00000000000E+00  0.51715909987E+03  0.51715909987E+03  0.00000000000E+00 0. -1.
         21   -1    0    0  502  503 -0.00000000000E+00 -0.00000000000E+00 -0.73072836420E+02  0.73072836420E+02  0.00000000000E+00 0. -1.
         -6    2    1    2    0  503 -0.43763457835E+02 -0.50947663357E+02  0.12316426917E+03  0.22011944721E+03  0.16962378723E+03 0.  0.
        -24    2    3    3    0    0 -0.28098389717E+02 -0.85537065339E+02  0.13469283410E+03  0.18015923077E+03  0.78797714577E+02 0.  0.
          6    2    1    2  501    0  0.43763457835E+02  0.50947663357E+02  0.32092199427E+03  0.37011248908E+03  0.17170155363E+03 0.  0.
         24    2    5    5    0    0  0.13317305904E+02  0.30653170833E+02  0.56045498499E+02  0.10267935237E+03  0.79277890883E+02 0.  0.
          5    1    5    5  501    0  0.30446151931E+02  0.20294492524E+02  0.26487649577E+03  0.26743313671E+03  0.47000000000E+01 0. -1.
        -13    1    6    6    0    0  0.15114970363E+02 -0.22499523357E+02  0.25159024737E+01  0.27221694392E+02  0.00000000000E+00 0.  1.
         14    1    6    6    0    0 -0.17976644587E+01  0.53152694190E+02  0.53529596025E+02  0.75457657980E+02  0.00000000000E+00 0. -1.
         -5    1    3    3    0  503 -0.15665068119E+02  0.34589401982E+02 -0.11528564926E+02  0.39960216439E+02  0.47000000000E+01 0.  1.
         13    1    4    4    0    0 -0.11256014654E+02  0.12436362472E+02  0.66211737125E+01  0.18033328000E+02  0.00000000000E+00 0. -1.
        -14    1    4    4    0    0 -0.16842375062E+02 -0.97973427811E+02  0.12807166039E+03  0.16212590277E+03  0.00000000000E+00 0.  1.
</event>
<event>
12    1  0.8135779E-002  0.1735695E+03  0.7818608E-02  0.1174362E+00
         21   -1    0    0  501  502  0.00000000000E+00  0.00000000000E+00  0.32128964952E+02  0.32128964952E+02  0.00000000000E+00 0. -1.
         21   -1    0    0  502  503 -0.00000000000E+00 -0.00000000000E+00 -0.13533667420E+04  0.13533667420E+04  0.00000000000E+00 0. -1.
         -6    2    1    2    0  503  0.24334325725E+02 -0.68890243538E+01 -0.10454110143E+04  0.10596019045E+04  0.17097482017E+03 0.  0.
        -24    2    3    3    0    0  0.47083886406E+02  0.40995198595E+02 -0.89648113130E+03  0.90144805102E+03  0.70941322600E+02 0.  0.
          6    2    1    2  501    0 -0.24334325725E+02  0.68890243538E+01 -0.27582676277E+03  0.32589380248E+03  0.17171706196E+03 0.  0.
         24    2    5    5    0    0  0.45961231857E+02 -0.23774909716E+02 -0.18400636798E+03  0.20616570566E+03  0.77254602232E+02 0.  0.
          5    1    5    5  501    0 -0.70295557583E+02  0.30663934070E+02 -0.91820394794E+02  0.11972809682E+03  0.47000000000E+01 0. -1.
        -11    1    6    6    0    0  0.29499530959E+02  0.23702434198E+02 -0.47673933444E+02  0.60867328212E+02  0.00000000000E+00 0.  1.
         12    1    6    6    0    0  0.16461700899E+02 -0.47477343914E+02 -0.13633243453E+03  0.14529837744E+03  0.00000000000E+00 0. -1.
         -5    1    3    3    0  503 -0.22749560680E+02 -0.47884222949E+02 -0.14892988300E+03  0.15815385348E+03  0.47000000000E+01 0.  1.
         11    1    4    4    0    0 -0.74010137010E+01 -0.14459340660E+02 -0.12246822415E+03  0.12354073605E+03  0.00000000000E+00 0. -1.
        -12    1    4    4    0    0  0.54484900107E+02  0.55454539255E+02 -0.77401290714E+03  0.77790731497E+03  0.00000000000E+00 0.  1.
</event>
<event>
12    1  0.8135779E-002  0.1788398E+03  0.7818608E-02  0.1170222E+00
         21   -1    0    0  501  502  0.00000000000E+00  0.00000000000E+00  0.25080402887E+03  0.25080402887E+03  0.00000000000E+00 0. -1.
         21   -1    0    0  502  503 -0.00000000000E+00 -0.00000000000E+00 -0.13159636002E+03  0.13159636002E+03  0.00000000000E+00 0. -1.
         -6    2    1    2    0  503  0.41564870600E+02 -0.28827407562E+02  0.10685896930E+03  0.20833273122E+03  0.17153725451E+03 0.  0.
        -24    2    3    3    0    0  0.31837654559E+02 -0.38341939366E+02 -0.75745783336E+01  0.92997255883E+02  0.78149694834E+02 0.  0.
          6    2    1    2  501    0 -0.41564870600E+02  0.28827407562E+02  0.12348699548E+02  0.17406765768E+03  0.16609756523E+03 0.  0.
         24    2    5    5    0    0 -0.19223743634E+02  0.29604963173E+02 -0.54703142558E+02  0.10323143759E+03  0.80114229303E+02 0.  0.
          5    1    5    5  501    0 -0.22341126966E+02 -0.77755561102E+00  0.67051842106E+02  0.70836220090E+02  0.47000000000E+01 0. -1.
        -13    1    6    6    0    0 -0.11976002633E+02  0.13630179582E+02  0.19703466562E+02  0.26784940341E+02  0.00000000000E+00 0.  1.
         14    1    6    6    0    0 -0.72477410014E+01  0.15974783591E+02 -0.74406609120E+02  0.76446497246E+02  0.00000000000E+00 0. -1.
         -5    1    3    3    0  503  0.97272160414E+01  0.95145318034E+01  0.11443354764E+03  0.11533547534E+03  0.47000000000E+01 0.  1.
         13    1    4    4    0    0  0.42604223136E+02 -0.19139923288E+02  0.25539879887E+02  0.53232902957E+02  0.00000000000E+00 0. -1.
        -14    1    4    4    0    0 -0.10766568578E+02 -0.19202016077E+02 -0.33114458221E+02  0.39764352926E+02  0.00000000000E+00 0.  1.
</event>
<event>
12    1  0.8135779E-002  0.2026936E+03  0.7818608E-02  0.1147764E+00
         21   -1    0    0  503  502  0.00000000000E+00  0.00000000000E+00  0.13999187391E+03  0.13999187391E+03  0.00000000000E+00 0.  1.
         21   -1    0    0  501  503 -0.00000000000E+00 -0.00000000000E+00 -0.34882057778E+03  0.34882057778E+03  0.00000000000E+00 0. -1.
          6    2    1    2  501    0  0.40706182059E+02 -0.98865654035E+02 -0.20315686289E+03  0.28603952873E+03  0.17062968749E+03 0.  0.
         24    2    3    3    0    0 -0.24744061310E+02 -0.89291967176E+01 -0.12324352600E+03  0.14899744715E+03  0.79493857830E+02 0.  0.
         -6    2    1    2    0  502 -0.40706182059E+02  0.98865654035E+02 -0.56718409805E+01  0.20277292295E+03  0.17220127089E+03 0.  0.
        -24    2    5    5    0    0  0.14562906823E+02 -0.53694251517E+01 -0.20379660945E+02  0.83785386266E+02  0.79773124484E+02 0.  0.
          5    1    3    3  501    0  0.65450243370E+02 -0.89936457318E+02 -0.79913336886E+02  0.13704208158E+03  0.47000000000E+01 0. -1.
        -13    1    4    4    0    0  0.19588444960E+02 -0.26773837233E+02 -0.32511313896E+02  0.46449231074E+02  0.00000000000E+00 0.  1.
         14    1    4    4    0    0 -0.44332506271E+02  0.17844640515E+02 -0.90732212104E+02  0.10254821608E+03  0.00000000000E+00 0. -1.
         -5    1    5    5    0  502 -0.55269088882E+02  0.10423507919E+03  0.14707819965E+02  0.11898753669E+03  0.47000000000E+01 0.  1.
         13    1    6    6    0    0 -0.15033539046E+02 -0.20647268152E+02 -0.38245274665E+02  0.45989324985E+02  0.00000000000E+00 0. -1.
        -14    1    6    6    0    0  0.29596445869E+02  0.15277843000E+02  0.17865613720E+02  0.37796061281E+02  0.00000000000E+00 0.  1.
</event>
<event>
12    1  0.8135779E-002  0.1895493E+03  0.7818608E-02  0.1159004E+00
         21   -1    0    0  503  502  0.00000000000E+00  0.00000000000E+00  0.12008467670E+03  0.12008467670E+03  0.00000000000E+00 0.  1.
         21   -1    0    0  501  503 -0.00000000000E+00 -0.00000000000E+00 -0.30639141344E+03  0.30639141344E+03  0.00000000000E+00 0.  1.
          6    2    1    2  501    0 -0.78265352912E+02 -0.12005564636E+02 -0.58539134747E+02  0.19838284194E+03  0.17221882194E+03 0.  0.
         24    2    3    3    0    0 -0.26875701525E+02  0.48650747808E+02 -0.66909566554E+02  0.11830638699E+03  0.80189229403E+02 0.  0.
         -6    2    1    2    0  502  0.78265352912E+02  0.12005564636E+02 -0.12776760200E+03  0.22809324820E+03  0.17155865091E+03 0.  0.
        -24    2    5    5    0    0  0.63816737543E+02  0.28889106980E+02 -0.87422029154E+01  0.10692001635E+03  0.80301352994E+02 0.  0.
          5    1    3    3  501    0 -0.51389651387E+02 -0.60656312443E+02  0.83704318063E+01  0.80076454951E+02  0.47000000000E+01 0. -1.
        -13    1    4    4    0    0 -0.50858904519E+02  0.25943121726E+02 -0.63042411031E+02  0.85053038290E+02  0.00000000000E+00 0.  1.
         14    1    4    4    0    0  0.23983202994E+02  0.22707626082E+02 -0.38671555229E+01  0.33253348703E+02  0.00000000000E+00 0. -1.
         -5    1    5    5    0  502  0.14448615370E+02 -0.16883542344E+02 -0.11902539908E+03  0.12117323184E+03  0.47000000000E+01 0.  1.
         13    1    6    6    0    0  0.42985533573E+01  0.44505598136E+02  0.38234563336E+00  0.44714337908E+02  0.00000000000E+00 0. -1.
        -14    1    6    6    0    0  0.59518184185E+02 -0.15616491156E+02 -0.91245485488E+01  0.62205678446E+02  0.00000000000E+00 0.  1.
</event>
<event>
12    1  0.8135779E-002  0.1839829E+03  0.7818608E-02  0.1164115E+00
         21   -1    0    0  501  502  0.00000000000E+00  0.00000000000E+00  0.42191074727E+03  0.42191074727E+03  0.00000000000E+00 0. -1.
         21   -1    0    0  502  503 -0.00000000000E+00 -0.00000000000E+00 -0.16765742040E+03  0.16765742040E+03  0.00000000000E+00 0.  1.
         -6    2    1    2    0  503  0.16337010395E+02 -0.61407876279E+02 -0.86074698335E+02  0.20269239066E+03  0.17215552957E+03 0.  0.
        -24    2    3    3    0    0 -0.27679969421E+02 -0.91682850081E+02 -0.36157592996E+02  0.12942660085E+03  0.79195629746E+02 0.  0.
          6    2    1    2  501    0 -0.16337010395E+02  0.61407876279E+02  0.34032802521E+03  0.38687577701E+03  0.17266116215E+03 0.  0.
         24    2    5    5    0    0 -0.45099826239E+02  0.10023695789E+03  0.24454408347E+03  0.27949025355E+03  0.78940173638E+02 0.  0.
          5    1    5    5  501    0  0.28762815844E+02 -0.38829081610E+02  0.95783941735E+02  0.10738552346E+03  0.47000000000E+01 0. -1.
        -13    1    6    6    0    0 -0.10211275263E+02 -0.11031231634E+02  0.54388656010E+02  0.56427689270E+02  0.00000000000E+00 0.  1.
         14    1    6    6    0    0 -0.34888550976E+02  0.11126818952E+03  0.19015542746E+03  0.22306256428E+03  0.00000000000E+00 0. -1.
         -5    1    3    3    0  503  0.44016979815E+02  0.30274973802E+02 -0.49917105338E+02  0.73265789808E+02  0.47000000000E+01 0.  1.
         13    1    4    4    0    0 -0.22080540761E+02 -0.17699462369E+02  0.21436415906E+02  0.35501284137E+02  0.00000000000E+00 0. -1.
        -14    1    4    4    0    0 -0.55994286596E+01 -0.73983387712E+02 -0.57594008903E+02  0.93925316716E+02  0.00000000000E+00 0.  1.
</event>
<event>
12    1  0.8135779E-002  0.2241514E+03  0.7818608E-02  0.1132225E+00
         21   -1    0    0  501  502  0.00000000000E+00  0.00000000000E+00  0.19734799103E+04  0.19734799103E+04  0.00000000000E+00 0.  1.
         21   -1    0    0  502  503 -0.00000000000E+00 -0.00000000000E+00 -0.54994146040E+02  0.54994146040E+02  0.00000000000E+00 0. -1.
         -6    2    1    2    0  503  0.13448216440E+03 -0.13535350241E+02  0.21274886984E+03  0.30904033390E+03  0.17881607341E+03 0.  0.
        -24    2    3    3    0    0  0.12622251312E+03 -0.59829420188E+02  0.11951602336E+03  0.20451370373E+03  0.89610785260E+02 0.  0.
          6    2    1    2  501    0 -0.13448216440E+03  0.13535350241E+02  0.17057368944E+04  0.17194337224E+04  0.16924926774E+03 0.  0.
         24    2    5    5    0    0 -0.98721292780E+02  0.33871334241E+02  0.69836118967E+03  0.71120741217E+03  0.84938041937E+02 0.  0.
          5    1    5    5  501    0 -0.35760871622E+02 -0.20335984000E+02  0.10073757048E+04  0.10082263103E+04  0.47000000000E+01 0. -1.
        -11    1    6    6    0    0 -0.91143332513E+02 -0.82384208691E+01  0.45464480349E+03  0.46376381487E+03  0.00000000000E+00 0.  1.
         12    1    6    6    0    0 -0.75779602664E+01  0.42109755110E+02  0.24371638617E+03  0.24744359730E+03  0.00000000000E+00 0. -1.
         -5    1    3    3    0  503  0.82596512770E+01  0.46294069947E+02  0.93232846478E+02  0.10452663017E+03  0.47000000000E+01 0.  1.
         13    1    4    4    0    0  0.59749444411E+02 -0.32195409616E+01  0.43529858588E+01  0.59994250035E+02  0.00000000000E+00 0. -1.
        -14    1    4    4    0    0  0.66473068714E+02 -0.56609879227E+02  0.11516303750E+03  0.14451945370E+03  0.00000000000E+00 0.  1.
</event>
<event>
12    1  0.8135779E-002  0.3407919E+03  0.7818608E-02  0.1066464E+00
         21   -1    0    0  503  502  0.00000000000E+00  0.00000000000E+00  0.35457320548E+03  0.35457320548E+03  0.00000000000E+00 0.  1.
         21   -1    0    0  501  503 -0.00000000000E+00 -0.00000000000E+00 -0.34198423555E+03  0.34198423555E+03  0.00000000000E+00 0.  1.
          6    2    1    2  501    0  0.27132509964E+03  0.11399091629E+03 -0.65381078913E+02  0.34700695926E+03  0.17183685751E+03 0.  0.
         24    2    3    3    0    0  0.21234720651E+03  0.57486114845E+02  0.11935013417E+02  0.23444118916E+03  0.80151338837E+02 0.  0.
         -6    2    1    2    0  502 -0.27132509964E+03 -0.11399091629E+03  0.77970048836E+02  0.34955048177E+03  0.17174100296E+03 0.  0.
        -24    2    5    5    0    0 -0.15796412136E+03 -0.79873279386E+02  0.11413090414E+03  0.22567787785E+03  0.81069333741E+02 0.  0.
          5    1    3    3  501    0  0.58977893136E+02  0.56504801443E+02 -0.77316092329E+02  0.11256577010E+03  0.47000000000E+01 0. -1.
        -11    1    4    4    0    0  0.17230195297E+03  0.48095635737E+02 -0.23147753952E+02  0.18038007564E+03  0.00000000000E+00 0.  1.
         12    1    4    4    0    0  0.40045253536E+02  0.93904791086E+01  0.35082767369E+02  0.54061113519E+02  0.00000000000E+00 0. -1.
         -5    1    5    5    0  502 -0.11336097828E+03 -0.34117636902E+02 -0.36160855308E+02  0.12387260392E+03  0.47000000000E+01 0.  1.
         13    1    6    6    0    0 -0.16020980707E+03 -0.90314794965E+02  0.10618196991E+03  0.21236420415E+03  0.00000000000E+00 0. -1.
        -14    1    6    6    0    0  0.22456857098E+01  0.10441515579E+02  0.79489342345E+01  0.13313673699E+02  0.00000000000E+00 0.  1.
</event>
<event>
12    1  0.8135779E-002  0.2045314E+03  0.7818608E-02  0.1145985E+00
         21   -1    0    0  501  502  0.00000000000E+00  0.00000000000E+00  0.50436399798E+03  0.50436399798E+03  0.00000000000E+00 0.  1.
         21   -1    0    0  502  503 -0.00000000000E+00 -0.00000000000E+00 -0.18583258412E+03  0.18583258412E+03  0.00000000000E+00 0. -1.
         -6    2    1    2    0  503 -0.10458035304E+03  0.24744914065E+02 -0.97564456085E+02  0.22654925187E+03  0.17394360987E+03 0.  0.
        -24    2    3    3    0    0 -0.27936643660E+01 -0.33085045798E+02 -0.50920538979E+02  0.10044382275E+03  0.79960211502E+02 0.  0.
          6    2    1    2  501    0  0.10458035304E+03 -0.24744914065E+02  0.41609586994E+03  0.46364733023E+03  0.17402216190E+03 0.  0.
         24    2    5    5    0    0  0.13698425146E+03 -0.45839111371E+02  0.34687955583E+03  0.38422462609E+03  0.80232336151E+02 0.  0.
          5    1    5    5  501    0 -0.32403898424E+02  0.21094197306E+02  0.69216314116E+02  0.79422704140E+02  0.47000000000E+01 0. -1.
        -11    1    6    6    0    0  0.51998722653E+02 -0.58563394795E+02  0.18643661175E+03  0.20221807181E+03  0.00000000000E+00 0.  1.
         12    1    6    6    0    0  0.84985528811E+02  0.12724283424E+02  0.16044294408E+03  0.18200655428E+03  0.00000000000E+00 0. -1.
         -5    1    3    3    0  503 -0.10178668867E+03  0.57829959862E+02 -0.46643917106E+02  0.12610542911E+03  0.47000000000E+01 0.  1.
         11    1    4    4    0    0 -0.31714382611E+02 -0.44769301357E+02 -0.37684579752E+02  0.66559897532E+02  0.00000000000E+00 0. -1.
        -12    1    4    4    0    0  0.28920718245E+02  0.11684255559E+02 -0.13235959227E+02  0.33883925221E+02  0.00000000000E+00 0.  1.
</event>
<event>
12    1  0.8135779E-002  0.2542203E+03  0.7818608E-02  0.1110722E+00
         21   -1    0    0  501  502  0.00000000000E+00  0.00000000000E+00  0.27515461157E+03  0.27515461157E+03  0.00000000000E+00 0. -1.
         21   -1    0    0  502  503 -0.00000000000E+00 -0.00000000000E+00 -0.28079441586E+03  0.28079441586E+03  0.00000000000E+00 0. -1.
         -6    2    1    2    0  503  0.95146433408E+02  0.16205374222E+03 -0.11563307424E+03  0.27928297413E+03  0.17121247801E+03 0.  0.
        -24    2    3    3    0    0  0.16711918383E+02  0.25899473525E+02  0.20936896858E+01  0.82886337261E+02  0.76913525619E+02 0.  0.
          6    2    1    2  501    0 -0.95146433408E+02 -0.16205374222E+03  0.10999326995E+03  0.27666605329E+03  0.17067901586E+03 0.  0.
         24    2    5    5    0    0 -0.10510730720E+03 -0.10384847993E+03  0.13472292628E+03  0.21247323854E+03  0.71850938866E+02 0.  0.
          5    1    5    5  501    0  0.99608737947E+01 -0.58205262280E+02 -0.24729656336E+02  0.64192814756E+02  0.47000000000E+01 0. -1.
        -13    1    6    6    0    0 -0.32707686249E+02 -0.41095655411E+02  0.95409090266E+02  0.10891069800E+03  0.00000000000E+00 0.  1.
         14    1    6    6    0    0 -0.72399620954E+02 -0.62752824524E+02  0.39313836015E+02  0.10356254054E+03  0.00000000000E+00 0. -1.
         -5    1    3    3    0  503  0.78434515025E+02  0.13615426869E+03 -0.11772676393E+03  0.19639663687E+03  0.47000000000E+01 0.  1.
         11    1    4    4    0    0 -0.27808602961E+01  0.30062090884E+02 -0.31621845732E+02  0.43719602237E+02  0.00000000000E+00 0. -1.
        -12    1    4    4    0    0  0.19492778679E+02 -0.41626173588E+01  0.33715535418E+02  0.39166735024E+02  0.00000000000E+00 0.  1.
</event>
<event>
12    1  0.8135779E-002  0.1854382E+03  0.7818608E-02  0.1162654E+00
         21   -1    0    0  501  502  0.00000000000E+00  0.00000000000E+00  0.31728935546E+03  0.31728935546E+03  0.00000000000E+00 0.  1.
         21   -1    0    0  502  503 -0.00000000000E+00 -0.00000000000E+00 -0.11783543199E+03  0.11783543199E+03  0.00000000000E+00 0.  1.
         -6    2    1    2    0  503 -0.21814614952E+02  0.65266320098E+02  0.38004878490E+02  0.18929259315E+03  0.17219682073E+03 0.  0.
        -24    2    3    3    0    0  0.15344657378E+02 -0.24438091656E+02  0.38928142243E+02  0.92078214462E+02  0.78296350401E+02 0.  0.
          6    2    1    2  501    0  0.21814614952E+02 -0.65266320098E+02  0.16144904498E+03  0.24583219430E+03  0.17213977943E+03 0.  0.
         24    2    5    5    0    0  0.25704651690E+02 -0.65746822588E+02  0.18930909126E+03  0.21730789856E+03  0.80008855421E+02 0.  0.
          5    1    5    5  501    0 -0.38900367384E+01  0.48050249016E+00 -0.27860046277E+02  0.28524295732E+02  0.47000000000E+01 0. -1.
        -13    1    6    6    0    0 -0.62987936559E+01  0.12062438115E+02  0.70043744745E+02  0.71353369876E+02  0.00000000000E+00 0.  1.
         14    1    6    6    0    0  0.32003445346E+02 -0.77809260703E+02  0.11926534652E+03  0.14595452869E+03  0.00000000000E+00 0. -1.
         -5    1    3    3    0  503 -0.37159272330E+02  0.89704411755E+02 -0.92326375353E+00  0.97214378691E+02  0.47000000000E+01 0.  1.
         13    1    4    4    0    0 -0.19083778963E+02 -0.29533083139E+02  0.44622952359E+02  0.56811983740E+02  0.00000000000E+00 0. -1.
        -14    1    4    4    0    0  0.34428436341E+02  0.50949914828E+01 -0.56948101158E+01  0.35266230722E+02  0.00000000000E+00 0.  1.
</event>
<event>
12    1  0.8135779E-002  0.2904258E+03  0.7818608E-02  0.1090165E+00
         21   -1    0    0  501  502  0.00000000000E+00  0.00000000000E+00  0.83398463785E+03  0.83398463785E+03  0.00000000000E+00 0.  1.
         21   -1    0    0  502  503 -0.00000000000E+00 -0.00000000000E+00 -0.26124291505E+03  0.26124291505E+03  0.00000000000E+00 0.  1.
         -6    2    1    2    0  503 -0.20852091457E+03 -0.10523175613E+03 -0.14252395503E+03  0.32324818782E+03  0.17210932241E+03 0.  0.
        -24    2    3    3    0    0 -0.18892621804E+03 -0.33337706852E+02 -0.70037443896E+02  0.21918527055E+03  0.79576508588E+02 0.  0.
          6    2    1    2  501    0  0.20852091457E+03  0.10523175613E+03  0.71526567783E+03  0.77197936509E+03  0.17260491281E+03 0.  0.
         24    2    5    5    0    0  0.19584272044E+03  0.13858015649E+03  0.64784461788E+03  0.69555592799E+03  0.80849051464E+02 0.  0.
          5    1    5    5  501    0  0.12678194131E+02 -0.33348400362E+02  0.67421059947E+02  0.76423437096E+02  0.47000000000E+01 0. -1.
        -11    1    6    6    0    0  0.12081978696E+03  0.48689886494E+02  0.26632363474E+03  0.29647327770E+03  0.00000000000E+00 0.  1.
         12    1    6    6    0    0  0.75022933482E+02  0.89890269995E+02  0.38152098314E+03  0.39908265029E+03  0.00000000000E+00 0. -1.
         -5    1    3    3    0  503 -0.19594696532E+02 -0.71894049275E+02 -0.72486511135E+02  0.10406291727E+03  0.47000000000E+01 0.  1.
         13    1    4    4    0    0 -0.19335336837E+02 -0.10580797120E+01  0.17074004872E+02  0.25816592061E+02  0.00000000000E+00 0. -1.
        -14    1    4    4    0    0 -0.16959088120E+03 -0.32279627140E+02 -0.87111448768E+02  0.19336867849E+03  0.00000000000E+00 0.  1.
</event>
<event>
12    1  0.8135779E-002  0.1861167E+03  0.7818608E-02  0.1162516E+00
         21   -1    0    0  503  502  0.00000000000E+00  0.00000000000E+00  0.14663661510E+04  0.14663661510E+04  0.00000000000E+00 0. -1.
         21   -1    0    0  501  503 -0.00000000000E+00 -0.00000000000E+00 -0.13053942256E+03  0.13053942256E+03  0.00000000000E+00 0. -1.
          6    2    1    2  501    0  0.39544961750E+01 -0.70735221963E+02 -0.56316010190E+02  0.19237688639E+03  0.16975942904E+03 0.  0.
         24    2    3    3    0    0 -0.22306927436E+02 -0.30904001126E+02 -0.95550342497E+02  0.13042842914E+03  0.80181362427E+02 0.  0.
         -6    2    1    2    0  502 -0.39544961750E+01  0.70735221963E+02  0.13921427386E+04  0.14045286871E+04  0.17210554521E+03 0.  0.
        -24    2    5    5    0    0  0.58605780795E+02  0.12390653690E+02  0.60847560523E+03  0.61619237386E+03  0.76565746965E+02 0.  0.
          5    1    3    3  501    0  0.26261423611E+02 -0.39831220837E+02  0.39234332307E+02  0.61948457245E+02  0.47000000000E+01 0. -1.
        -11    1    4    4    0    0 -0.33921026516E+02 -0.20985375722E+02 -0.69097770800E+01  0.40481687877E+02  0.00000000000E+00 0.  1.
         12    1    4    4    0    0  0.11614099080E+02 -0.99186254045E+01 -0.88640565416E+02  0.89946741268E+02  0.00000000000E+00 0. -1.
         -5    1    5    5    0  502 -0.62560276970E+02  0.58344568273E+02  0.78366713337E+03  0.78833631327E+03  0.47000000000E+01 0.  1.
         13    1    6    6    0    0 -0.47876654994E+01 -0.10118856077E+02  0.31116054346E+03  0.31136184223E+03  0.00000000000E+00 0. -1.
        -14    1    6    6    0    0  0.63393446294E+02  0.22509509767E+02  0.29731506176E+03  0.30483053163E+03  0.00000000000E+00 0.  1.
</event>
<event>
12    1  0.8135779E-002  0.3543429E+03  0.7818608E-02  0.1060945E+00
         21   -1    0    0  501  502  0.00000000000E+00  0.00000000000E+00  0.82716823755E+03  0.82716823755E+03  0.00000000000E+00 0. -1.
         21   -1    0    0  502  503 -0.00000000000E+00 -0.00000000000E+00 -0.15966866993E+03  0.15966866993E+03  0.00000000000E+00 0. -1.
         -6    2    1    2    0  503  0.19856317575E+03  0.23637608115E+03  0.22174290851E+03  0.41800572011E+03  0.17394791767E+03 0.  0.
        -24    2    3    3    0    0  0.21027742667E+03  0.24524244940E+03  0.19228511864E+03  0.38475383979E+03  0.81862660739E+02 0.  0.
          6    2    1    2  501    0 -0.19856317575E+03 -0.23637608115E+03  0.44575665910E+03  0.56883118738E+03  0.17195619819E+03 0.  0.
         24    2    5    5    0    0 -0.42210839017E+02 -0.13386471589E+03  0.25196141145E+03  0.29951107818E+03  0.80751569631E+02 0.  0.
          5    1    5    5  501    0 -0.15635233673E+03 -0.10251136526E+03  0.19379524764E+03  0.26932010920E+03  0.47000000000E+01 0. -1.
        -13    1    6    6    0    0  0.56025686296E+01 -0.29286379640E+02  0.97187063405E+01  0.31361346601E+02  0.00000000000E+00 0.  1.
         14    1    6    6    0    0 -0.47813407646E+02 -0.10457833625E+03  0.24224270511E+03  0.26814973158E+03  0.00000000000E+00 0. -1.
         -5    1    3    3    0  503 -0.11714250920E+02 -0.88663682560E+01  0.29457789868E+02  0.33251880316E+02  0.47000000000E+01 0.  1.
         11    1    4    4    0    0  0.17585300479E+03  0.22758421543E+03  0.14044542443E+03  0.32006838590E+03  0.00000000000E+00 0. -1.
        -12    1    4    4    0    0  0.34424421880E+02  0.17658233973E+02  0.51839694218E+02  0.64685453894E+02  0.00000000000E+00 0.  1.
</event>
<event>
12    1  0.8135779E-002  0.2155536E+03  0.7818608E-02  0.1137245E+00
         21   -1    0    0  501  502  0.00000000000E+00  0.00000000000E+00  0.11788054681E+03  0.11788054681E+03  0.00000000000E+00 0.  1.
         21   -1    0    0  502  503 -0.00000000000E+00 -0.00000000000E+00 -0.76198125367E+03  0.76198125367E+03  0.00000000000E+00 0. -1.
         -6    2    1    2    0  503  0.34294866414E+02  0.12450221956E+03 -0.62772382098E+03  0.66370216155E+03  0.17258743664E+03 0.  0.
        -24    2    3    3    0    0  0.43402766046E+02  0.52644436194E+02 -0.16674617613E+03  0.19704492768E+03  0.79794608281E+02 0.  0.
          6    2    1    2  501    0 -0.34294866414E+02 -0.12450221956E+03 -0.16376885879E+02  0.21615963892E+03  0.17256838230E+03 0.  0.
         24    2    5    5    0    0 -0.62699793141E+02 -0.14635959914E+03 -0.24183453149E+01  0.17741024204E+03  0.78205813502E+02 0.  0.
          5    1    5    5  501    0  0.28404926727E+02  0.21857379575E+02 -0.13958540564E+02  0.38749396885E+02  0.47000000000E+01 0. -1.
        -13    1    6    6    0    0 -0.49065619499E+02 -0.26994541024E+02 -0.10580929136E+02  0.56992072460E+02  0.00000000000E+00 0.  1.
         14    1    6    6    0    0 -0.13634173642E+02 -0.11936505811E+03  0.81625838214E+01  0.12041816958E+03  0.00000000000E+00 0. -1.
         -5    1    3    3    0  503 -0.91078996316E+01  0.71857783369E+02 -0.46097764485E+03  0.46665723387E+03  0.47000000000E+01 0.  1.
         11    1    4    4    0    0  0.43280061042E+02  0.37922837985E+02 -0.17203331096E+03  0.18140221996E+03  0.00000000000E+00 0. -1.
        -12    1    4    4    0    0  0.12270500363E+00  0.14721598209E+02  0.52871348343E+01  0.15642707729E+02  0.00000000000E+00 0.  1.
</event>
<event>
12    1  0.8135779E-002  0.2427230E+03  0.7818608E-02  0.1118471E+00
         21   -1    0    0  501  502  0.00000000000E+00  0.00000000000E+00  0.20408376116E+03  0.20408376116E+03  0.00000000000E+00 0.  1.
         21   -1    0    0  502  503 -0.00000000000E+00 -0.00000000000E+00 -0.35262240914E+03  0.35262240914E+03  0.00000000000E+00 0. -1.
         -6    2    1    2    0  503 -0.12832581645E+03 -0.11282166970E+03 -0.19558582759E+03  0.30946561428E+03  0.16828222172E+03 0.  0.
        -24    2    3    3    0    0 -0.76193662578E+02 -0.74147397001E+02 -0.50336482920E+02  0.15030241827E+03  0.93561448936E+02 0.  0.
          6    2    1    2  501    0  0.12832581645E+03  0.11282166970E+03  0.47047179611E+02  0.24724055603E+03  0.17238970709E+03 0.  0.
         24    2    5    5    0    0  0.41327812410E+02  0.12816816414E+03  0.23802766446E+02  0.15577165233E+03  0.74586658341E+02 0.  0.
          5    1    5    5  501    0  0.86998004045E+02 -0.15346494439E+02  0.23244413165E+02  0.91468903693E+02  0.47000000000E+01 0. -1.
        -13    1    6    6    0    0  0.36727717079E+02  0.13158790923E+03  0.36867787108E+02  0.14150454687E+03  0.00000000000E+00 0.  1.
         14    1    6    6    0    0  0.46000953309E+01 -0.34197450896E+01 -0.13065020662E+02  0.14267105468E+02  0.00000000000E+00 0. -1.
         -5    1    3    3    0  503 -0.52132153876E+02 -0.38674272699E+02 -0.14524934467E+03  0.15916319601E+03  0.47000000000E+01 0.  1.
         11    1    4    4    0    0  0.12577263206E+02 -0.40129328283E+02 -0.33480075192E+02  0.53753753107E+02  0.00000000000E+00 0. -1.
        -12    1    4    4    0    0 -0.88770925785E+02 -0.34018068719E+02 -0.16856407727E+02  0.96548665167E+02  0.00000000000E+00 0.  1.
</event>
<event>
12    1  0.8135779E-002  0.2801370E+03  0.7818608E-02  0.1095843E+00
         21   -1    0    0  501  502  0.00000000000E+00  0.00000000000E+00  0.71447408887E+03  0.71447408887E+03  0.00000000000E+00 0.  1.
         21   -1    0    0  502  503 -0.00000000000E+00 -0.00000000000E+00 -0.11968265925E+04  0.11968265925E+04  0.00000000000E+00 0. -1.
         -6    2    1    2    0  503 -0.84886240188E+02 -0.20320194124E+03 -0.11522585267E+04  0.11858231187E+04  0.17314749088E+03 0.  0.
        -24    2    3    3    0    0  0.99076249769E+01 -0.11890717704E+03 -0.46748411391E+03  0.48938247466E+03  0.81955670709E+02 0.  0.
          6    2    1    2  501    0  0.84886240188E+02  0.20320194124E+03  0.66990602309E+03  0.72547756273E+03  0.17043154505E+03 0.  0.
         24    2    5    5    0    0  0.11222216406E+03  0.20117274323E+03  0.64160857107E+03  0.68580129565E+03  0.74816922639E+02 0.  0.
          5    1    5    5  501    0 -0.27335923874E+02  0.20291980110E+01  0.28297452020E+02  0.39676267080E+02  0.47000000000E+01 0. -1.
        -13    1    6    6    0    0  0.48974746686E+02  0.14124909156E+03  0.33082381970E+03  0.36303475228E+03  0.00000000000E+00 0.  1.
         14    1    6    6    0    0  0.63247417376E+02  0.59923651668E+02  0.31078475137E+03  0.32276654337E+03  0.00000000000E+00 0. -1.
         -5    1    3    3    0  503 -0.94793865165E+02 -0.84294764198E+02 -0.68477441283E+03  0.69644064400E+03  0.47000000000E+01 0.  1.
         13    1    4    4    0    0  0.34092572162E+02 -0.80301484493E+02 -0.38875484891E+03  0.39842309727E+03  0.00000000000E+00 0. -1.
        -14    1    4    4    0    0 -0.24184947185E+02 -0.38605692548E+02 -0.78729265002E+02  0.90959377391E+02  0.00000000000E+00 0.  1.
</event>
<event>
12    1  0.8135779E-002  0.2621229E+03  0.7818608E-02  0.1105896E+00
         21   -1    0    0  503  502  0.00000000000E+00  0.00000000000E+00  0.29925169814E+03  0.29925169814E+03  0.00000000000E+00 0.  1.
         21   -1    0    0  501  503 -0.00000000000E+00 -0.00000000000E+00 -0.46535834264E+03  0.46535834264E+03  0.00000000000E+00 0.  1.
          6    2    1    2  501    0 -0.11637018060E+03 -0.15937577753E+03 -0.35525258675E+03  0.44148931539E+03  0.17252755669E+03 0.  0.
         24    2    3    3    0    0 -0.12403410252E+03 -0.56151856796E+02 -0.19629334101E+03  0.25174199573E+03  0.79406971253E+02 0.  0.
         -6    2    1    2    0  502  0.11637018060E+03  0.15937577753E+03  0.18914594225E+03  0.32312072538E+03  0.17230251972E+03 0.  0.
        -24    2    5    5    0    0  0.13034735541E+03  0.65048667515E+02  0.12623272767E+03  0.20878294655E+03  0.80211314821E+02 0.  0.
          5    1    3    3  501    0  0.76639219127E+01 -0.10322392074E+03 -0.15895924574E+03  0.18974731966E+03  0.47000000000E+01 0. -1.
        -11    1    4    4    0    0 -0.95873551119E+02 -0.27051540690E+02 -0.18431487035E+03  0.20951251774E+03  0.00000000000E+00 0.  1.
         12    1    4    4    0    0 -0.28160551397E+02 -0.29100316106E+02 -0.11978470660E+02  0.42229477996E+02  0.00000000000E+00 0. -1.
         -5    1    5    5    0  502 -0.13977174807E+02  0.94327110019E+02  0.62913214578E+02  0.11433777883E+03  0.47000000000E+01 0.  1.
         11    1    6    6    0    0  0.49435235325E+01 -0.85976225792E+01 -0.65241609760E+01  0.11871066311E+02  0.00000000000E+00 0. -1.
        -12    1    6    6    0    0  0.12540383188E+03  0.73646290095E+02  0.13275688865E+03  0.19691188024E+03  0.00000000000E+00 0.  1.
</event>
<event>
12    1  0.8135779E-002  0.2072465E+03  0.7818608E-02  0.1143837E+00
         21   -1    0    0  501  502  0.00000000000E+00  0.00000000000E+00  0.12733389767E+04  0.12733389767E+04  0.00000000000E+00 0.  1.
         21   -1    0    0  502  503 -0.00000000000E+00 -0.00000000000E+00 -0.54095812817E+02  0.54095812817E+02  0.00000000000E+00 0. -1.
         -6    2    1    2    0  503 -0.95399923067E+02  0.63324893345E+02  0.20148851569E+03  0.28879354874E+03  0.17231629176E+03 0.  0.
        -24    2    3    3    0    0 -0.11065461014E+03  0.24720739913E+02  0.74867536071E+02  0.15545957476E+03  0.75544514692E+02 0.  0.
          6    2    1    2  501    0  0.95399923067E+02 -0.63324893345E+02  0.10177546482E+04  0.10386412408E+04  0.17274233896E+03 0.  0.
         24    2    5    5    0    0  0.52291668656E+02 -0.41664856754E+02  0.26562672250E+03  0.28495298599E+03  0.78551063771E+02 0.  0.
          5    1    5    5  501    0  0.43108254411E+02 -0.21660036591E+02  0.75212792571E+03  0.75368825479E+03  0.47000000000E+01 0. -1.
        -11    1    6    6    0    0 -0.17091302860E+02  0.67388387839E+01  0.41189719692E+02  0.45101192778E+02  0.00000000000E+00 0.  1.
         12    1    6    6    0    0  0.69382971516E+02 -0.48403695538E+02  0.22443700281E+03  0.23985179321E+03  0.00000000000E+00 0. -1.
         -5    1    3    3    0  503  0.15254687072E+02  0.38604153432E+02  0.12662097962E+03  0.13333397399E+03  0.47000000000E+01 0.  1.
         13    1    4    4    0    0 -0.15715870650E+02 -0.10161306497E+01 -0.15346362410E+02  0.21989359950E+02  0.00000000000E+00 0. -1.
        -14    1    4    4    0    0 -0.94938739489E+02  0.25736870562E+02  0.90213898480E+02  0.13347021481E+03  0.00000000000E+00 0.  1.
</event>
<event>
12    1  0.8135779E-002  0.1826541E+03  0.7818608E-02  0.1167231E+00
         21   -1    0    0  503  502  0.00000000000E+00  0.00000000000E+00  0.89035716396E+02  0.89035716396E+02  0.00000000000E+00 0. -1.
         21   -1    0    0  501  503 -0.00000000000E+00 -0.00000000000E+00 -0.44130158778E+03  0.44130158778E+03  0.00000000000E+00 0. -1.
          6    2    1    2  501    0  0.60218875874E+02 -0.13281436555E+02 -0.28789274576E+03  0.33667152761E+03  0.16328739962E+03 0.  0.
         24    2    3    3    0    0  0.57376663494E+01  0.46856130960E+02 -0.15542900438E+03  0.18125768653E+03  0.80422358219E+02 0.  0.
         -6    2    1    2    0  502 -0.60218875874E+02  0.13281436555E+02 -0.64373125627E+02  0.19366577657E+03  0.17192970698E+03 0.  0.
        -24    2    5    5    0    0 -0.98053395869E+02  0.54013788001E+01 -0.98469083193E+01  0.12666768266E+03  0.79398343136E+02 0.  0.
          5    1    3    3  501    0  0.54481209525E+02 -0.60137567514E+02 -0.13246374138E+03  0.15541384108E+03  0.47000000000E+01 0. -1.
        -13    1    4    4    0    0  0.68723882653E+01 -0.11405503669E+02  0.19303883206E+01  0.13455171254E+02  0.00000000000E+00 0.  1.
         14    1    4    4    0    0 -0.11347219159E+01  0.58261634628E+02 -0.15735939270E+03  0.16780251528E+03  0.00000000000E+00 0. -1.
         -5    1    5    5    0  502  0.37834519994E+02  0.78800577544E+01 -0.54526217307E+02  0.66998093908E+02  0.47000000000E+01 0.  1.
         11    1    6    6    0    0 -0.30222998558E+02 -0.22693033567E+02  0.25086297650E+02  0.45362162031E+02  0.00000000000E+00 0. -1.
        -12    1    6    6    0    0 -0.67830397311E+02  0.28094412367E+02 -0.34933205969E+02  0.81305520630E+02  0.00000000000E+00 0.  1.
</event>
<event>
12    1  0.8135779E-002  0.2493266E+03  0.7818608E-02  0.1114212E+00
         21   -1    0    0  503  502  0.00000000000E+00  0.00000000000E+00  0.32680172996E+03  0.32680172996E+03  0.00000000000E+00 0. -1.
         21   -1    0    0  501  503 -0.00000000000E+00 -0.00000000000E+00 -0.23285577075E+03  0.23285577075E+03  0.00000000000E+00 0. -1.
          6    2    1    2  501    0 -0.15345864631E+03 -0.93239593149E+02 -0.75713650049E+02  0.26056924947E+03  0.17297571826E+03 0.  0.
         24    2    3    3    0    0 -0.16217910453E+03 -0.28487401824E+02 -0.62532745841E+02  0.19375069734E+03  0.80717993083E+02 0.  0.
         -6    2    1    2    0  502  0.15345864631E+03  0.93239593149E+02  0.16965960926E+03  0.29908825124E+03  0.16860077449E+03 0.  0.
        -24    2    5    5    0    0  0.12291083422E+03  0.78557686344E+02  0.19494337194E+03  0.25654314734E+03  0.80827501102E+02 0.  0.
          5    1    3    3  501    0  0.87204582205E+01 -0.64752191325E+02 -0.13180904208E+02  0.66818552130E+02  0.47000000000E+01 0. -1.
        -11    1    4    4    0    0  0.28821526111E+01 -0.17726664896E+02 -0.54966704230E+01  0.18781768760E+02  0.00000000000E+00 0.  1.
         12    1    4    4    0    0 -0.16506125714E+03 -0.10760736927E+02 -0.57036075418E+02  0.17496892858E+03  0.00000000000E+00 0. -1.
         -5    1    5    5    0  502  0.30547812092E+02  0.14681906805E+02 -0.25283762672E+02  0.42545103900E+02  0.47000000000E+01 0.  1.
         13    1    6    6    0    0  0.83125554224E+02  0.34195387824E+02  0.57406258788E+02  0.10665205512E+03  0.00000000000E+00 0. -1.
        -14    1    6    6    0    0  0.39785279995E+02  0.44362298520E+02  0.13753711315E+03  0.14989109222E+03  0.00000000000E+00 0.  1.
</event>
<event>
12    1  0.8135779E-002  0.2420901E+03  0.7818608E-02  0.1120830E+00
         21   -1    0    0  501  502  0.00000000000E+00  0.00000000000E+00  0.32469039618E+03  0.32469039618E+03  0.00000000000E+00 0. -1.
         21   -1    0    0  502  503 -0.00000000000E+00 -0.00000000000E+00 -0.25232067011E+03  0.25232067011E+03  0.00000000000E+00 0.  1.
         -6    2    1    2    0  503  0.10146717448E+03 -0.11134978338E+03 -0.12777150206E+03  0.27373920492E+03  0.18950787271E+03 0.  0.
        -24    2    3    3    0    0  0.86083537892E+02  0.61172419854E+01 -0.32816398288E+02  0.12183884267E+03  0.79498373819E+02 0.  0.
          6    2    1    2  501    0 -0.10146717448E+03  0.11134978338E+03  0.20014122813E+03  0.30327186136E+03  0.17094721098E+03 0.  0.
         24    2    5    5    0    0 -0.13783234122E+03  0.10561332331E+03  0.16444892945E+03  0.25178047848E+03  0.78727572043E+02 0.  0.
          5    1    5    5  501    0  0.36365166738E+02  0.57364600626E+01  0.35692298679E+02  0.51491382880E+02  0.47000000000E+01 0. -1.
        -13    1    6    6    0    0 -0.11271463581E+03  0.92002911883E+02  0.87691747451E+02  0.16987927328E+03  0.00000000000E+00 0.  1.
         14    1    6    6    0    0 -0.25117705413E+02  0.13610411431E+02  0.76757182001E+02  0.81901205200E+02  0.00000000000E+00 0. -1.
         -5    1    3    3    0  503  0.15383636592E+02 -0.11746702536E+03 -0.94955103772E+02  0.15190036226E+03  0.47000000000E+01 0.  1.
         13    1    4    4    0    0  0.80566469293E+02 -0.26066932055E+02 -0.24141565369E+02  0.88052575769E+02  0.00000000000E+00 0. -1.
        -14    1    4    4    0    0  0.55170685992E+01  0.32184174040E+02 -0.86748329195E+01  0.33786266896E+02  0.00000000000E+00 0.  1.
</event>
<event>
12    1  0.8135779E-002  0.2161782E+03  0.7818608E-02  0.1137062E+00
         21   -1    0    0  501  502  0.00000000000E+00  0.00000000000E+00  0.33003228996E+03  0.33003228996E+03  0.00000000000E+00 0. -1.
         21   -1    0    0  502  503 -0.00000000000E+00 -0.00000000000E+00 -0.16820348672E+03  0.16820348672E+03  0.00000000000E+00 0. -1.
         -6    2    1    2    0  503 -0.12773262717E+03 -0.16107068140E+02  0.18210304834E+03  0.28265624407E+03  0.17366050331E+03 0.  0.
        -24    2    3    3    0    0 -0.65799573248E+02  0.56127146166E+02  0.77541283022E+02  0.14120399895E+03  0.80287473306E+02 0.  0.
          6    2    1    2  501    0  0.12773262717E+03  0.16107068140E+02 -0.20274245109E+02  0.21557953261E+03  0.17172195019E+03 0.  0.
         24    2    5    5    0    0  0.76488196215E+02  0.52913396532E+02 -0.64188989307E+02  0.13856464917E+03  0.80185185403E+02 0.  0.
          5    1    5    5  501    0  0.51244430951E+02 -0.36806328392E+02  0.43914744198E+02  0.77014883439E+02  0.47000000000E+01 0. -1.
        -13    1    6    6    0    0 -0.24705301907E+01  0.47156628772E+01  0.15548945444E+02  0.16435044881E+02  0.00000000000E+00 0.  1.
         14    1    6    6    0    0  0.78958726406E+02  0.48197733655E+02 -0.79737934751E+02  0.12212960429E+03  0.00000000000E+00 0. -1.
         -5    1    3    3    0  503 -0.61933053918E+02 -0.72234214307E+02  0.10456176532E+03  0.14145224513E+03  0.47000000000E+01 0.  1.
         11    1    4    4    0    0 -0.33062545944E+02  0.33813730613E+02  0.88286141788E+02  0.10015459627E+03  0.00000000000E+00 0. -1.
        -12    1    4    4    0    0 -0.32737027303E+02  0.22313415553E+02 -0.10744858766E+02  0.41049402678E+02  0.00000000000E+00 0.  1.
</event>
<event>
12    1  0.8135779E-002  0.3424565E+03  0.7818608E-02  0.1065831E+00
         21   -1    0    0  501  502  0.00000000000E+00  0.00000000000E+00  0.24659570751E+03  0.24659570751E+03  0.00000000000E+00 0.  1.
         21   -1    0    0  502  503 -0.00000000000E+00 -0.00000000000E+00 -0.62768177029E+03  0.62768177029E+03  0.00000000000E+00 0.  1.
         -6    2    1    2    0  503  0.13703568594E+01  0.29554142598E+03 -0.40628445264E+03  0.53089515594E+03  0.17156922157E+03 0.  0.
        -24    2    3    3    0    0 -0.28959458565E+00  0.14341126215E+03 -0.31071303638E+03  0.35116667241E+03  0.78794459538E+02 0.  0.
          6    2    1    2  501    0 -0.13703568594E+01 -0.29554142598E+03  0.25198389861E+02  0.34338232186E+03  0.17300245017E+03 0.  0.
         24    2    5    5    0    0 -0.16487120776E+02 -0.21563184557E+03  0.81310713587E+02  0.24446447480E+03  0.79890733635E+02 0.  0.
          5    1    5    5  501    0  0.15116763917E+02 -0.79909580419E+02 -0.56112323727E+02  0.98917847065E+02  0.47000000000E+01 0. -1.
        -13    1    6    6    0    0 -0.27509035232E+02 -0.56703053838E+02 -0.50969977244E+01  0.63229445037E+02  0.00000000000E+00 0.  1.
         14    1    6    6    0    0  0.11021914455E+02 -0.15892879173E+03  0.86407711312E+02  0.18123502976E+03  0.00000000000E+00 0. -1.
         -5    1    3    3    0  503  0.16599514450E+01  0.15213016383E+03 -0.95571416261E+02  0.17972848353E+03  0.47000000000E+01 0.  1.
         11    1    4    4    0    0  0.33213051283E+02  0.11443467213E+03 -0.23366984666E+03  0.26229753753E+03  0.00000000000E+00 0. -1.
        -12    1    4    4    0    0 -0.33502645868E+02  0.28976590023E+02 -0.77043189726E+02  0.88869134871E+02  0.00000000000E+00 0.  1.
</event>
<event>
12    1  0.8135779E-002  0.2930542E+03  0.7818608E-02  0.1088905E+00
         21   -1    0    0  501  502  0.00000000000E+00  0.00000000000E+00  0.25089793658E+03  0.25089793658E+03  0.00000000000E+00 0.  1.
         21   -1    0    0  502  503 -0.00000000000E+00 -0.00000000000E+00 -0.60605177066E+03  0.60605177066E+03  0.00000000000E+00 0. -1.
         -6    2    1    2    0  503  0.13283935482E+03  0.19398914647E+03 -0.46110152302E+03  0.54634731544E+03  0.17493624957E+03 0.  0.
        -24    2    3    3    0    0  0.33394781712E+02  0.36707917805E+02 -0.23736611151E+03  0.25530396407E+03  0.79842097289E+02 0.  0.
          6    2    1    2  501    0 -0.13283935482E+03 -0.19398914647E+03  0.10594768895E+03  0.31060239180E+03  0.17312091110E+03 0.  0.
         24    2    5    5    0    0 -0.79643999679E+02 -0.19937836721E+03  0.53401007955E+02  0.23548892302E+03  0.80675059470E+02 0.  0.
          5    1    5    5  501    0 -0.53195355138E+02  0.53892207370E+01  0.52546680992E+02  0.75113468777E+02  0.47000000000E+01 0. -1.
        -11    1    6    6    0    0 -0.84886803103E+02 -0.12499051875E+03  0.15631320047E+02  0.15189712731E+03  0.00000000000E+00 0.  1.
         12    1    6    6    0    0  0.52428034240E+01 -0.74387848456E+02  0.37769687908E+02  0.83591795712E+02  0.00000000000E+00 0. -1.
         -5    1    3    3    0  503  0.99444573106E+02  0.15728122866E+03 -0.22373541151E+03  0.29104335136E+03  0.47000000000E+01 0.  1.
         11    1    4    4    0    0  0.30878895744E+02  0.49236436994E+02 -0.88417830849E+02  0.10580853341E+03  0.00000000000E+00 0. -1.
        -12    1    4    4    0    0  0.25158859677E+01 -0.12528519189E+02 -0.14894828067E+03  0.14949543066E+03  0.00000000000E+00 0.  1.
</event>
<event>
12    1  0.8135779E-002  0.1811908E+03  0.7818608E-02  0.1166988E+00
         21   -1    0    0  501  502  0.00000000000E+00  0.00000000000E+00  0.15024120193E+03  0.15024120193E+03  0.00000000000E+00 0. -1.
         21   -1    0    0  502  503 -0.00000000000E+00 -0.00000000000E+00 -0.27791780288E+03  0.27791780288E+03  0.00000000000E+00 0. -1.
         -6    2    1    2    0  503 -0.21635706143E+02 -0.46118078509E+02 -0.16437671839E+03  0.24464221906E+03  0.17388251452E+03 0.  0.
        -24    2    3    3    0    0 -0.30841798918E+02 -0.56018201060E+02 -0.18859667912E+03  0.21650930119E+03  0.84960665704E+02 0.  0.
          6    2    1    2  501    0  0.21635706143E+02  0.46118078509E+02  0.36700117439E+02  0.18351678574E+03  0.17244283425E+03 0.  0.
         24    2    5    5    0    0  0.10175482282E+02  0.54369368991E+02 -0.39686077750E+02  0.10569415831E+03  0.80849870803E+02 0.  0.
          5    1    5    5  501    0  0.11460223861E+02 -0.82512904819E+01  0.76386195189E+02  0.77822627436E+02  0.47000000000E+01 0. -1.
        -11    1    6    6    0    0 -0.91069021493E+01 -0.10699609987E+02 -0.34943750195E+02  0.37662753462E+02  0.00000000000E+00 0.  1.
         12    1    6    6    0    0  0.19282384431E+02  0.65068978978E+02 -0.47423275546E+01  0.68031404845E+02  0.00000000000E+00 0. -1.
         -5    1    3    3    0  503  0.92060927749E+01  0.99001225504E+01  0.24219960725E+02  0.28132917876E+02  0.47000000000E+01 0.  1.
         11    1    4    4    0    0 -0.16006955779E+01 -0.62843152163E+02 -0.69618732482E+02  0.93800809765E+02  0.00000000000E+00 0. -1.
        -12    1    4    4    0    0 -0.29241103340E+02  0.68249511038E+01 -0.11897794663E+03  0.12270849142E+03  0.00000000000E+00 0.  1.
</event>
<event>
12    1  0.8135779E-002  0.2106174E+03  0.7818608E-02  0.1141153E+00
         21   -1    0    0  503  502  0.00000000000E+00  0.00000000000E+00  0.95816497032E+02  0.95816497032E+02  0.00000000000E+00 0.  1.
         21   -1    0    0  501  503 -0.00000000000E+00 -0.00000000000E+00 -0.62692249839E+03  0.62692249839E+03  0.00000000000E+00 0.  1.
          6    2    1    2  501    0  0.20290934859E+02 -0.11938969690E+03 -0.45100022865E+03  0.49775587154E+03  0.17231970186E+03 0.  0.
         24    2    3    3    0    0  0.23665508043E+02 -0.14327248564E+03 -0.27789283338E+03  0.32291298310E+03  0.77209496805E+02 0.  0.
         -6    2    1    2    0  502 -0.20290934859E+02  0.11938969690E+03 -0.80105772707E+02  0.22498312388E+03  0.17185706109E+03 0.  0.
        -24    2    5    5    0    0 -0.45836632952E+02  0.13950277940E+02 -0.68387164201E+02  0.11576101281E+03  0.80176060540E+02 0.  0.
          5    1    3    3  501    0 -0.33745731838E+01  0.23882788745E+02 -0.17310739527E+03  0.17484288844E+03  0.47000000000E+01 0. -1.
        -13    1    4    4    0    0  0.10680328148E+02 -0.29676476089E+02 -0.14132775119E+03  0.14480433660E+03  0.00000000000E+00 0.  1.
         14    1    4    4    0    0  0.12985179895E+02 -0.11359600955E+03 -0.13656508219E+03  0.17810864650E+03  0.00000000000E+00 0. -1.
         -5    1    5    5    0  502  0.25545698092E+02  0.10543941896E+03 -0.11718608506E+02  0.10922211107E+03  0.47000000000E+01 0.  1.
         13    1    6    6    0    0  0.98136920284E+01 -0.23397761822E+02 -0.11521229134E+02  0.27865794987E+02  0.00000000000E+00 0. -1.
        -14    1    6    6    0    0 -0.55650324980E+02  0.37348039762E+02 -0.56865935067E+02  0.87895217819E+02  0.00000000000E+00 0.  1.
</event>
<event>
12    1  0.8135779E-002  0.2620695E+03  0.7818608E-02  0.1105973E+00
         21   -1    0    0  503  502  0.00000000000E+00  0.00000000000E+00  0.95797687604E+02  0.95797687604E+02  0.00000000000E+00 0. -1.
         21   -1    0    0  501  503 -0.00000000000E+00 -0.00000000000E+00 -0.71571055780E+03  0.71571055780E+03  0.00000000000E+00 0.  1.
          6    2    1    2  501    0  0.61184813942E+02  0.18751482430E+03 -0.31159415197E+03  0.40715024055E+03  0.17255437416E+03 0.  0.
         24    2    3    3    0    0  0.40853516601E+02  0.16782163011E+03 -0.32433187712E+03  0.37575719688E+03  0.78544224092E+02 0.  0.
         -6    2    1    2    0  502 -0.61184813942E+02 -0.18751482430E+03 -0.30831871822E+03  0.40435800486E+03  0.17187080408E+03 0.  0.
        -24    2    5    5    0    0 -0.13415999504E+02 -0.15695057083E+02 -0.11099652368E+03  0.13834666958E+03  0.79957794200E+02 0.  0.
          5    1    3    3  501    0  0.20331297341E+02  0.19693194189E+02  0.12737725144E+02  0.31393043668E+02  0.47000000000E+01 0. -1.
        -13    1    4    4    0    0 -0.20734582156E+02  0.75625214146E+02 -0.12172785075E+03  0.14479905235E+03  0.00000000000E+00 0.  1.
         14    1    4    4    0    0  0.61588098757E+02  0.92196415969E+02 -0.20260402637E+03  0.23095814453E+03  0.00000000000E+00 0. -1.
         -5    1    5    5    0  502 -0.47768814438E+02 -0.17181976722E+03 -0.19732219454E+03  0.26601133528E+03  0.47000000000E+01 0.  1.
         11    1    6    6    0    0 -0.42307284068E+02 -0.25601706009E+02 -0.51083045761E+02  0.71097336096E+02  0.00000000000E+00 0. -1.
        -12    1    6    6    0    0  0.28891284564E+02  0.99066489257E+01 -0.59913477922E+02  0.67249333480E+02  0.00000000000E+00 0.  1.
</event>
<event>
12    1  0.8135779E-002  0.1860494E+03  0.7818608E-02  0.1162126E+00
         21   -1    0    0  503  502  0.00000000000E+00  0.00000000000E+00  0.60443718631E+02  0.60443718631E+02  0.00000000000E+00 0.  1.
         21   -1    0    0  501  503 -0.00000000000E+00 -0.00000000000E+00 -0.57986630104E+03  0.57986630104E+03  0.00000000000E+00 0.  1.
          6    2    1    2  501    0  0.69393137099E+02  0.18901708305E+02 -0.22252330659E+03  0.29005345040E+03  0.17158583874E+03 0.  0.
         24    2    3    3    0    0 -0.21315300010E+02  0.14368170418E+02 -0.11768166300E+03  0.15126428021E+03  0.91493837640E+02 0.  0.
         -6    2    1    2    0  502 -0.69393137099E+02 -0.18901708305E+02 -0.29689927582E+03  0.35025656928E+03  0.17134118678E+03 0.  0.
        -24    2    5    5    0    0 -0.78611986664E+01 -0.36537006506E+02 -0.82640100309E+02  0.12659104337E+03  0.88312823495E+02 0.  0.
          5    1    3    3  501    0  0.90708437109E+02  0.45335378873E+01 -0.10484164359E+03  0.13878917018E+03  0.47000000000E+01 0. -1.
        -13    1    4    4    0    0  0.79766090014E+01  0.30150664188E+02 -0.24036647746E+01  0.31280448310E+02  0.00000000000E+00 0.  1.
         14    1    4    4    0    0 -0.29291909011E+02 -0.15782493769E+02 -0.11527799823E+03  0.11998383190E+03  0.00000000000E+00 0. -1.
         -5    1    5    5    0  502 -0.61531938432E+02  0.17635298201E+02 -0.21425917551E+03  0.22366552591E+03  0.47000000000E+01 0.  1.
         13    1    6    6    0    0 -0.42669000638E+02 -0.54698464177E+00 -0.22185732238E+02  0.48095213094E+02  0.00000000000E+00 0. -1.
        -14    1    6    6    0    0  0.34807801971E+02 -0.35990021864E+02 -0.60454368071E+02  0.78495830276E+02  0.00000000000E+00 0.  1.
</event>
<event>
12    1  0.8135779E-002  0.1753129E+03  0.7818608E-02  0.1172492E+00
         21   -1    0    0  501  502  0.00000000000E+00  0.00000000000E+00  0.56118786782E+03  0.56118786782E+03  0.00000000000E+00 0.  1.
         21   -1    0    0  502  503 -0.00000000000E+00 -0.00000000000E+00 -0.66011928666E+02  0.66011928666E+02  0.00000000000E+00 0.  1.
         -6    2    1    2    0  503 -0.90316672754E+01 -0.32550625357E+02  0.11744952787E+03  0.21077231126E+03  0.17172495849E+03 0.  0.
        -24    2    3    3    0    0 -0.13199897269E+02 -0.43686053859E+02  0.15013464886E+03  0.17567560140E+03  0.78986046553E+02 0.  0.
          6    2    1    2  501    0  0.90316672754E+01  0.32550625357E+02  0.37772641128E+03  0.41642748522E+03  0.17202759793E+03 0.  0.
         24    2    5    5    0    0  0.21554612652E+02 -0.24229032014E+02  0.32860363840E+03  0.34016549950E+03  0.81734745117E+02 0.  0.
          5    1    5    5  501    0 -0.12522945376E+02  0.56779657372E+02  0.49122772877E+02  0.76261985728E+02  0.47000000000E+01 0. -1.
        -13    1    6    6    0    0  0.50618150431E+02 -0.16719294214E+01  0.17220964042E+03  0.17950251462E+03  0.00000000000E+00 0.  1.
         14    1    6    6    0    0 -0.29063537779E+02 -0.22557102593E+02  0.15639399798E+03  0.16066298488E+03  0.00000000000E+00 0. -1.
         -5    1    3    3    0  503  0.41682299932E+01  0.11135428501E+02 -0.32685120983E+02  0.35096709858E+02  0.47000000000E+01 0.  1.
         13    1    4    4    0    0  0.31442174687E+02 -0.23962028358E+02  0.45875806700E+02  0.60558886982E+02  0.00000000000E+00 0. -1.
        -14    1    4    4    0    0 -0.44642071956E+02 -0.19724025501E+02  0.10425884216E+03  0.11511671442E+03  0.00000000000E+00 0.  1.
</event>
<event>
12    1  0.8135779E-002  0.1767739E+03  0.7818608E-02  0.1171108E+00
         21   -1    0    0  501  502  0.00000000000E+00  0.00000000000E+00  0.18839414748E+03  0.18839414748E+03  0.00000000000E+00 0.  1.
         21   -1    0    0  502  503 -0.00000000000E+00 -0.00000000000E+00 -0.17511298956E+03  0.17511298956E+03  0.00000000000E+00 0.  1.
         -6    2    1    2    0  503 -0.48868071030E+01  0.40811678473E+02  0.49607790379E+02  0.18303934853E+03  0.17132716148E+03 0.  0.
        -24    2    3    3    0    0 -0.35413214778E+02 -0.29244499659E+02  0.45922455741E+02  0.10638818186E+03  0.84262902614E+02 0.  0.
          6    2    1    2  501    0  0.48868071030E+01 -0.40811678473E+02 -0.36326632458E+02  0.18046778851E+03  0.17192883551E+03 0.  0.
         24    2    5    5    0    0 -0.31487012894E+02  0.43176931853E+00 -0.72965043308E+02  0.11422173265E+03  0.82043209710E+02 0.  0.
          5    1    5    5  501    0  0.36373819997E+02 -0.41243447791E+02  0.36638410850E+02  0.66246055856E+02  0.47000000000E+01 0. -1.
        -13    1    6    6    0    0 -0.33315354722E+02 -0.34038779635E+02 -0.61629151519E+02  0.77889047345E+02  0.00000000000E+00 0.  1.
         14    1    6    6    0    0  0.18283418283E+01  0.34470548954E+02 -0.11335891788E+02  0.36332685308E+02  0.00000000000E+00 0. -1.
         -5    1    3    3    0  503  0.30526407675E+02  0.70056178132E+02  0.36853346382E+01  0.76651166667E+02  0.47000000000E+01 0.  1.
         11    1    4    4    0    0 -0.21452649235E+02 -0.10987594719E+02 -0.23255283673E+02  0.33492560601E+02  0.00000000000E+00 0. -1.
        -12    1    4    4    0    0 -0.13960565543E+02 -0.18256904941E+02  0.69177739414E+02  0.72895621259E+02  0.00000000000E+00 0.  1.
</event>
<event>
12    1  0.8135779E-002  0.1808734E+03  0.7818608E-02  0.1167808E+00
         21   -1    0    0  501  502  0.00000000000E+00  0.00000000000E+00  0.15801256387E+03  0.15801256387E+03  0.00000000000E+00 0.  1.
         21   -1    0    0  502  503 -0.00000000000E+00 -0.00000000000E+00 -0.20308752801E+03  0.20308752801E+03  0.00000000000E+00 0.  1.
         -6    2    1    2    0  503  0.52171341651E+02 -0.40101528711E+01 -0.24161983879E+02  0.17902167654E+03  0.16949049823E+03 0.  0.
        -24    2    3    3    0    0 -0.35661338879E+02 -0.58840673589E+01 -0.26077811100E+02  0.91022519052E+02  0.79364308120E+02 0.  0.
          6    2    1    2  501    0 -0.52171341651E+02  0.40101528711E+01 -0.20912980256E+02  0.18207841534E+03  0.17313944199E+03 0.  0.
         24    2    5    5    0    0  0.12721123295E+02 -0.14191452356E+02  0.38232270739E+02  0.92286538451E+02  0.81803877387E+02 0.  0.
          5    1    5    5  501    0 -0.64892464946E+02  0.18201605227E+02 -0.59145250995E+02  0.89791876887E+02  0.47000000000E+01 0. -1.
        -11    1    6    6    0    0 -0.23238273477E+02 -0.34289623251E+02  0.27489923384E+02  0.49714097644E+02  0.00000000000E+00 0.  1.
         12    1    6    6    0    0  0.35959396773E+02  0.20098170895E+02  0.10742347355E+02  0.42572440807E+02  0.00000000000E+00 0. -1.
         -5    1    3    3    0  503  0.87832680530E+02  0.18739144878E+01  0.19158272205E+01  0.87999157487E+02  0.47000000000E+01 0.  1.
         13    1    4    4    0    0 -0.14047559236E+02  0.24673872938E+01 -0.53357186536E+02  0.55230528475E+02  0.00000000000E+00 0. -1.
        -14    1    4    4    0    0 -0.21613779642E+02 -0.83514546528E+01  0.27279375436E+02  0.35791990577E+02  0.00000000000E+00 0.  1.
</event>
<event>
12    1  0.8135779E-002  0.1835993E+03  0.7818608E-02  0.1164480E+00
         21   -1    0    0  501  502  0.00000000000E+00  0.00000000000E+00  0.19256950499E+03  0.19256950499E+03  0.00000000000E+00 0.  1.
         21   -1    0    0  502  503 -0.00000000000E+00 -0.00000000000E+00 -0.24506633185E+03  0.24506633185E+03  0.00000000000E+00 0.  1.
         -6    2    1    2    0  503 -0.63439892463E+02 -0.89688615833E+01  0.91078263098E+02  0.20494868714E+03  0.17205712400E+03 0.  0.
        -24    2    3    3    0    0  0.16808408093E+02 -0.23196670583E+02  0.11725450383E+01  0.83510025955E+02  0.78434313054E+02 0.  0.
          6    2    1    2  501    0  0.63439892463E+02  0.89688615833E+01 -0.14357508996E+03  0.23268714969E+03  0.17153554366E+03 0.  0.
         24    2    5    5    0    0  0.10544388666E+03  0.28506889076E+02 -0.10773721212E+03  0.17392905633E+03  0.81932617445E+02 0.  0.
          5    1    5    5  501    0 -0.42003994201E+02 -0.19538027492E+02 -0.35837877838E+02  0.58758093358E+02  0.47000000000E+01 0. -1.
        -11    1    6    6    0    0  0.70188548197E+02  0.45747162877E+02 -0.34036404048E+02  0.90430702805E+02  0.00000000000E+00 0.  1.
         12    1    6    6    0    0  0.35255338468E+02 -0.17240273801E+02 -0.73700808072E+02  0.83498353527E+02  0.00000000000E+00 0. -1.
         -5    1    3    3    0  503 -0.80248300556E+02  0.14227809000E+02  0.89905718059E+02  0.12143866119E+03  0.47000000000E+01 0.  1.
         13    1    4    4    0    0  0.45885465078E+02 -0.15535500521E+01 -0.67535283460E+01  0.46405813949E+02  0.00000000000E+00 0. -1.
        -14    1    4    4    0    0 -0.29077056985E+02 -0.21643120531E+02  0.79260733843E+01  0.37104212005E+02  0.00000000000E+00 0.  1.
</event>
<event>
12    1  0.8135779E-002  0.1692419E+03  0.7818608E-02  0.1181189E+00
         21   -1    0    0  501  502  0.00000000000E+00  0.00000000000E+00  0.14028623825E+03  0.14028623825E+03  0.00000000000E+00 0.  1.
         21   -1    0    0  502  503 -0.00000000000E+00 -0.00000000000E+00 -0.23465252820E+03  0.23465252820E+03  0.00000000000E+00 0.  1.
         -6    2    1    2    0  503 -0.20477599630E+02 -0.60223953747E+01 -0.12728417418E+03  0.21176424992E+03  0.16789054534E+03 0.  0.
        -24    2    3    3    0    0 -0.75845253647E+02  0.98656795494E+01 -0.96851484000E+02  0.14644773847E+03  0.78847295561E+02 0.  0.
          6    2    1    2  501    0  0.20477599630E+02  0.60223953747E+01  0.32917884230E+02  0.16317451653E+03  0.15838792381E+03 0.  0.
         24    2    5    5    0    0 -0.42189616113E+02  0.23107541078E+02  0.32412308687E+02  0.98048271900E+02  0.79050513634E+02 0.  0.
          5    1    5    5  501    0  0.62667215742E+02 -0.17085145703E+02  0.50557554274E+00  0.65126244627E+02  0.47000000000E+01 0. -1.
        -11    1    6    6    0    0  0.15513787919E+02 -0.88219806595E+01  0.26345894189E+02  0.31821550857E+02  0.00000000000E+00 0.  1.
         12    1    6    6    0    0 -0.57703404032E+02  0.31929521737E+02  0.60664144983E+01  0.66226721043E+02  0.00000000000E+00 0. -1.
         -5    1    3    3    0  503  0.55367654017E+02 -0.15888074924E+02 -0.30432690179E+02  0.65316511448E+02  0.47000000000E+01 0.  1.
         13    1    4    4    0    0  0.45265792712E+01 -0.19035789840E+02 -0.34250896243E+01  0.19864099619E+02  0.00000000000E+00 0. -1.
        -14    1    4    4    0    0 -0.80371832918E+02  0.28901469390E+02 -0.93426394376E+02  0.12658363885E+03  0.00000000000E+00 0.  1.
</event>
<event>
12    1  0.8135779E-002  0.2220945E+03  0.7818608E-02  0.1132475E+00
         21   -1    0    0  503  502  0.00000000000E+00  0.00000000000E+00  0.69783838487E+02  0.69783838487E+02  0.00000000000E+00 0. -1.
         21   -1    0    0  501  503 -0.00000000000E+00 -0.00000000000E+00 -0.78433633762E+03  0.78433633762E+03  0.00000000000E+00 0. -1.
          6    2    1    2  501    0  0.13292229173E+03  0.39817721395E+02 -0.49308109360E+03  0.54047139303E+03  0.17241396476E+03 0.  0.
         24    2    3    3    0    0  0.11256765540E+03 -0.34207874305E+02 -0.36070887253E+03  0.38737470806E+03  0.78144852780E+02 0.  0.
         -6    2    1    2    0  502 -0.13292229173E+03 -0.39817721395E+02 -0.22147140553E+03  0.31364878307E+03  0.17341334746E+03 0.  0.
        -24    2    5    5    0    0 -0.76499562029E+02 -0.35014548336E+02 -0.36729820419E+02  0.12036624850E+03  0.77850834840E+02 0.  0.
          5    1    3    3  501    0  0.20354636338E+02  0.74025595700E+02 -0.13237222108E+03  0.15309668498E+03  0.47000000000E+01 0. -1.
        -13    1    4    4    0    0  0.43473069810E+02 -0.28516586426E+02 -0.62915920954E+02  0.81618114470E+02  0.00000000000E+00 0.  1.
         14    1    4    4    0    0  0.69094585587E+02 -0.56912878788E+01 -0.29779295157E+03  0.30575659359E+03  0.00000000000E+00 0. -1.
         -5    1    5    5    0  502 -0.56422729706E+02 -0.48031730597E+01 -0.18474158511E+03  0.19328253457E+03  0.47000000000E+01 0.  1.
         13    1    6    6    0    0  0.97948069121E+01 -0.52304192875E+01  0.12441706001E+02  0.16676077974E+02  0.00000000000E+00 0. -1.
        -14    1    6    6    0    0 -0.86294368941E+02 -0.29784129048E+02 -0.49171526421E+02  0.10369017053E+03  0.00000000000E+00 0.  1.
</event>
<event>
12    1  0.8135779E-002  0.2127495E+03  0.7818608E-02  0.1139504E+00
         21   -1    0    0  501  502  0.00000000000E+00  0.00000000000E+00  0.27462736504E+03  0.27462736504E+03  0.00000000000E+00 0. -1.
         21   -1    0    0  502  503 -0.00000000000E+00 -0.00000000000E+00 -0.32384850342E+03  0.32384850342E+03  0.00000000000E+00 0. -1.
         -6    2    1    2    0  503 -0.83246820667E+02 -0.93618792053E+02 -0.23457627264E+03  0.31668340297E+03  0.17195301293E+03 0.  0.
        -24    2    3    3    0    0 -0.10440847471E+01 -0.45546119432E+02 -0.19559491640E+03  0.21367899637E+03  0.72978099859E+02 0.  0.
          6    2    1    2  501    0  0.83246820667E+02  0.93618792053E+02  0.18535513425E+03  0.28179246549E+03  0.17133580021E+03 0.  0.
         24    2    5    5    0    0 -0.25799378422E+01  0.17003181795E+02  0.44608666868E+02  0.99946810348E+02  0.87770538728E+02 0.  0.
          5    1    5    5  501    0  0.85826758509E+02  0.76615610257E+02  0.14074646739E+03  0.18184565514E+03  0.47000000000E+01 0. -1.
        -11    1    6    6    0    0 -0.13876940572E+02  0.12155914317E+02 -0.23985650319E+02  0.30259662156E+02  0.00000000000E+00 0.  1.
         12    1    6    6    0    0  0.11297002730E+02  0.48472674782E+01  0.68594317188E+02  0.69687148192E+02  0.00000000000E+00 0. -1.
         -5    1    3    3    0  503 -0.82202735920E+02 -0.48072672620E+02 -0.38981356235E+02  0.10300440660E+03  0.47000000000E+01 0.  1.
         13    1    4    4    0    0 -0.25833661713E+02 -0.52739221960E+02 -0.15287124027E+03  0.16376330392E+03  0.00000000000E+00 0. -1.
        -14    1    4    4    0    0  0.24789576966E+02  0.71931025276E+01 -0.42723676136E+02  0.49915692449E+02  0.00000000000E+00 0.  1.
</event>
<event>
12    1  0.8135779E-002  0.1881860E+03  0.7818608E-02  0.1160394E+00
         21   -1    0    0  503  502  0.00000000000E+00  0.00000000000E+00  0.62318699313E+03  0.62318699313E+03  0.00000000000E+00 0.  1.
         21   -1    0    0  501  503 -0.00000000000E+00 -0.00000000000E+00 -0.58683320432E+02  0.58683320432E+02  0.00000000000E+00 0.  1.
          6    2    1    2  501    0 -0.17542070387E+02 -0.71350613180E+02  0.21665972620E+03  0.28697630470E+03  0.17324932400E+03 0.  0.
         24    2    3    3    0    0 -0.41815675925E+02 -0.64180129170E+02  0.23251273065E+03  0.25674335054E+03  0.77377893479E+02 0.  0.
         -6    2    1    2    0  502  0.17542070387E+02  0.71350613180E+02  0.34784394650E+03  0.39489400886E+03  0.17189308563E+03 0.  0.
        -24    2    5    5    0    0 -0.21742325969E+02 -0.17882035011E+02  0.11690086542E+03  0.14417000523E+03  0.79540443535E+02 0.  0.
          5    1    3    3  501    0  0.24273605537E+02 -0.71704840098E+01 -0.15853004452E+02  0.30232954154E+02  0.47000000000E+01 0. -1.
        -11    1    4    4    0    0 -0.32961157261E+02 -0.32581265532E+02  0.39306011557E+02  0.60769558960E+02  0.00000000000E+00 0.  1.
         12    1    4    4    0    0 -0.88545186637E+01 -0.31598863638E+02  0.19320671910E+03  0.19597379158E+03  0.00000000000E+00 0. -1.
         -5    1    5    5    0  502  0.39284396356E+02  0.89232648191E+02  0.23094308107E+03  0.25072400363E+03  0.47000000000E+01 0.  1.
         11    1    6    6    0    0  0.28263230775E+02 -0.44734763316E+01  0.64225769949E+02  0.70311960077E+02  0.00000000000E+00 0. -1.
        -12    1    6    6    0    0 -0.50005556744E+02 -0.13408558680E+02  0.52675095474E+02  0.73858045157E+02  0.00000000000E+00 0.  1.
</event>
<event>
12    1  0.8135779E-002  0.2369500E+03  0.7818608E-02  0.1122304E+00
         21   -1    0    0  501  502  0.00000000000E+00  0.00000000000E+00  0.52063660817E+02  0.52063660817E+02  0.00000000000E+00 0.  1.
         21   -1    0    0  502  503 -0.00000000000E+00 -0.00000000000E+00 -0.16340469538E+04  0.16340469538E+04  0.00000000000E+00 0.  1.
         -6    2    1    2    0  503  0.62421985007E+02  0.15129040506E+03 -0.12850449602E+04  0.13062189590E+04  0.16757723091E+03 0.  0.
        -24    2    3    3    0    0  0.30091350774E+02  0.88948226215E+02 -0.40469608911E+03  0.42306096524E+03  0.79902311780E+02 0.  0.
          6    2    1    2  501    0 -0.62421985007E+02 -0.15129040506E+03 -0.29693833284E+03  0.37989165564E+03  0.17134761639E+03 0.  0.
         24    2    5    5    0    0 -0.91798546055E+02 -0.36346260867E+02 -0.18633802633E+03  0.21762749933E+03  0.53775874448E+02 0.  0.
          5    1    5    5  501    0  0.29376561048E+02 -0.11494414419E+03 -0.11060030651E+03  0.16226415631E+03  0.47000000000E+01 0. -1.
        -13    1    6    6    0    0 -0.24990397726E+02 -0.19619181096E+02 -0.11143128466E+03  0.11587218582E+03  0.00000000000E+00 0.  1.
         14    1    6    6    0    0 -0.66808148329E+02 -0.16727079771E+02 -0.74906741668E+02  0.10175531351E+03  0.00000000000E+00 0. -1.
         -5    1    3    3    0  503  0.32330634233E+02  0.62342178842E+02 -0.88034887107E+03  0.88315799377E+03  0.47000000000E+01 0.  1.
         13    1    4    4    0    0 -0.72934861364E+01  0.41391327344E+02 -0.60970213315E+02  0.74052709815E+02  0.00000000000E+00 0. -1.
        -14    1    4    4    0    0  0.37384836910E+02  0.47556898871E+02 -0.34372587580E+03  0.34900825542E+03  0.00000000000E+00 0.  1.
</event>
<event>
12    1  0.8135779E-002  0.2422876E+03  0.7818608E-02  0.1118420E+00
         21   -1    0    0  501  502  0.00000000000E+00  0.00000000000E+00  0.85848545519E+02  0.85848545519E+02  0.00000000000E+00 0. -1.
         21   -1    0    0  502  503 -0.00000000000E+00 -0.00000000000E+00 -0.10666724149E+04  0.10666724149E+04  0.00000000000E+00 0. -1.
         -6    2    1    2    0  503 -0.10741395904E+03  0.13004761933E+03 -0.83619380255E+03  0.87034875431E+03  0.17273313756E+03 0.  0.
        -24    2    3    3    0    0 -0.11630289831E+03  0.11927024599E+03 -0.83534700293E+03  0.85558487652E+03  0.80430777003E+02 0.  0.
          6    2    1    2  501    0  0.10741395904E+03 -0.13004761933E+03 -0.14463006687E+03  0.28217220615E+03  0.17393434333E+03 0.  0.
         24    2    5    5    0    0  0.77539776031E+02 -0.67991055914E+02 -0.16455525368E+03  0.21032106181E+03  0.80754671545E+02 0.  0.
          5    1    5    5  501    0  0.29874183006E+02 -0.62056563421E+02  0.19925186808E+02  0.71851144342E+02  0.47000000000E+01 0. -1.
        -11    1    6    6    0    0  0.63614098347E+01 -0.58805976239E+02 -0.71050255390E+02  0.92448629884E+02  0.00000000000E+00 0.  1.
         12    1    6    6    0    0  0.71178366197E+02 -0.91850796751E+01 -0.93504998289E+02  0.11787243193E+03  0.00000000000E+00 0. -1.
         -5    1    3    3    0  503  0.88889392745E+01  0.10777373349E+02 -0.84679961782E+00  0.14763877787E+02  0.47000000000E+01 0.  1.
         11    1    4    4    0    0 -0.59459819794E+02  0.68380975688E+02 -0.63074162460E+03  0.63721772183E+03  0.00000000000E+00 0. -1.
        -12    1    4    4    0    0 -0.56843078518E+02  0.50889270298E+02 -0.20460537833E+03  0.21836715469E+03  0.00000000000E+00 0.  1.
</event>
<event>
12    1  0.8135779E-002  0.2128652E+03  0.7818608E-02  0.1139763E+00
         21   -1    0    0  503  502  0.00000000000E+00  0.00000000000E+00  0.29219264282E+03  0.29219264282E+03  0.00000000000E+00 0. -1.
         21   -1    0    0  501  503 -0.00000000000E+00 -0.00000000000E+00 -0.26121129887E+03  0.26121129887E+03  0.00000000000E+00 0. -1.
          6    2    1    2  501    0 -0.97033536022E+02  0.72278129904E+02 -0.16230637705E+03  0.26587700177E+03  0.17235888392E+03 0.  0.
         24    2    3    3    0    0 -0.10234777392E+03  0.10971594001E+03 -0.14610423708E+03  0.22447132475E+03  0.80797730294E+02 0.  0.
         -6    2    1    2    0  502  0.97033536022E+02 -0.72278129904E+02  0.19328772100E+03  0.28752693992E+03  0.17513412835E+03 0.  0.
        -24    2    5    5    0    0 -0.16422204253E+02 -0.43578146208E+02  0.61440081318E+02  0.11116996060E+03  0.80094524952E+02 0.  0.
          5    1    3    3  501    0  0.53142379011E+01 -0.37437810109E+02 -0.16202139966E+02  0.41405677022E+02  0.47000000000E+01 0. -1.
        -13    1    4    4    0    0 -0.23396912756E+02  0.51265765361E+02 -0.10977344321E+02  0.57411639176E+02  0.00000000000E+00 0.  1.
         14    1    4    4    0    0 -0.78950861168E+02  0.58450174653E+02 -0.13512689276E+03  0.16705968557E+03  0.00000000000E+00 0. -1.
         -5    1    5    5    0  502  0.11345574028E+03 -0.28699983697E+02  0.13184763968E+03  0.17635697932E+03  0.47000000000E+01 0.  1.
         13    1    6    6    0    0 -0.91219598219E+00 -0.47261758606E+02 -0.43678063417E+00  0.47272578789E+02  0.00000000000E+00 0. -1.
        -14    1    6    6    0    0 -0.15510008271E+02  0.36836123979E+01  0.61876861952E+02  0.63897381808E+02  0.00000000000E+00 0.  1.
</event>
<event>
12    1  0.8135779E-002  0.2967296E+03  0.7818608E-02  0.1087452E+00
         21   -1    0    0  503  502  0.00000000000E+00  0.00000000000E+00  0.21382446372E+03  0.21382446372E+03  0.00000000000E+00 0. -1.
         21   -1    0    0  501  503 -0.00000000000E+00 -0.00000000000E+00 -0.43393696185E+03  0.43393696185E+03  0.00000000000E+00 0.  1.
          6    2    1    2  501    0  0.20148565554E+03 -0.13311730790E+03 -0.19349428776E+03  0.35424358318E+03  0.17242908623E+03 0.  0.
         24    2    3    3    0    0  0.38620019611E+02 -0.96901060856E+02 -0.59980490842E+02  0.14050342345E+03  0.72541237986E+02 0.  0.
         -6    2    1    2    0  502 -0.20148565554E+03  0.13311730790E+03 -0.26618210369E+02  0.29351784239E+03  0.16470430361E+03 0.  0.
        -24    2    5    5    0    0 -0.13987537836E+03  0.14328893506E+03  0.20299516902E+02  0.21527046936E+03  0.76370571623E+02 0.  0.
          5    1    3    3  501    0  0.16286563593E+03 -0.36216247045E+02 -0.13351379692E+03  0.21374015973E+03  0.47000000000E+01 0. -1.
        -13    1    4    4    0    0  0.63730390665E+01  0.31193285974E+01 -0.30559725398E+02  0.31372641812E+02  0.00000000000E+00 0.  1.
         14    1    4    4    0    0  0.32246980544E+02 -0.10002038945E+03 -0.29420765444E+02  0.10913078163E+03  0.00000000000E+00 0. -1.
         -5    1    5    5    0  502 -0.61610277180E+02 -0.10171627164E+02 -0.46917727271E+02  0.78247373027E+02  0.47000000000E+01 0.  1.
         13    1    6    6    0    0 -0.98074907471E+01  0.72172115702E+01  0.24092911211E+02  0.26995247512E+02  0.00000000000E+00 0. -1.
        -14    1    6    6    0    0 -0.13006788761E+03  0.13607172349E+03 -0.37933943082E+01  0.18827522185E+03  0.00000000000E+00 0.  1.
</event>
<event>
12    1  0.8135779E-002  0.2168087E+03  0.7818608E-02  0.1136358E+00
         21   -1    0    0  503  502  0.00000000000E+00  0.00000000000E+00  0.31558516536E+03  0.31558516536E+03  0.00000000000E+00 0.  1.
         21   -1    0    0  501  503 -0.00000000000E+00 -0.00000000000E+00 -0.25195462027E+03  0.25195462027E+03  0.00000000000E+00 0. -1.
          6    2    1    2  501    0 -0.56011506237E+02  0.11988563429E+03 -0.14987459819E+03  0.26325294748E+03  0.17125964216E+03 0.  0.
         24    2    3    3    0    0  0.45815310318E+01  0.10832881301E+02 -0.25317593215E+02  0.86899448539E+02  0.82293328322E+02 0.  0.
         -6    2    1    2    0  502  0.56011506237E+02 -0.11988563429E+03  0.21350514328E+03  0.30428683815E+03  0.17174451818E+03 0.  0.
        -24    2    5    5    0    0  0.31005743689E+02 -0.15061610483E+03  0.18822750897E+03  0.25705656421E+03  0.83677445550E+02 0.  0.
          5    1    3    3  501    0 -0.60593037269E+02  0.10905275299E+03 -0.12455700498E+03  0.17635349894E+03  0.47000000000E+01 0. -1.
        -13    1    4    4    0    0  0.10014848990E+02  0.30125776198E+01  0.29480280564E+02  0.31280341531E+02  0.00000000000E+00 0.  1.
         14    1    4    4    0    0 -0.54333179585E+01  0.78203036807E+01 -0.54797873779E+02  0.55619107008E+02  0.00000000000E+00 0. -1.
         -5    1    5    5    0  502  0.25005762548E+02  0.30730470540E+02  0.25277634310E+02  0.47230273941E+02  0.47000000000E+01 0.  1.
         11    1    6    6    0    0 -0.43895015243E+01  0.97877852798E+01  0.13447498857E+02  0.17201851349E+02  0.00000000000E+00 0. -1.
        -12    1    6    6    0    0  0.35395245214E+02 -0.16040389011E+03  0.17478001011E+03  0.23985471286E+03  0.00000000000E+00 0.  1.
</event>
<event>
12    1  0.8135779E-002  0.2151993E+03  0.7818608E-02  0.1137622E+00
         21   -1    0    0  503  502  0.00000000000E+00  0.00000000000E+00  0.56862488528E+03  0.56862488528E+03  0.00000000000E+00 0.  1.
         21   -1    0    0  501  503 -0.00000000000E+00 -0.00000000000E+00 -0.16719488556E+03  0.16719488556E+03  0.00000000000E+00 0. -1.
          6    2    1    2  501    0 -0.76523990316E+02 -0.10411088761E+03 -0.62967171766E+02  0.22422222939E+03  0.17209225845E+03 0.  0.
         24    2    3    3    0    0 -0.90145048756E+02 -0.32276440123E+02 -0.79067274964E+02  0.14920873459E+03  0.82726743597E+02 0.  0.
         -6    2    1    2    0  502  0.76523990316E+02  0.10411088761E+03  0.46439717149E+03  0.51159754145E+03  0.17138352755E+03 0.  0.
        -24    2    5    5    0    0  0.69422251136E+02  0.13002178986E+03  0.45118960480E+03  0.48129342666E+03  0.79662966811E+02 0.  0.
          5    1    3    3  501    0  0.13621058440E+02 -0.71834447485E+02  0.16100103198E+02  0.75013494796E+02  0.47000000000E+01 0. -1.
        -13    1    4    4    0    0 -0.90974484476E+02 -0.53028797851E+02 -0.61083757314E+02  0.12173592582E+03  0.00000000000E+00 0.  1.
         14    1    4    4    0    0  0.82943571962E+00  0.20752357728E+02 -0.17983517650E+02  0.27472808774E+02  0.00000000000E+00 0. -1.
         -5    1    5    5    0  502  0.71017391801E+01 -0.25910902253E+02  0.13207566697E+02  0.30304114787E+02  0.47000000000E+01 0.  1.
         11    1    6    6    0    0  0.34712846860E+02  0.50227382497E+02  0.83460219300E+02  0.10340879989E+03  0.00000000000E+00 0. -1.
        -12    1    6    6    0    0  0.34709404276E+02  0.79794407365E+02  0.36772938550E+03  0.37788462677E+03  0.00000000000E+00 0.  1.
</event>
<event>
12    1  0.8135779E-002  0.2395244E+03  0.7818608E-02  0.1120147E+00
         21   -1    0    0  503  502  0.00000000000E+00  0.00000000000E+00  0.13847783478E+03  0.13847783478E+03  0.00000000000E+00 0. -1.
         21   -1    0    0  501  503 -0.00000000000E+00 -0.00000000000E+00 -0.70763119583E+03  0.70763119583E+03  0.00000000000E+00 0. -1.
          6    2    1    2  501    0 -0.16173560527E+03 -0.38149113688E+02 -0.11944353431E+02  0.23959947663E+03  0.17219605320E+03 0.  0.
         24    2    3    3    0    0 -0.64345702857E+02  0.37375769674E+02  0.22985552986E+02  0.11141605547E+03  0.79673610032E+02 0.  0.
         -6    2    1    2    0  502  0.16173560527E+03  0.38149113688E+02 -0.55720900762E+03  0.60650955398E+03  0.17250565212E+03 0.  0.
        -24    2    5    5    0    0  0.18306028303E+03  0.19412563114E+02 -0.52915011726E+03  0.56632010839E+03  0.82648071569E+02 0.  0.
          5    1    3    3  501    0 -0.97389902412E+02 -0.75524883363E+02 -0.34929906417E+02  0.12818342116E+03  0.47000000000E+01 0. -1.
        -11    1    4    4    0    0 -0.14137160561E+02  0.37554479851E+02 -0.20439803672E+02  0.45033141572E+02  0.00000000000E+00 0.  1.
         12    1    4    4    0    0 -0.50208542296E+02 -0.17871017699E+00  0.43425356658E+02  0.66382913899E+02  0.00000000000E+00 0. -1.
         -5    1    5    5    0  502 -0.21324677763E+02  0.18736550575E+02 -0.28058890357E+02  0.40189445595E+02  0.47000000000E+01 0.  1.
         11    1    6    6    0    0  0.48104289493E+02 -0.19039254827E+02 -0.23205066797E+03  0.23774782522E+03  0.00000000000E+00 0. -1.
        -12    1    6    6    0    0  0.13495599354E+03  0.38451817941E+02 -0.29709944930E+03  0.32857228317E+03  0.00000000000E+00 0.  1.
</event>
<event>
12    1  0.8135779E-002  0.1828900E+03  0.7818608E-02  0.1165493E+00
         21   -1    0    0  501  502  0.00000000000E+00  0.00000000000E+00  0.11571884024E+03  0.11571884024E+03  0.00000000000E+00 0. -1.
         21   -1    0    0  502  503 -0.00000000000E+00 -0.00000000000E+00 -0.38465190635E+03  0.38465190635E+03  0.00000000000E+00 0. -1.
         -6    2    1    2    0  503 -0.54270267756E+02 -0.13992178788E+02 -0.26167742832E+03  0.31925512429E+03  0.17409111080E+03 0.  0.
        -24    2    3    3    0    0 -0.87355694569E+02  0.18838342312E+02 -0.24048371123E+03  0.26783769313E+03  0.76933178642E+02 0.  0.
          6    2    1    2  501    0  0.54270267756E+02  0.13992178788E+02 -0.72556377798E+01  0.18111562230E+03  0.17207318598E+03 0.  0.
         24    2    5    5    0    0  0.42765526109E+02  0.75461015390E+02 -0.73011116661E+01  0.11840303169E+03  0.80266534838E+02 0.  0.
          5    1    5    5  501    0  0.11504741647E+02 -0.61468836602E+02  0.45473886346E-01  0.62712590613E+02  0.47000000000E+01 0. -1.
        -13    1    6    6    0    0 -0.15021736264E+02  0.84198406362E-01 -0.17285193429E+02  0.22900601775E+02  0.00000000000E+00 0.  1.
         14    1    6    6    0    0  0.57787262373E+02  0.75376816984E+02  0.99840817631E+01  0.95502429916E+02  0.00000000000E+00 0. -1.
         -5    1    3    3    0  503  0.33085426813E+02 -0.32830521100E+02 -0.21193717090E+02  0.51417431161E+02  0.47000000000E+01 0.  1.
         11    1    4    4    0    0 -0.32675438399E+02 -0.30114435565E+02 -0.95818458861E+02  0.10562073926E+03  0.00000000000E+00 0. -1.
        -12    1    4    4    0    0 -0.54680256170E+02  0.48952777877E+02 -0.14466525237E+03  0.16221695386E+03  0.00000000000E+00 0.  1.
</event>
<event>
12    1  0.8135779E-002  0.2221853E+03  0.7818608E-02  0.1132513E+00
         21   -1    0    0  503  502  0.00000000000E+00  0.00000000000E+00  0.92498689083E+02  0.92498689083E+02  0.00000000000E+00 0. -1.
         21   -1    0    0  501  503 -0.00000000000E+00 -0.00000000000E+00 -0.88213800785E+03  0.88213800785E+03  0.00000000000E+00 0.  1.
          6    2    1    2  501    0 -0.13135303563E+02 -0.13759377286E+03 -0.70322783807E+03  0.73749286192E+03  0.17395903720E+03 0.  0.
         24    2    3    3    0    0 -0.72305204624E+02 -0.58943423777E+02 -0.43298638871E+03  0.44984814086E+03  0.78636932838E+02 0.  0.
         -6    2    1    2    0  502  0.13135303563E+02  0.13759377286E+03 -0.86411480705E+02  0.23714383502E+03  0.17223725485E+03 0.  0.
        -24    2    5    5    0    0  0.95908950702E+01  0.16470580097E+03 -0.69634030079E+02  0.20472165512E+03  0.99207216400E+02 0.  0.
          5    1    3    3  501    0  0.59169901061E+02 -0.78650349086E+02 -0.27024144936E+03  0.28764472106E+03  0.47000000000E+01 0. -1.
        -13    1    4    4    0    0 -0.25808880456E+02 -0.61679065709E+02 -0.33161923200E+03  0.33829235949E+03  0.00000000000E+00 0.  1.
         14    1    4    4    0    0 -0.46496324169E+02  0.27356419324E+01 -0.10136715671E+03  0.11155578137E+03  0.00000000000E+00 0. -1.
         -5    1    5    5    0  502  0.35444084928E+01 -0.27112028111E+02 -0.16777450626E+02  0.32422179899E+02  0.47000000000E+01 0.  1.
         11    1    6    6    0    0  0.52214382992E+02  0.61304213957E+02 -0.25220914744E+02  0.84383902379E+02  0.00000000000E+00 0. -1.
        -12    1    6    6    0    0 -0.42623487922E+02  0.10340158702E+03 -0.44413115334E+02  0.12033775274E+03  0.00000000000E+00 0.  1.
</event>
<event>
12    1  0.8135779E-002  0.1748207E+03  0.7818608E-02  0.1172974E+00
         21   -1    0    0  503  502  0.00000000000E+00  0.00000000000E+00  0.49659256137E+03  0.49659256137E+03  0.00000000000E+00 0.  1.
         21   -1    0    0  501  503 -0.00000000000E+00 -0.00000000000E+00 -0.62642599715E+02  0.62642599715E+02  0.00000000000E+00 0.  1.
          6    2    1    2  501    0  0.18965831531E+02 -0.18837351085E+02  0.17836523798E+03  0.24958076853E+03  0.17251624080E+03 0.  0.
         24    2    3    3    0    0  0.15482120428E+02 -0.79101650719E+02  0.13088822708E+03  0.17263872139E+03  0.78585195414E+02 0.  0.
         -6    2    1    2    0  502 -0.18965831531E+02  0.18837351085E+02  0.25558472368E+03  0.30965439256E+03  0.17276499440E+03 0.  0.
        -24    2    5    5    0    0 -0.78634233006E+02 -0.35309105737E+01  0.14539048458E+03  0.18227496881E+03  0.76746083399E+02 0.  0.
          5    1    3    3  501    0  0.34837111024E+01  0.60264299633E+02  0.47477010904E+02  0.76942047137E+02  0.47000000000E+01 0. -1.
        -11    1    4    4    0    0  0.23730395408E+02 -0.10186476512E+00  0.65797137881E+02  0.69945731793E+02  0.00000000000E+00 0.  1.
         12    1    4    4    0    0 -0.82482749794E+01 -0.78999785953E+02  0.65091089194E+02  0.10269298960E+03  0.00000000000E+00 0. -1.
         -5    1    5    5    0  502  0.59668401475E+02  0.22368261659E+02  0.11019423909E+03  0.12737942375E+03  0.47000000000E+01 0.  1.
         11    1    6    6    0    0 -0.54357349097E+01 -0.25362938121E+02  0.12040626444E+02  0.28597246884E+02  0.00000000000E+00 0. -1.
        -12    1    6    6    0    0 -0.73198498096E+02  0.21832027548E+02  0.13334985814E+03  0.15367772193E+03  0.00000000000E+00 0.  1.
</event>
<event>
12    1  0.8135779E-002  0.2194424E+03  0.7818608E-02  0.1134476E+00
         21   -1    0    0  503  502  0.00000000000E+00  0.00000000000E+00  0.60910539849E+02  0.60910539849E+02  0.00000000000E+00 0.  1.
         21   -1    0    0  501  503 -0.00000000000E+00 -0.00000000000E+00 -0.85042825944E+03  0.85042825944E+03  0.00000000000E+00 0. -1.
          6    2    1    2  501    0  0.27597811745E+01 -0.13457138183E+03 -0.51821826411E+03  0.56239987313E+03  0.17212313860E+03 0.  0.
         24    2    3    3    0    0 -0.79495138109E+01 -0.12832264714E+03 -0.23894422591E+03  0.28281122154E+03  0.79736738058E+02 0.  0.
         -6    2    1    2    0  502 -0.27597811745E+01  0.13457138183E+03 -0.27129945549E+03  0.34893892616E+03  0.17331447270E+03 0.  0.
        -24    2    5    5    0    0 -0.30964453003E+02  0.65319368786E+02 -0.24844878639E+03  0.27060893254E+03  0.79227379256E+02 0.  0.
          5    1    3    3  501    0  0.10709294985E+02 -0.62487346884E+01 -0.27927403820E+03  0.27958865158E+03  0.47000000000E+01 0. -1.
        -11    1    4    4    0    0 -0.33241893784E+02 -0.10520124085E+03 -0.21283047785E+03  0.23972721347E+03  0.00000000000E+00 0.  1.
         12    1    4    4    0    0  0.25292379973E+02 -0.23121406291E+02 -0.26113748064E+02  0.43084008071E+02  0.00000000000E+00 0. -1.
         -5    1    5    5    0  502  0.28204671828E+02  0.69252013040E+02 -0.22850669096E+02  0.78329993624E+02  0.47000000000E+01 0.  1.
         13    1    6    6    0    0  0.15665096493E+02  0.56443054988E+02 -0.15707108367E+03  0.16763811926E+03  0.00000000000E+00 0. -1.
        -14    1    6    6    0    0 -0.46629549496E+02  0.88763137979E+01 -0.91377702725E+02  0.10297081328E+03  0.00000000000E+00 0.  1.
</event>
<event>
12    1  0.8135779E-002  0.2340607E+03  0.7818608E-02  0.1123868E+00
         21   -1    0    0  501  502  0.00000000000E+00  0.00000000000E+00  0.81047833357E+02  0.81047833357E+02  0.00000000000E+00 0. -1.
         21   -1    0    0  502  503 -0.00000000000E+00 -0.00000000000E+00 -0.86358911914E+03  0.86358911914E+03  0.00000000000E+00 0.  1.
         -6    2    1    2    0  503 -0.34958033246E+02 -0.15495573393E+03 -0.17037637890E+03  0.28925134950E+03  0.17147853841E+03 0.  0.
        -24    2    3    3    0    0  0.28341756862E+02 -0.10692750655E+03 -0.15606640501E+03  0.20837836634E+03  0.82632160479E+02 0.  0.
          6    2    1    2  501    0  0.34958033246E+02  0.15495573393E+03 -0.61216490688E+03  0.65538560300E+03  0.17190425193E+03 0.  0.
         24    2    5    5    0    0  0.15099649064E+02  0.18127446537E+03 -0.54506408373E+03  0.58047471250E+03  0.82265456223E+02 0.  0.
          5    1    5    5  501    0  0.19858384182E+02 -0.26318731437E+02 -0.67100823157E+02  0.74910890497E+02  0.47000000000E+01 0. -1.
        -11    1    6    6    0    0  0.45112708696E+02  0.11606298087E+03 -0.39424294715E+03  0.41344077374E+03  0.00000000000E+00 0.  1.
         12    1    6    6    0    0 -0.30013059632E+02  0.65211484502E+02 -0.15082113657E+03  0.16703393875E+03  0.00000000000E+00 0. -1.
         -5    1    3    3    0  503 -0.63299790107E+02 -0.48028227383E+02 -0.14309973889E+02  0.80872983165E+02  0.47000000000E+01 0.  1.
         11    1    4    4    0    0  0.35602320609E+02 -0.69903326269E+02 -0.43594288353E+02  0.89746655833E+02  0.00000000000E+00 0. -1.
        -12    1    4    4    0    0 -0.72605637476E+01 -0.37024180278E+02 -0.11247211666E+03  0.11863171050E+03  0.00000000000E+00 0.  1.
</event>
<event>
12    1  0.8135779E-002  0.4695711E+03  0.7818608E-02  0.1022165E+00
         21   -1    0    0  503  502  0.00000000000E+00  0.00000000000E+00  0.89620695584E+02  0.89620695584E+02  0.00000000000E+00 0. -1.
         21   -1    0    0  501  503 -0.00000000000E+00 -0.00000000000E+00 -0.24869161907E+04  0.24869161907E+04  0.00000000000E+00 0.  1.
          6    2    1    2  501    0 -0.22765187963E+03 -0.37221814069E+03 -0.10464933965E+04  0.11470158921E+04  0.17356642878E+03 0.  0.
         24    2    3    3    0    0 -0.14721597999E+03 -0.24917905505E+03 -0.85049504242E+03  0.90197304818E+03  0.80316973385E+02 0.  0.
         -6    2    1    2    0  502  0.22765187963E+03  0.37221814069E+03 -0.13508020986E+04  0.14295209942E+04  0.16879644754E+03 0.  0.
        -24    2    5    5    0    0  0.55485845590E+02  0.19429522139E+03 -0.71354008617E+03  0.74583782856E+03  0.79405918041E+02 0.  0.
          5    1    3    3  501    0 -0.80435899636E+02 -0.12303908564E+03 -0.19599835409E+03  0.24504284391E+03  0.47000000000E+01 0. -1.
        -11    1    4    4    0    0 -0.49893629602E+02 -0.28212717258E+02 -0.20252792848E+03  0.21048252541E+03  0.00000000000E+00 0.  1.
         12    1    4    4    0    0 -0.97322350389E+02 -0.22096633779E+03 -0.64796711395E+03  0.69149052277E+03  0.00000000000E+00 0. -1.
         -5    1    5    5    0  502  0.17216603404E+03  0.17792291930E+03 -0.63726201241E+03  0.68368316562E+03  0.47000000000E+01 0.  1.
         13    1    6    6    0    0 -0.85586623925E+01  0.10283065094E+02 -0.12803539541E+02  0.18518173627E+02  0.00000000000E+00 0. -1.
        -14    1    6    6    0    0  0.64044507982E+02  0.18401215629E+03 -0.70073654663E+03  0.72731965493E+03  0.00000000000E+00 0.  1.
</event>
<event>
12    1  0.8135779E-002  0.2175680E+03  0.7818608E-02  0.1136127E+00
         21   -1    0    0  503  502  0.00000000000E+00  0.00000000000E+00  0.20488347631E+04  0.20488347631E+04  0.00000000000E+00 0. -1.
         21   -1    0    0  501  503 -0.00000000000E+00 -0.00000000000E+00 -0.23481450285E+02  0.23481450285E+02  0.00000000000E+00 0. -1.
          6    2    1    2  501    0 -0.63568084809E+02 -0.11675009494E+03  0.11847719360E+04  0.12045830680E+04  0.17223339242E+03 0.  0.
         24    2    3    3    0    0 -0.55069278831E+02 -0.21734850312E+02  0.86199916167E+03  0.86797575937E+03  0.82670036614E+02 0.  0.
         -6    2    1    2    0  502  0.63568084809E+02  0.11675009494E+03  0.84058137689E+03  0.86773314539E+03  0.16944696623E+03 0.  0.
        -24    2    5    5    0    0  0.10877377981E+03  0.94015814178E+02  0.63005791786E+03  0.65116302007E+03  0.79809713398E+02 0.  0.
          5    1    3    3  501    0 -0.84988059778E+01 -0.95015244631E+02  0.32277277429E+03  0.33660730865E+03  0.47000000000E+01 0. -1.
        -13    1    4    4    0    0 -0.45789744211E+00 -0.42845158525E+02  0.39674139239E+03  0.39904843029E+03  0.00000000000E+00 0.  1.
         14    1    4    4    0    0 -0.54611381389E+02  0.21110308212E+02  0.46525776927E+03  0.46892732908E+03  0.00000000000E+00 0. -1.
         -5    1    5    5    0  502 -0.45205695001E+02  0.22734280765E+02  0.21052345903E+03  0.21657012532E+03  0.47000000000E+01 0.  1.
         11    1    6    6    0    0  0.41522955259E+02  0.28498422562E+02  0.39260439919E+03  0.39582133617E+03  0.00000000000E+00 0. -1.
        -12    1    6    6    0    0  0.67250824550E+02  0.65517391617E+02  0.23745351867E+03  0.25534168390E+03  0.00000000000E+00 0.  1.
</event>
<event>
12    1  0.8135779E-002  0.2937324E+03  0.7818608E-02  0.1088419E+00
         21   -1    0    0  503  502  0.00000000000E+00  0.00000000000E+00  0.22830942345E+04  0.22830942345E+04  0.00000000000E+00 0.  1.
         21   -1    0    0  501  503 -0.00000000000E+00 -0.00000000000E+00 -0.41476004891E+02  0.41476004891E+02  0.00000000000E+00 0.  1.
          6    2    1    2  501    0  0.23764474177E+03  0.67352601040E+01  0.77416035820E+03  0.82800372621E+03  0.17246890559E+03 0.  0.
         24    2    3    3    0    0  0.12784412877E+03  0.59597300883E+02  0.37883207259E+03  0.41429233723E+03  0.90710759732E+02 0.  0.
         -6    2    1    2    0  502 -0.23764474177E+03 -0.67352601040E+01  0.14674578714E+04  0.14965665132E+04  0.17250604914E+03 0.  0.
        -24    2    5    5    0    0 -0.75450040694E+02  0.13095300354E+02  0.87185866765E+03  0.87894132449E+03  0.80846273923E+02 0.  0.
          5    1    3    3  501    0  0.10980061300E+03 -0.52862040779E+02  0.39532828561E+03  0.41371138898E+03  0.47000000000E+01 0. -1.
        -11    1    4    4    0    0  0.10762979508E+03  0.16475744667E+02  0.32326133634E+03  0.34110630970E+03  0.00000000000E+00 0.  1.
         12    1    4    4    0    0  0.20214333696E+02  0.43121556216E+02  0.55570736255E+02  0.73186027528E+02  0.00000000000E+00 0. -1.
         -5    1    5    5    0  502 -0.16219470108E+03 -0.19830560458E+02  0.59559920378E+03  0.61762518871E+03  0.47000000000E+01 0.  1.
         11    1    6    6    0    0  0.96774159920E+01 -0.12234725646E+02  0.52096293266E+02  0.54381657422E+02  0.00000000000E+00 0. -1.
        -12    1    6    6    0    0 -0.85127456686E+02  0.25330026000E+02  0.81976237438E+03  0.82455966707E+03  0.00000000000E+00 0.  1.
</event>
<event>
12    1  0.8135779E-002  0.1902101E+03  0.7818608E-02  0.1158508E+00
         21   -1    0    0  501  502  0.00000000000E+00  0.00000000000E+00  0.54645791020E+02  0.54645791020E+02  0.00000000000E+00 0.  1.
         21   -1    0    0  502  503 -0.00000000000E+00 -0.00000000000E+00 -0.86137796264E+03  0.86137796264E+03  0.00000000000E+00 0.  1.
         -6    2    1    2    0  503 -0.67197798936E+02  0.44923207697E+02 -0.62652286600E+03  0.65476010871E+03  0.17218089200E+03 0.  0.
        -24    2    3    3    0    0 -0.82253150658E+02  0.81626297492E+02 -0.38199439907E+03  0.40698997017E+03  0.79326424732E+02 0.  0.
          6    2    1    2  501    0  0.67197798936E+02 -0.44923207697E+02 -0.18020930562E+03  0.26126364495E+03  0.17102531850E+03 0.  0.
         24    2    5    5    0    0  0.98027693015E+02 -0.19652771450E+02 -0.17848247575E+03  0.22108716851E+03  0.83832463344E+02 0.  0.
          5    1    5    5  501    0 -0.30829894079E+02 -0.25270436247E+02 -0.17268298744E+01  0.40176476431E+02  0.47000000000E+01 0. -1.
        -11    1    6    6    0    0  0.55845608711E+02  0.12613157512E+02 -0.15057795468E+03  0.16109482980E+03  0.00000000000E+00 0.  1.
         12    1    6    6    0    0  0.42182084304E+02 -0.32265928962E+02 -0.27904521068E+02  0.59992338711E+02  0.00000000000E+00 0. -1.
         -5    1    3    3    0  503  0.15055351722E+02 -0.36703089795E+02 -0.24452846693E+03  0.24777013854E+03  0.47000000000E+01 0.  1.
         11    1    4    4    0    0 -0.35091560969E+01  0.65435843360E+01  0.21534895424E+01  0.77311182687E+01  0.00000000000E+00 0. -1.
        -12    1    4    4    0    0 -0.78743994561E+02  0.75082713156E+02 -0.38414788861E+03  0.39925885190E+03  0.00000000000E+00 0.  1.
</event>
<event>
12    1  0.8135779E-002  0.1944655E+03  0.7818608E-02  0.1154539E+00
         21   -1    0    0  503  502  0.00000000000E+00  0.00000000000E+00  0.10577405551E+03  0.10577405551E+03  0.00000000000E+00 0.  1.
         21   -1    0    0  501  503 -0.00000000000E+00 -0.00000000000E+00 -0.49410649848E+03  0.49410649848E+03  0.00000000000E+00 0.  1.
          6    2    1    2  501    0  0.71627181431E+02  0.56065240480E+02 -0.35200673951E+03  0.40205134593E+03  0.17164724232E+03 0.  0.
         24    2    3    3    0    0  0.10166438464E+03  0.79234267053E+02 -0.31051552872E+03  0.34563638389E+03  0.80192893178E+02 0.  0.
         -6    2    1    2    0  502 -0.71627181431E+02 -0.56065240480E+02 -0.36325703453E+02  0.19782920806E+03  0.17188098941E+03 0.  0.
        -24    2    5    5    0    0 -0.50530123902E+02 -0.10054714044E+03 -0.49457434491E+02  0.14666029542E+03  0.80001147191E+02 0.  0.
          5    1    3    3  501    0 -0.30037203207E+02 -0.23169026573E+02 -0.41491210794E+02  0.56414962040E+02  0.47000000000E+01 0. -1.
        -11    1    4    4    0    0  0.83088510815E+02  0.27618596031E+02 -0.24506591966E+03  0.26023795353E+03  0.00000000000E+00 0.  1.
         12    1    4    4    0    0  0.18575873823E+02  0.51615671021E+02 -0.65449609055E+02  0.85398430365E+02  0.00000000000E+00 0. -1.
         -5    1    5    5    0  502 -0.21097057530E+02  0.44481899965E+02  0.13131731038E+02  0.51168912642E+02  0.47000000000E+01 0.  1.
         13    1    6    6    0    0 -0.54058233602E+02 -0.77897516571E+02 -0.30107667223E+01  0.94865064299E+02  0.00000000000E+00 0. -1.
        -14    1    6    6    0    0  0.35281097002E+01 -0.22649623873E+02 -0.46446667769E+02  0.51795231117E+02  0.00000000000E+00 0.  1.
</event>
<event>
12    1  0.8135779E-002  0.1961075E+03  0.7818608E-02  0.1153073E+00
         21   -1    0    0  501  502  0.00000000000E+00  0.00000000000E+00  0.14044848365E+03  0.14044848365E+03  0.00000000000E+00 0.  1.
         21   -1    0    0  502  503 -0.00000000000E+00 -0.00000000000E+00 -0.40853520481E+03  0.40853520481E+03  0.00000000000E+00 0.  1.
         -6    2    1    2    0  503  0.68420352185E+02 -0.63179872074E+02  0.23598636328E+02  0.19752230207E+03  0.17258367057E+03 0.  0.
        -24    2    3    3    0    0  0.27062957856E+02 -0.98969020787E+02 -0.13916499111E+02  0.13103341113E+03  0.80304514946E+02 0.  0.
          6    2    1    2  501    0 -0.68420352185E+02  0.63179872074E+02 -0.29168535749E+03  0.35146138640E+03  0.17254482760E+03 0.  0.
         24    2    5    5    0    0 -0.77311868257E+02 -0.20474045882E+02 -0.17255773048E+03  0.20554867769E+03  0.77960098921E+02 0.  0.
          5    1    5    5  501    0  0.88915160722E+01  0.83653917957E+02 -0.11912762701E+03  0.14591270871E+03  0.47000000000E+01 0. -1.
        -11    1    6    6    0    0 -0.47729471665E+02  0.64936608643E+01 -0.15412884211E+03  0.16148055631E+03  0.00000000000E+00 0.  1.
         12    1    6    6    0    0 -0.29582396592E+02 -0.26967706747E+02 -0.18428888370E+02  0.44068121379E+02  0.00000000000E+00 0. -1.
         -5    1    3    3    0  503  0.41357394328E+02  0.35789148712E+02  0.37515135439E+02  0.66488890938E+02  0.47000000000E+01 0.  1.
         13    1    4    4    0    0 -0.14282568707E+02  0.71426053575E+01  0.18073621802E+01  0.16070940800E+02  0.00000000000E+00 0. -1.
        -14    1    4    4    0    0  0.41345526563E+02 -0.10611162614E+03 -0.15723861292E+02  0.11496247033E+03  0.00000000000E+00 0.  1.
</event>
<event>
12    1  0.8135779E-002  0.2022074E+03  0.7818608E-02  0.1148093E+00
         21   -1    0    0  503  502  0.00000000000E+00  0.00000000000E+00  0.52398520257E+03  0.52398520257E+03  0.00000000000E+00 0. -1.
         21   -1    0    0  501  503 -0.00000000000E+00 -0.00000000000E+00 -0.22071351410E+03  0.22071351410E+03  0.00000000000E+00 0. -1.
          6    2    1    2  501    0  0.73242875696E+02 -0.76502036885E+02 -0.14800676890E+03  0.25058698741E+03  0.17225200763E+03 0.  0.
         24    2    3    3    0    0  0.33744352228E+02 -0.99925990016E+02 -0.15495507381E+03  0.20390525782E+03  0.80264528151E+02 0.  0.
         -6    2    1    2    0  502 -0.73242875696E+02  0.76502036885E+02  0.45127845737E+03  0.49411172925E+03  0.17110544821E+03 0.  0.
        -24    2    5    5    0    0 -0.56522080598E+02  0.34333812911E+02  0.43366815012E+03  0.44522454255E+03  0.76047830700E+02 0.  0.
          5    1    3    3  501    0  0.39498523468E+02  0.23423953131E+02  0.69483049127E+01  0.46681729591E+02  0.47000000000E+01 0. -1.
        -11    1    4    4    0    0 -0.14416778341E+02 -0.68046357208E+02 -0.55873229119E+02  0.89218652530E+02  0.00000000000E+00 0.  1.
         12    1    4    4    0    0  0.48161130569E+02 -0.31879632808E+02 -0.99081844693E+02  0.11468660529E+03  0.00000000000E+00 0. -1.
         -5    1    5    5    0  502 -0.16720795099E+02  0.42168223974E+02  0.17610307245E+02  0.48887186697E+02  0.47000000000E+01 0.  1.
         13    1    6    6    0    0 -0.67780338446E+02  0.29227480793E+02  0.23840267606E+03  0.24956813873E+03  0.00000000000E+00 0. -1.
        -14    1    6    6    0    0  0.11258257849E+02  0.51063321182E+01  0.19526547406E+03  0.19565640383E+03  0.00000000000E+00 0.  1.
</event>
<event>
12    1  0.8135779E-002  0.2493339E+03  0.7818608E-02  0.1113890E+00
         21   -1    0    0  501  502  0.00000000000E+00  0.00000000000E+00  0.13426142889E+03  0.13426142889E+03  0.00000000000E+00 0. -1.
         21   -1    0    0  502  503 -0.00000000000E+00 -0.00000000000E+00 -0.48895746995E+03  0.48895746995E+03  0.00000000000E+00 0. -1.
         -6    2    1    2    0  503 -0.13861791717E+02  0.17978259361E+03 -0.25203163679E+03  0.35452406902E+03  0.17220174022E+03 0.  0.
        -24    2    3    3    0    0  0.48527960818E+02  0.81556698500E+02 -0.18598078918E+03  0.22063750448E+03  0.71313367544E+02 0.  0.
          6    2    1    2  501    0  0.13861791717E+02 -0.17978259361E+03 -0.10266440427E+03  0.26869482983E+03  0.17071321401E+03 0.  0.
         24    2    5    5    0    0  0.49574889691E+02 -0.13222801520E+03 -0.12567720715E+03  0.20475311894E+03  0.78658512753E+02 0.  0.
          5    1    5    5  501    0 -0.35713097973E+02 -0.47554578411E+02  0.23012802876E+02  0.63941710885E+02  0.47000000000E+01 0. -1.
        -13    1    6    6    0    0  0.19125050652E+02 -0.11956352023E+03 -0.12146297794E+03  0.17150643703E+03  0.00000000000E+00 0.  1.
         14    1    6    6    0    0  0.30449839039E+02 -0.12664494975E+02 -0.42142292028E+01  0.33246681913E+02  0.00000000000E+00 0. -1.
         -5    1    3    3    0  503 -0.62389752536E+02  0.98225895112E+02 -0.66050847615E+02  0.13388656453E+03  0.47000000000E+01 0.  1.
         13    1    4    4    0    0  0.23548295337E+02 -0.86659603925E+01 -0.39658043245E+02  0.46929537360E+02  0.00000000000E+00 0. -1.
        -14    1    4    4    0    0  0.24979665482E+02  0.90222658892E+02 -0.14632274593E+03  0.17370796712E+03  0.00000000000E+00 0.  1.
</event>
<event>
12    1  0.8135779E-002  0.1794730E+03  0.7818608E-02  0.1168645E+00
         21   -1    0    0  501  502  0.00000000000E+00  0.00000000000E+00  0.19221014762E+04  0.19221014762E+04  0.00000000000E+00 0. -1.
         21   -1    0    0  502  503 -0.00000000000E+00 -0.00000000000E+00 -0.22455529509E+02  0.22455529509E+02  0.00000000000E+00 0.  1.
         -6    2    1    2    0  503  0.14133359782E+02 -0.48491677616E+02  0.45734103033E+03  0.49129562103E+03  0.17221897273E+03 0.  0.
        -24    2    3    3    0    0  0.65310258834E+02 -0.87776637903E+01  0.35855518345E+03  0.37307120971E+03  0.79232762411E+02 0.  0.
          6    2    1    2  501    0 -0.14133359782E+02  0.48491677616E+02  0.14423049164E+04  0.14532613847E+04  0.17080393958E+03 0.  0.
         24    2    5    5    0    0 -0.22393280381E+02 -0.15529898280E+02  0.43546014904E+03  0.44433846198E+03  0.84074316187E+02 0.  0.
          5    1    5    5  501    0  0.82599205997E+01  0.64021575895E+02  0.10068447673E+04  0.10089229227E+04  0.47000000000E+01 0. -1.
        -13    1    6    6    0    0 -0.53975769192E+02 -0.85891975248E+01  0.30981818382E+03  0.31460207405E+03  0.00000000000E+00 0.  1.
         14    1    6    6    0    0  0.31582488811E+02 -0.69407007550E+01  0.12564196523E+03  0.12973638793E+03  0.00000000000E+00 0. -1.
         -5    1    3    3    0  503 -0.51176899052E+02 -0.39714013825E+02  0.98785846877E+02  0.11822441133E+03  0.47000000000E+01 0.  1.
         13    1    4    4    0    0  0.43479889181E+01  0.30317166769E+02  0.10849032535E+03  0.11273059169E+03  0.00000000000E+00 0. -1.
        -14    1    4    4    0    0  0.60962269916E+02 -0.39094830559E+02  0.25006485810E+03  0.26034061802E+03  0.00000000000E+00 0.  1.
</event>
<event>
12    1  0.8135779E-002  0.1997935E+03  0.7818608E-02  0.1150777E+00
         21   -1    0    0  503  502  0.00000000000E+00  0.00000000000E+00  0.10263622864E+03  0.10263622864E+03  0.00000000000E+00 0. -1.
         21   -1    0    0  501  503 -0.00000000000E+00 -0.00000000000E+00 -0.38653352069E+03  0.38653352069E+03  0.00000000000E+00 0. -1.
          6    2    1    2  501    0 -0.51591114451E+01  0.98552307775E+02 -0.17240192423E+03  0.26389369670E+03  0.17371898538E+03 0.  0.
         24    2    3    3    0    0 -0.54350239999E+02  0.46046644795E+02 -0.15682333089E+03  0.19012788929E+03  0.80503509785E+02 0.  0.
         -6    2    1    2    0  502  0.51591114451E+01 -0.98552307775E+02 -0.11149536781E+03  0.22527605263E+03  0.16905297703E+03 0.  0.
        -24    2    5    5    0    0 -0.55138992629E+02 -0.45354482864E+02 -0.27142108324E+02  0.10864229972E+03  0.77260064849E+02 0.  0.
          5    1    3    3  501    0  0.49191128553E+02  0.52505662980E+02 -0.15578593335E+02  0.73765807415E+02  0.47000000000E+01 0. -1.
        -11    1    4    4    0    0 -0.40177632525E+02  0.39841580771E+02 -0.33330634603E+02  0.65669817395E+02  0.00000000000E+00 0.  1.
         12    1    4    4    0    0 -0.14172607474E+02  0.62050640241E+01 -0.12349269629E+03  0.12445807189E+03  0.00000000000E+00 0. -1.
         -5    1    5    5    0  502  0.60298104074E+02 -0.53197824911E+02 -0.84353259491E+02  0.11663375291E+03  0.47000000000E+01 0.  1.
         13    1    6    6    0    0 -0.70325088263E+02 -0.41089041337E+02 -0.37608003917E+02  0.89712258448E+02  0.00000000000E+00 0. -1.
        -14    1    6    6    0    0  0.15186095634E+02 -0.42654415278E+01  0.10465895593E+02  0.18930041273E+02  0.00000000000E+00 0.  1.
</event>
<event>
12    1  0.8135779E-002  0.2146044E+03  0.7818608E-02  0.1138228E+00
         21   -1    0    0  501  502  0.00000000000E+00  0.00000000000E+00  0.51902390065E+03  0.51902390065E+03  0.00000000000E+00 0.  1.
         21   -1    0    0  502  503 -0.00000000000E+00 -0.00000000000E+00 -0.12173947616E+03  0.12173947616E+03  0.00000000000E+00 0. -1.
         -6    2    1    2    0  503  0.12791255811E+03  0.84583904746E+00  0.29990203347E+02  0.21536934434E+03  0.17065229040E+03 0.  0.
        -24    2    3    3    0    0  0.43167052951E+02 -0.37809547260E+02 -0.34294211575E+02  0.10209703732E+03  0.77167063948E+02 0.  0.
          6    2    1    2  501    0 -0.12791255811E+03 -0.84583904746E+00  0.36729422114E+03  0.42539403246E+03  0.17231569866E+03 0.  0.
         24    2    5    5    0    0  0.95561552978E+00  0.22317016449E+02  0.15200977972E+03  0.17337616649E+03  0.80332804946E+02 0.  0.
          5    1    5    5  501    0 -0.12886817364E+03 -0.23162855497E+02  0.21528444142E+03  0.25201786597E+03  0.47000000000E+01 0. -1.
        -13    1    6    6    0    0  0.26816226311E+02  0.82956835773E+01  0.13794068744E+03  0.14076775771E+03  0.00000000000E+00 0.  1.
         14    1    6    6    0    0 -0.25860610781E+02  0.14021332872E+02  0.14069092288E+02  0.32608408782E+02  0.00000000000E+00 0. -1.
         -5    1    3    3    0  503  0.84745505162E+02  0.38655386308E+02  0.64284414922E+02  0.11327230702E+03  0.47000000000E+01 0.  1.
         11    1    4    4    0    0  0.77399172738E+01 -0.36421989494E+02  0.16028868742E+02  0.40538774911E+02  0.00000000000E+00 0. -1.
        -12    1    4    4    0    0  0.35427135677E+02 -0.13875577661E+01 -0.50323080316E+02  0.61558262413E+02  0.00000000000E+00 0.  1.
</event>
<event>
12    1  0.8135779E-002  0.3695337E+03  0.7818608E-02  0.1054947E+00
         21   -1    0    0  503  502  0.00000000000E+00  0.00000000000E+00  0.56836821613E+03  0.56836821613E+03  0.00000000000E+00 0. -1.
         21   -1    0    0  501  503 -0.00000000000E+00 -0.00000000000E+00 -0.28749741964E+03  0.28749741964E+03  0.00000000000E+00 0. -1.
          6    2    1    2  501    0 -0.32599133897E+03  0.19201133514E+02 -0.33842119567E+02  0.37108015056E+03  0.17296286443E+03 0.  0.
         24    2    3    3    0    0 -0.12018510953E+03  0.54121889909E+02 -0.50068047820E+02  0.16164988997E+03  0.79058446697E+02 0.  0.
         -6    2    1    2    0  502  0.32599133897E+03 -0.19201133514E+02  0.31471291606E+03  0.48478548521E+03  0.17127086890E+03 0.  0.
        -24    2    5    5    0    0  0.22851026898E+03 -0.72208138612E+02  0.18291174613E+03  0.31243137302E+03  0.82010350972E+02 0.  0.
          5    1    3    3  501    0 -0.20580622944E+03 -0.34920756395E+02  0.16225928252E+02  0.20943026059E+03  0.47000000000E+01 0. -1.
        -13    1    4    4    0    0  0.24630170082E+01  0.19707272344E+02 -0.24818186793E+02  0.31786560552E+02  0.00000000000E+00 0.  1.
         14    1    4    4    0    0 -0.12264812653E+03  0.34414617566E+02 -0.25249861027E+02  0.12986332941E+03  0.00000000000E+00 0. -1.
         -5    1    5    5    0  502  0.97481069989E+02  0.53007005097E+02  0.13180116992E+03  0.17235411219E+03  0.47000000000E+01 0.  1.
         11    1    6    6    0    0  0.56833592705E+02 -0.40126660823E+02  0.17175102523E+02  0.71660242221E+02  0.00000000000E+00 0. -1.
        -12    1    6    6    0    0  0.17167667627E+03 -0.32081477789E+02  0.16573664361E+03  0.24077113080E+03  0.00000000000E+00 0.  1.
</event>
<event>
12    1  0.8135779E-002  0.1940925E+03  0.7818608E-02  0.1155511E+00
         21   -1    0    0  503  502  0.00000000000E+00  0.00000000000E+00  0.86266020919E+02  0.86266020919E+02  0.00000000000E+00 0. -1.
         21   -1    0    0  501  503 -0.00000000000E+00 -0.00000000000E+00 -0.48126310908E+03  0.48126310908E+03  0.00000000000E+00 0.  1.
          6    2    1    2  501    0 -0.14646016410E+02  0.81231677470E+02 -0.29180473460E+03  0.35045958249E+03  0.17566679995E+03 0.  0.
         24    2    3    3    0    0  0.51169311253E+02  0.69336024663E+02 -0.23250415361E+03  0.26095085209E+03  0.81310411595E+02 0.  0.
         -6    2    1    2    0  502  0.14646016410E+02 -0.81231677470E+02 -0.10319235356E+03  0.21706954751E+03  0.17221334269E+03 0.  0.
        -24    2    5    5    0    0  0.97837869614E+00 -0.70464289741E+01 -0.11568502896E+03  0.14046398404E+03  0.79350459989E+02 0.  0.
          5    1    3    3  501    0 -0.65815327662E+02  0.11895652807E+02 -0.59300580991E+02  0.89508730394E+02  0.47000000000E+01 0. -1.
        -13    1    4    4    0    0  0.20028454584E+02  0.30310582639E+02 -0.19539285300E+03  0.19874163484E+03  0.00000000000E+00 0.  1.
         14    1    4    4    0    0  0.31140856668E+02  0.39025442024E+02 -0.37111300605E+02  0.62209217258E+02  0.00000000000E+00 0. -1.
         -5    1    5    5    0  502  0.13667637714E+02 -0.74185248496E+02  0.12492675404E+02  0.76605563465E+02  0.47000000000E+01 0.  1.
         13    1    6    6    0    0  0.14358437353E+02  0.27699008157E+02 -0.89938765352E+02  0.95196540321E+02  0.00000000000E+00 0. -1.
        -14    1    6    6    0    0 -0.13380058657E+02 -0.34745437131E+02 -0.25746263613E+02  0.45267443722E+02  0.00000000000E+00 0.  1.
</event>
<event>
12    1  0.8135779E-002  0.2775218E+03  0.7818608E-02  0.1097744E+00
         21   -1    0    0  501  502  0.00000000000E+00  0.00000000000E+00  0.23257117920E+03  0.23257117920E+03  0.00000000000E+00 0. -1.
         21   -1    0    0  502  503 -0.00000000000E+00 -0.00000000000E+00 -0.37273388047E+03  0.37273388047E+03  0.00000000000E+00 0.  1.
         -6    2    1    2    0  503  0.18887642433E+03  0.10792349945E+03  0.37380751439E+02  0.28002793304E+03  0.17232683280E+03 0.  0.
        -24    2    3    3    0    0  0.70309363462E+02  0.65556060131E+02  0.85796213830E+02  0.14504906493E+03  0.66612591306E+02 0.  0.
          6    2    1    2  501    0 -0.18887642433E+03 -0.10792349945E+03 -0.17754345271E+03  0.32527712662E+03  0.16420032309E+03 0.  0.
         24    2    5    5    0    0 -0.15861690997E+03 -0.13039009224E+03 -0.18225469465E+03  0.28700609579E+03  0.83635070482E+02 0.  0.
          5    1    5    5  501    0 -0.30259514355E+02  0.22466592785E+02  0.47112419401E+01  0.38271030833E+02  0.47000000000E+01 0. -1.
        -11    1    6    6    0    0 -0.14387308734E+03 -0.82997662920E+02 -0.10953222110E+03  0.19896076189E+03  0.00000000000E+00 0.  1.
         12    1    6    6    0    0 -0.14743822630E+02 -0.47392429319E+02 -0.72722473553E+02  0.88045333903E+02  0.00000000000E+00 0. -1.
         -5    1    3    3    0  503  0.11856706087E+03  0.42367439323E+02 -0.48415462391E+02  0.13497886811E+03  0.47000000000E+01 0.  1.
         13    1    4    4    0    0  0.78306527828E+02  0.70084075274E+02  0.86096688249E+02  0.13585407478E+03  0.00000000000E+00 0. -1.
        -14    1    4    4    0    0 -0.79971643654E+01 -0.45280151435E+01 -0.30047441926E+00  0.91949901524E+01  0.00000000000E+00 0.  1.
</event>
<event>
12    1  0.8135779E-002  0.1916768E+03  0.7818608E-02  0.1158365E+00
         21   -1    0    0  503  502  0.00000000000E+00  0.00000000000E+00  0.20643595554E+03  0.20643595554E+03  0.00000000000E+00 0. -1.
         21   -1    0    0  501  503 -0.00000000000E+00 -0.00000000000E+00 -0.33363102912E+03  0.33363102912E+03  0.00000000000E+00 0. -1.
          6    2    1    2  501    0 -0.55387253487E+02 -0.28042665234E+02 -0.25192514747E+03  0.31655374265E+03  0.18134457018E+03 0.  0.
         24    2    3    3    0    0 -0.55313499794E+02  0.46697341094E+02 -0.10003190958E+03  0.14720286517E+03  0.80137854067E+02 0.  0.
         -6    2    1    2    0  502  0.55387253487E+02  0.28042665234E+02  0.12473007389E+03  0.22351324201E+03  0.17477539615E+03 0.  0.
        -24    2    5    5    0    0  0.10105342842E+03 -0.31547093593E+01  0.83907306043E+02  0.15461284949E+03  0.81504292128E+02 0.  0.
          5    1    3    3  501    0 -0.73753692938E-01 -0.74740006328E+02 -0.15189323790E+03  0.16935087748E+03  0.47000000000E+01 0. -1.
        -13    1    4    4    0    0 -0.30040507388E+02  0.42010771652E+02 -0.10847960052E+03  0.12014641380E+03  0.00000000000E+00 0.  1.
         14    1    4    4    0    0 -0.25272992406E+02  0.46865694424E+01  0.84476909455E+01  0.27056451367E+02  0.00000000000E+00 0. -1.
         -5    1    5    5    0  502 -0.45666174930E+02  0.31197374593E+02  0.40822767850E+02  0.68900392519E+02  0.47000000000E+01 0.  1.
         11    1    6    6    0    0 -0.45614370401E+01  0.95118676695E+01  0.36790678275E+02  0.38273180458E+02  0.00000000000E+00 0. -1.
        -12    1    6    6    0    0  0.10561486546E+03 -0.12666577029E+02  0.47116627768E+02  0.11633966904E+03  0.00000000000E+00 0.  1.
</event>
<event>
12    1  0.8135779E-002  0.2878462E+03  0.7818608E-02  0.1091530E+00
         21   -1    0    0  501  502  0.00000000000E+00  0.00000000000E+00  0.47266280957E+03  0.47266280957E+03  0.00000000000E+00 0.  1.
         21   -1    0    0  502  503 -0.00000000000E+00 -0.00000000000E+00 -0.30952206413E+03  0.30952206413E+03  0.00000000000E+00 0. -1.
         -6    2    1    2    0  503  0.10656134409E+03  0.20531815920E+03  0.33930985652E+03  0.44470752170E+03  0.17065384428E+03 0.  0.
        -24    2    3    3    0    0 -0.13606205331E+02  0.10063619149E+03  0.16864748732E+03  0.21115605294E+03  0.76368395635E+02 0.  0.
          6    2    1    2  501    0 -0.10656134409E+03 -0.20531815920E+03 -0.17616911108E+03  0.33747735200E+03  0.17130248352E+03 0.  0.
         24    2    5    5    0    0 -0.50183250178E+02 -0.87996346739E+02 -0.14300847619E+02  0.12971228788E+03  0.79743637651E+02 0.  0.
          5    1    5    5  501    0 -0.56378093912E+02 -0.11732181246E+03 -0.16186826346E+03  0.20776506412E+03  0.47000000000E+01 0. -1.
        -11    1    6    6    0    0 -0.19043336399E+02  0.29345122055E+00  0.22180194217E+02  0.29235180696E+02  0.00000000000E+00 0.  1.
         12    1    6    6    0    0 -0.31139913779E+02 -0.88289797960E+02 -0.36481041836E+02  0.10047710718E+03  0.00000000000E+00 0. -1.
         -5    1    3    3    0  503  0.12016754942E+03  0.10468196771E+03  0.17066236920E+03  0.23355146875E+03  0.47000000000E+01 0.  1.
         11    1    4    4    0    0  0.75279473137E+01  0.17900737112E+01 -0.57107169914E+01  0.96169976191E+01  0.00000000000E+00 0. -1.
        -12    1    4    4    0    0 -0.21134152645E+02  0.98846117782E+02  0.17435820432E+03  0.20153905532E+03  0.00000000000E+00 0.  1.
</event>
<event>
12    1  0.8135779E-002  0.1847319E+03  0.7818608E-02  0.1163327E+00
         21   -1    0    0  501  502  0.00000000000E+00  0.00000000000E+00  0.27864780668E+03  0.27864780668E+03  0.00000000000E+00 0. -1.
         21   -1    0    0  502  503 -0.00000000000E+00 -0.00000000000E+00 -0.13733244627E+03  0.13733244627E+03  0.00000000000E+00 0.  1.
         -6    2    1    2    0  503  0.27304235664E+02 -0.62783258541E+02  0.20776646134E+01  0.18474356408E+03  0.17157683101E+03 0.  0.
        -24    2    3    3    0    0  0.78070145519E+02 -0.61187684984E+02  0.24089955197E+02  0.12918859674E+03  0.79186407750E+02 0.  0.
          6    2    1    2  501    0 -0.27304235664E+02  0.62783258541E+02  0.13923769580E+03  0.23123668887E+03  0.17145265093E+03 0.  0.
         24    2    5    5    0    0 -0.35400617187E+02  0.23429416559E+02  0.65944313521E+01  0.92562243223E+02  0.81988664388E+02 0.  0.
          5    1    5    5  501    0  0.80963815235E+01  0.39353841982E+02  0.13264326444E+03  0.13867444564E+03  0.47000000000E+01 0. -1.
        -13    1    6    6    0    0 -0.47496956300E+02 -0.15317642742E+02  0.12745111220E+02  0.51507561551E+02  0.00000000000E+00 0.  1.
         14    1    6    6    0    0  0.12096339113E+02  0.38747059301E+02 -0.61506798676E+01  0.41054681672E+02  0.00000000000E+00 0. -1.
         -5    1    3    3    0  503 -0.50765909856E+02 -0.15955735565E+01 -0.22012290584E+02  0.55554967331E+02  0.47000000000E+01 0.  1.
         11    1    4    4    0    0  0.54693069091E+02 -0.82590635343E+01 -0.17404418173E+02  0.57986702863E+02  0.00000000000E+00 0. -1.
        -12    1    4    4    0    0  0.23377076429E+02 -0.52928621450E+02  0.41494373370E+02  0.71201893882E+02  0.00000000000E+00 0.  1.
</event>
<event>
12    1  0.8135779E-002  0.1806662E+03  0.7818608E-02  0.1168883E+00
         21   -1    0    0  503  502  0.00000000000E+00  0.00000000000E+00  0.46791774618E+02  0.46791774618E+02  0.00000000000E+00 0.  1.
         21   -1    0    0  501  503 -0.00000000000E+00 -0.00000000000E+00 -0.72271273584E+03  0.72271273584E+03  0.00000000000E+00 0. -1.
          6    2    1    2  501    0 -0.35698861768E+02  0.37745938141E+02 -0.43488142020E+03  0.46827314913E+03  0.16570675298E+03 0.  0.
         24    2    3    3    0    0 -0.39409273889E+02  0.77195231629E+02 -0.21996306616E+03  0.24968220051E+03  0.80282352497E+02 0.  0.
         -6    2    1    2    0  502  0.35698861768E+02 -0.37745938141E+02 -0.24103954102E+03  0.30123136133E+03  0.17303499107E+03 0.  0.
        -24    2    5    5    0    0 -0.32035807003E+02 -0.35489869856E+02 -0.20007241803E+03  0.22189996550E+03  0.83215373824E+02 0.  0.
          5    1    3    3  501    0  0.37104121205E+01 -0.39449293489E+02 -0.21491835404E+03  0.21859094862E+03  0.47000000000E+01 0. -1.
        -11    1    4    4    0    0  0.10448192948E+02  0.26318162129E+01  0.13732224011E+01  0.10861718659E+02  0.00000000000E+00 0.  1.
         12    1    4    4    0    0 -0.49857466836E+02  0.74563415416E+02 -0.22133628856E+03  0.23882048185E+03  0.00000000000E+00 0. -1.
         -5    1    5    5    0  502  0.67734668771E+02 -0.22560682845E+01 -0.40967122991E+02  0.79331395827E+02  0.47000000000E+01 0.  1.
         11    1    6    6    0    0 -0.39558960570E+01 -0.32206332011E+02 -0.18863058744E+03  0.19140113755E+03  0.00000000000E+00 0. -1.
        -12    1    6    6    0    0 -0.28079910946E+02 -0.32835378450E+01 -0.11441830589E+02  0.30498827957E+02  0.00000000000E+00 0.  1.
</event>
<event>
12    1  0.8135779E-002  0.2145891E+03  0.7818608E-02  0.1138074E+00
         21   -1    0    0  503  502  0.00000000000E+00  0.00000000000E+00  0.12662931327E+03  0.12662931327E+03  0.00000000000E+00 0.  1.
         21   -1    0    0  501  503 -0.00000000000E+00 -0.00000000000E+00 -0.39310456707E+03  0.39310456707E+03  0.00000000000E+00 0.  1.
          6    2    1    2  501    0 -0.45286880451E+02  0.11940358361E+03 -0.61276037173E+02  0.22316642190E+03  0.17245399913E+03 0.  0.
         24    2    3    3    0    0 -0.56309387815E+02  0.46291488743E+02 -0.92920534457E+02  0.14260378607E+03  0.79924745802E+02 0.  0.
         -6    2    1    2    0  502  0.45286880451E+02 -0.11940358361E+03 -0.20519921663E+03  0.29656745844E+03  0.17186454427E+03 0.  0.
        -24    2    5    5    0    0 -0.35394422305E+02 -0.87917874724E+02 -0.13098808458E+03  0.18241753685E+03  0.84474621168E+02 0.  0.
          5    1    3    3  501    0  0.11022507363E+02  0.73112094866E+02  0.31644497284E+02  0.80562635834E+02  0.47000000000E+01 0. -1.
        -11    1    4    4    0    0 -0.98636794526E+01  0.59017316666E+02 -0.55561291548E+02  0.81654105576E+02  0.00000000000E+00 0.  1.
         12    1    4    4    0    0 -0.46445708362E+02 -0.12725827924E+02 -0.37359242909E+02  0.60949680494E+02  0.00000000000E+00 0. -1.
         -5    1    5    5    0  502  0.80681302756E+02 -0.31485708884E+02 -0.74211132053E+02  0.11414992159E+03  0.47000000000E+01 0.  1.
         11    1    6    6    0    0  0.24657892845E+02 -0.26930013884E+02 -0.64180260594E+02  0.73839983595E+02  0.00000000000E+00 0. -1.
        -12    1    6    6    0    0 -0.60052315150E+02 -0.60987860840E+02 -0.66807823983E+02  0.10857755325E+03  0.00000000000E+00 0.  1.
</event>
<event>
12    1  0.8135779E-002  0.2160599E+03  0.7818608E-02  0.1137130E+00
         21   -1    0    0  501  502  0.00000000000E+00  0.00000000000E+00  0.36972020201E+03  0.36972020201E+03  0.00000000000E+00 0.  1.
         21   -1    0    0  502  503 -0.00000000000E+00 -0.00000000000E+00 -0.12754343551E+03  0.12754343551E+03  0.00000000000E+00 0. -1.
         -6    2    1    2    0  503  0.11925576603E+03 -0.48956607398E+02  0.89449090135E+02  0.23384402658E+03  0.17338743294E+03 0.  0.
        -24    2    3    3    0    0  0.56175741099E+01  0.43491970057E+01  0.65101561663E+01  0.83324578625E+02  0.82765515864E+02 0.  0.
          6    2    1    2  501    0 -0.11925576603E+03  0.48956607398E+02  0.15272767637E+03  0.26341961094E+03  0.17159679822E+03 0.  0.
         24    2    5    5    0    0 -0.13310812181E+03  0.78409116820E+02  0.99484927939E+02  0.20083991509E+03  0.81078103801E+02 0.  0.
          5    1    5    5  501    0  0.13852355780E+02 -0.29452509423E+02  0.53242748432E+02  0.62579695849E+02  0.47000000000E+01 0. -1.
        -13    1    6    6    0    0 -0.10536330780E+03  0.85008615627E+02  0.10557275500E+03  0.17167847262E+03  0.00000000000E+00 0.  1.
         14    1    6    6    0    0 -0.27744814010E+02 -0.65994988069E+01 -0.60878270648E+01  0.29161442477E+02  0.00000000000E+00 0. -1.
         -5    1    3    3    0  503  0.11363819192E+03 -0.53305804403E+02  0.82938933969E+02  0.15051944796E+03  0.47000000000E+01 0.  1.
         11    1    4    4    0    0  0.24785334040E+02 -0.17232599197E+02 -0.26006299522E+02  0.39844734575E+02  0.00000000000E+00 0. -1.
        -12    1    4    4    0    0 -0.19167759930E+02  0.21581796202E+02  0.32516455688E+02  0.43479844049E+02  0.00000000000E+00 0.  1.
</event>
<event>
12    1  0.8135779E-002  0.1824473E+03  0.7818608E-02  0.1165459E+00
         21   -1    0    0  501  502  0.00000000000E+00  0.00000000000E+00  0.65373094210E+02  0.65373094210E+02  0.00000000000E+00 0. -1.
         21   -1    0    0  502  503 -0.00000000000E+00 -0.00000000000E+00 -0.51327972657E+03  0.51327972657E+03  0.00000000000E+00 0.  1.
         -6    2    1    2    0  503  0.47884138340E+02 -0.38030685327E+02 -0.24993354165E+03  0.30944108850E+03  0.17189470115E+03 0.  0.
        -24    2    3    3    0    0  0.73454938343E+02 -0.82106669088E+02 -0.18128837181E+03  0.22382095361E+03  0.71366746082E+02 0.  0.
          6    2    1    2  501    0 -0.47884138340E+02  0.38030685327E+02 -0.19797309071E+03  0.26921173228E+03  0.17187899353E+03 0.  0.
         24    2    5    5    0    0 -0.66293349369E+02  0.86518363792E+02 -0.10888673730E+03  0.16602053896E+03  0.61856789057E+02 0.  0.
          5    1    5    5  501    0  0.18409211030E+02 -0.48487678465E+02 -0.89086353413E+02  0.10319119332E+03  0.47000000000E+01 0. -1.
        -11    1    6    6    0    0 -0.23953416268E+02  0.45543433892E+02 -0.12343964557E+02  0.52918276452E+02  0.00000000000E+00 0.  1.
         12    1    6    6    0    0 -0.42339933101E+02  0.40974929900E+02 -0.96542772744E+02  0.11310226251E+03  0.00000000000E+00 0. -1.
         -5    1    3    3    0  503 -0.25570800003E+02  0.44075983761E+02 -0.68645169832E+02  0.85620134890E+02  0.47000000000E+01 0.  1.
         13    1    4    4    0    0  0.21483302516E+02 -0.34194004926E+02 -0.14906744987E+02  0.43046176439E+02  0.00000000000E+00 0. -1.
        -14    1    4    4    0    0  0.51971635827E+02 -0.47912664162E+02 -0.16638162683E+03  0.18077477718E+03  0.00000000000E+00 0.  1.
</event>
<event>
12    1  0.8135779E-002  0.3014698E+03  0.7818608E-02  0.1084589E+00
         21   -1    0    0  503  502  0.00000000000E+00  0.00000000000E+00  0.11577176380E+04  0.11577176380E+04  0.00000000000E+00 0.  1.
         21   -1    0    0  501  503 -0.00000000000E+00 -0.00000000000E+00 -0.12055878012E+03  0.12055878012E+03  0.00000000000E+00 0.  1.
          6    2    1    2  501    0 -0.51290059133E+02 -0.24253125127E+03  0.89720155069E+03  0.94649600265E+03  0.17155751940E+03 0.  0.
         24    2    3    3    0    0 -0.52437502789E+02 -0.25474057442E+03  0.73362793090E+03  0.78239602309E+03  0.79316732177E+02 0.  0.
         -6    2    1    2    0  502  0.51290059133E+02  0.24253125127E+03  0.13995730713E+03  0.33178041542E+03  0.17040574589E+03 0.  0.
        -24    2    5    5    0    0  0.85171618258E+02  0.16076162135E+03  0.48888359020E+02  0.20469825406E+03  0.80079960747E+02 0.  0.
          5    1    3    3  501    0  0.11474436558E+01  0.12209323149E+02  0.16357361980E+03  0.16409997956E+03  0.47000000000E+01 0. -1.
        -13    1    4    4    0    0 -0.32138856149E+02 -0.21177344482E+03  0.49942817217E+03  0.54342377309E+03  0.00000000000E+00 0.  1.
         14    1    4    4    0    0 -0.20298646640E+02 -0.42967129597E+02  0.23419975873E+03  0.23897225000E+03  0.00000000000E+00 0. -1.
         -5    1    5    5    0  502 -0.33881559125E+02  0.81769629921E+02  0.91068948111E+02  0.12708216136E+03  0.47000000000E+01 0.  1.
         11    1    6    6    0    0 -0.14808835673E+02  0.35596067665E+02  0.81864707750E+01  0.39413195137E+02  0.00000000000E+00 0. -1.
        -12    1    6    6    0    0  0.99980453931E+02  0.12516555368E+03  0.40701888245E+02  0.16528505892E+03  0.00000000000E+00 0.  1.
</event>
<event>
12    1  0.8135779E-002  0.3233903E+03  0.7818608E-02  0.1074242E+00
         21   -1    0    0  501  502  0.00000000000E+00  0.00000000000E+00  0.11552541315E+03  0.11552541315E+03  0.00000000000E+00 0. -1.
         21   -1    0    0  502  503 -0.00000000000E+00 -0.00000000000E+00 -0.98909821996E+03  0.98909821996E+03  0.00000000000E+00 0.  1.
         -6    2    1    2    0  503  0.26397634501E+03  0.69868787166E+02 -0.60013366515E+03  0.68112599267E+03  0.17090068372E+03 0.  0.
        -24    2    3    3    0    0  0.23706265378E+03  0.10934223974E+03 -0.53937217351E+03  0.60368860441E+03  0.73233614776E+02 0.  0.
          6    2    1    2  501    0 -0.26397634501E+03 -0.69868787166E+02 -0.27343914166E+03  0.42349764044E+03  0.17325163525E+03 0.  0.
         24    2    5    5    0    0 -0.83509822239E+02 -0.38892047370E+01 -0.16959242393E+03  0.20503093377E+03  0.79291091700E+02 0.  0.
          5    1    5    5  501    0 -0.18046652278E+03 -0.65979582429E+02 -0.10384671773E+03  0.21846670667E+03  0.47000000000E+01 0. -1.
        -13    1    6    6    0    0 -0.93282947991E+02 -0.17339639516E+02 -0.12157720596E+03  0.15421863860E+03  0.00000000000E+00 0.  1.
         14    1    6    6    0    0  0.97731257523E+01  0.13450434779E+02 -0.48015217974E+02  0.50812295163E+02  0.00000000000E+00 0. -1.
         -5    1    3    3    0  503  0.26913691239E+02 -0.39473452570E+02 -0.60761491640E+02  0.77437388258E+02  0.47000000000E+01 0.  1.
         13    1    4    4    0    0  0.83301105307E+02  0.22098972136E+02 -0.11296866013E+03  0.14208925676E+03  0.00000000000E+00 0. -1.
        -14    1    4    4    0    0  0.15376154847E+03  0.87243267600E+02 -0.42640351339E+03  0.46159934766E+03  0.00000000000E+00 0.  1.
</event>
<event>
12    1  0.8135779E-002  0.2831498E+03  0.7818608E-02  0.1094024E+00
         21   -1    0    0  501  502  0.00000000000E+00  0.00000000000E+00  0.29002038198E+03  0.29002038198E+03  0.00000000000E+00 0.  1.
         21   -1    0    0  502  503 -0.00000000000E+00 -0.00000000000E+00 -0.27676113935E+03  0.27676113935E+03  0.00000000000E+00 0. -1.
         -6    2    1    2    0  503 -0.62944971847E+02  0.21574744842E+03 -0.68747066730E+01  0.28323327639E+03  0.17223471277E+03 0.  0.
        -24    2    3    3    0    0 -0.71414810262E+02  0.53207599608E+02  0.69554374178E+01  0.11981876204E+03  0.79856332542E+02 0.  0.
          6    2    1    2  501    0  0.62944971847E+02 -0.21574744842E+03  0.20133949305E+02  0.28354824494E+03  0.17171255142E+03 0.  0.
         24    2    5    5    0    0  0.20200870591E+02 -0.17289207117E+03 -0.42037097927E+02  0.19665192359E+03  0.81271877061E+02 0.  0.
          5    1    5    5  501    0  0.42744101256E+02 -0.42855377246E+02  0.62171047231E+02  0.86896321355E+02  0.47000000000E+01 0. -1.
        -13    1    6    6    0    0 -0.10013838577E+02 -0.36870427294E+02  0.21136110116E+02  0.43662804797E+02  0.00000000000E+00 0.  1.
         14    1    6    6    0    0  0.30214709168E+02 -0.13602164388E+03 -0.63173208043E+02  0.15298911879E+03  0.00000000000E+00 0. -1.
         -5    1    3    3    0  503  0.84698384154E+01  0.16253984881E+03 -0.13830144091E+02  0.16341451435E+03  0.47000000000E+01 0.  1.
         11    1    4    4    0    0 -0.55581373812E+02  0.52184529533E+02 -0.28168694187E+02  0.81277238939E+02  0.00000000000E+00 0. -1.
        -12    1    4    4    0    0 -0.15833436450E+02  0.10230700747E+01  0.35124131604E+02  0.38541523104E+02  0.00000000000E+00 0.  1.
</event>
<event>
12    1  0.8135779E-002  0.1940778E+03  0.7818608E-02  0.1155155E+00
         21   -1    0    0  503  502  0.00000000000E+00  0.00000000000E+00  0.37945214881E+02  0.37945214881E+02  0.00000000000E+00 0. -1.
         21   -1    0    0  501  503 -0.00000000000E+00 -0.00000000000E+00 -0.12702183139E+04  0.12702183139E+04  0.00000000000E+00 0. -1.
          6    2    1    2  501    0 -0.31474138291E+02 -0.87182511640E+02 -0.92777541387E+03  0.94785726363E+03  0.17051323092E+03 0.  0.
         24    2    3    3    0    0  0.30415173552E+02 -0.10820951633E+02 -0.58531502796E+03  0.59153917444E+03  0.79263719094E+02 0.  0.
         -6    2    1    2    0  502  0.31474138291E+02  0.87182511640E+02 -0.30449768516E+03  0.36030626516E+03  0.16885008952E+03 0.  0.
        -24    2    5    5    0    0  0.24924236930E+02 -0.13288325799E+02 -0.17804537809E+03  0.19859798971E+03  0.83325912367E+02 0.  0.
          5    1    3    3  501    0 -0.61889311843E+02 -0.76361560007E+02 -0.34246038591E+03  0.35631808919E+03  0.47000000000E+01 0. -1.
        -11    1    4    4    0    0 -0.66143524520E+00  0.19691804442E+02 -0.41041336504E+02  0.45525772490E+02  0.00000000000E+00 0.  1.
         12    1    4    4    0    0  0.31076608798E+02 -0.30512756075E+02 -0.54427369146E+03  0.54601340195E+03  0.00000000000E+00 0. -1.
         -5    1    5    5    0  502  0.65499013608E+01  0.10047083744E+03 -0.12645230708E+03  0.16170827545E+03  0.47000000000E+01 0.  1.
         13    1    6    6    0    0 -0.17598723812E+01  0.28413069700E+02 -0.25494979501E+02  0.38215097283E+02  0.00000000000E+00 0. -1.
        -14    1    6    6    0    0  0.26684109311E+02 -0.41701395499E+02 -0.15255039858E+03  0.16038289243E+03  0.00000000000E+00 0.  1.
</event>
<event>
12    1  0.8135779E-002  0.2401523E+03  0.7818608E-02  0.1119794E+00
         21   -1    0    0  501  502  0.00000000000E+00  0.00000000000E+00  0.44789795361E+02  0.44789795361E+02  0.00000000000E+00 0. -1.
         21   -1    0    0  502  503 -0.00000000000E+00 -0.00000000000E+00 -0.15932998737E+04  0.15932998737E+04  0.00000000000E+00 0. -1.
         -6    2    1    2    0  503  0.11241667077E+03 -0.12451340154E+03 -0.11341266363E+04  0.11591462978E+04  0.17098484610E+03 0.  0.
        -24    2    3    3    0    0  0.58325202807E+02 -0.12587693127E+03 -0.55193530077E+03  0.57442705984E+03  0.78019483013E+02 0.  0.
          6    2    1    2  501    0 -0.11241667077E+03  0.12451340154E+03 -0.41438344203E+03  0.47894337122E+03  0.17184883116E+03 0.  0.
         24    2    5    5    0    0 -0.34449952663E+02  0.27341083477E+02 -0.28143397189E+03  0.29668278815E+03  0.82953373429E+02 0.  0.
          5    1    5    5  501    0 -0.77966718108E+02  0.97172318066E+02 -0.13294947014E+03  0.18226058307E+03  0.47000000000E+01 0. -1.
        -11    1    6    6    0    0 -0.46884269566E+02 -0.14750980285E+02 -0.12863133833E+03  0.13770166067E+03  0.00000000000E+00 0.  1.
         12    1    6    6    0    0  0.12434316903E+02  0.42092063762E+02 -0.15280263356E+03  0.15898112747E+03  0.00000000000E+00 0. -1.
         -5    1    3    3    0  503  0.54091467964E+02  0.13635297297E+01 -0.58219133554E+03  0.58471923801E+03  0.47000000000E+01 0.  1.
         13    1    4    4    0    0  0.64983494587E+02 -0.86208380427E+02 -0.48018579420E+03  0.49217185655E+03  0.00000000000E+00 0. -1.
        -14    1    4    4    0    0 -0.66582917793E+01 -0.39668550845E+02 -0.71749506567E+02  0.82255203289E+02  0.00000000000E+00 0.  1.
</event>
<event>
12    1  0.8135779E-002  0.2173335E+03  0.7818608E-02  0.1136172E+00
         21   -1    0    0  503  502  0.00000000000E+00  0.00000000000E+00  0.31232465760E+03  0.31232465760E+03  0.00000000000E+00 0.  1.
         21   -1    0    0  501  503 -0.00000000000E+00 -0.00000000000E+00 -0.24237531596E+03  0.24237531596E+03  0.00000000000E+00 0.  1.
          6    2    1    2  501    0 -0.50226603828E+02  0.12200399767E+03 -0.13599617174E+03  0.25637631422E+03  0.17270254366E+03 0.  0.
         24    2    3    3    0    0 -0.56150227145E+02  0.14560707981E+03 -0.14869175940E+03  0.22852918249E+03  0.75908354207E+02 0.  0.
         -6    2    1    2    0  502  0.50226603828E+02 -0.12200399767E+03  0.20594551339E+03  0.29832365933E+03  0.17080914511E+03 0.  0.
        -24    2    5    5    0    0 -0.11884156205E+02 -0.16827318365E+02  0.32608951976E+02  0.86221009885E+02  0.77112430805E+02 0.  0.
          5    1    3    3  501    0  0.59236233169E+01 -0.23603082141E+02  0.12695587651E+02  0.27847131730E+02  0.47000000000E+01 0. -1.
        -13    1    4    4    0    0 -0.32501002407E+02  0.20249108689E+02 -0.66615667230E+02  0.76837417191E+02  0.00000000000E+00 0.  1.
         14    1    4    4    0    0 -0.23649224738E+02  0.12535797112E+03 -0.82076092166E+02  0.15169176530E+03  0.00000000000E+00 0. -1.
         -5    1    5    5    0  502  0.62110760033E+02 -0.10517667931E+03  0.17333656141E+03  0.21210264945E+03  0.47000000000E+01 0.  1.
         11    1    6    6    0    0 -0.32436842533E+02 -0.13150135181E+02 -0.11972871645E+02  0.36992221672E+02  0.00000000000E+00 0. -1.
        -12    1    6    6    0    0  0.20552686329E+02 -0.36771831845E+01  0.44581823622E+02  0.49228788213E+02  0.00000000000E+00 0.  1.
</event>
<event>
12    1  0.8135779E-002  0.2123829E+03  0.7818608E-02  0.1140399E+00
         21   -1    0    0  501  502  0.00000000000E+00  0.00000000000E+00  0.23068874327E+03  0.23068874327E+03  0.00000000000E+00 0. -1.
         21   -1    0    0  502  503 -0.00000000000E+00 -0.00000000000E+00 -0.19790416232E+03  0.19790416232E+03  0.00000000000E+00 0.  1.
         -6    2    1    2    0  503  0.92719100917E+02  0.81203240192E+02 -0.19725440457E+02  0.21329696620E+03  0.17296157057E+03 0.  0.
        -24    2    3    3    0    0  0.11204373632E+03  0.24201388743E+02  0.19981438825E+02  0.14103785698E+03  0.79705163820E+02 0.  0.
          6    2    1    2  501    0 -0.92719100917E+02 -0.81203240192E+02  0.52510021401E+02  0.21529593939E+03  0.16853557868E+03 0.  0.
         24    2    5    5    0    0 -0.28310748669E+02  0.15044197951E+02 -0.31153756870E+01  0.86733581025E+02  0.80530628518E+02 0.  0.
          5    1    5    5  501    0 -0.64408352248E+02 -0.96247438143E+02  0.55625397088E+02  0.12856235837E+03  0.47000000000E+01 0. -1.
        -11    1    6    6    0    0 -0.26613025669E+02 -0.90605545019E+01 -0.36155899081E+02  0.45799517699E+02  0.00000000000E+00 0.  1.
         12    1    6    6    0    0 -0.16977230001E+01  0.24104752452E+02  0.33040523394E+02  0.40934063325E+02  0.00000000000E+00 0. -1.
         -5    1    3    3    0  503 -0.19324635402E+02  0.57001851449E+02 -0.39706879281E+02  0.72259109214E+02  0.47000000000E+01 0.  1.
         13    1    4    4    0    0  0.64194182014E+02  0.34839724990E+00  0.48486432327E+02  0.80448421395E+02  0.00000000000E+00 0. -1.
        -14    1    4    4    0    0  0.47849554305E+02  0.23852991493E+02 -0.28504993503E+02  0.60589435589E+02  0.00000000000E+00 0.  1.
</event>
<event>
12    1  0.8135779E-002  0.2082704E+03  0.7818608E-02  0.1144138E+00
         21   -1    0    0  501  502  0.00000000000E+00  0.00000000000E+00  0.11853493272E+03  0.11853493272E+03  0.00000000000E+00 0.  1.
         21   -1    0    0  502  503 -0.00000000000E+00 -0.00000000000E+00 -0.85688975613E+03  0.85688975613E+03  0.00000000000E+00 0. -1.
         -6    2    1    2    0  503 -0.11670203547E+03  0.99248332492E+01 -0.74436025732E+03  0.77294810297E+03  0.17221704270E+03 0.  0.
        -24    2    3    3    0    0 -0.54466922884E+02 -0.61291481417E+02 -0.35589127727E+03  0.37310411942E+03  0.76320320418E+02 0.  0.
          6    2    1    2  501    0  0.11670203547E+03 -0.99248332492E+01  0.60054339121E+01  0.20247658588E+03  0.16505403721E+03 0.  0.
         24    2    5    5    0    0  0.18308766224E+02  0.35065871339E+02  0.39355607131E+01  0.94163275037E+02  0.85360456150E+02 0.  0.
          5    1    5    5  501    0  0.98393269243E+02 -0.44990704588E+02  0.20698731990E+01  0.10831331085E+03  0.47000000000E+01 0. -1.
        -13    1    6    6    0    0  0.46705792689E+02  0.26699781505E+02 -0.18637097437E+02  0.56935496872E+02  0.00000000000E+00 0.  1.
         14    1    6    6    0    0 -0.28397026465E+02  0.83660898333E+01  0.22572658150E+02  0.37227778165E+02  0.00000000000E+00 0. -1.
         -5    1    3    3    0  503 -0.62235112582E+02  0.71216314666E+02 -0.38846898005E+03  0.39984398355E+03  0.47000000000E+01 0.  1.
         11    1    4    4    0    0 -0.29978225637E+02 -0.34043679598E+02 -0.31480625378E+03  0.31805761043E+03  0.00000000000E+00 0. -1.
        -12    1    4    4    0    0 -0.24488697247E+02 -0.27247801819E+02 -0.41085023486E+02  0.55046508987E+02  0.00000000000E+00 0.  1.
</event>
<event>
12    1  0.8135779E-002  0.1939902E+03  0.7818608E-02  0.1154955E+00
         21   -1    0    0  503  502  0.00000000000E+00  0.00000000000E+00  0.90988922066E+02  0.90988922066E+02  0.00000000000E+00 0.  1.
         21   -1    0    0  501  503 -0.00000000000E+00 -0.00000000000E+00 -0.10366695383E+04  0.10366695383E+04  0.00000000000E+00 0.  1.
          6    2    1    2  501    0 -0.85560319764E+02  0.30032131440E+02 -0.91020695926E+03  0.93064972192E+03  0.17149256250E+03 0.  0.
         24    2    3    3    0    0 -0.11416871491E+03  0.20778472320E+02 -0.53294476781E+03  0.55216204501E+03  0.85945087316E+02 0.  0.
         -6    2    1    2    0  502  0.85560319764E+02 -0.30032131440E+02 -0.35473656950E+02  0.19700873842E+03  0.17126460650E+03 0.  0.
        -24    2    5    5    0    0  0.63897325217E+02 -0.61535058492E+00  0.41570989737E+02  0.11161201769E+03  0.81522073566E+02 0.  0.
          5    1    3    3  501    0  0.28608395146E+02  0.92536591194E+01 -0.37726219145E+03  0.37848767691E+03  0.47000000000E+01 0. -1.
        -13    1    4    4    0    0 -0.71016533906E+02  0.54432517771E+02 -0.34473267554E+03  0.35615567476E+03  0.00000000000E+00 0.  1.
         14    1    4    4    0    0 -0.43152181004E+02 -0.33654045451E+02 -0.18821209228E+03  0.19600637025E+03  0.00000000000E+00 0. -1.
         -5    1    5    5    0  502  0.21662994547E+02 -0.29416780855E+02 -0.77044646687E+02  0.85396720732E+02  0.47000000000E+01 0.  1.
         13    1    6    6    0    0  0.33548932332E+02  0.40166347709E+02  0.16110737771E+02  0.54757850765E+02  0.00000000000E+00 0. -1.
        -14    1    6    6    0    0  0.30348392885E+02 -0.40781698293E+02  0.25460251965E+02  0.56854166923E+02  0.00000000000E+00 0.  1.
</event>
<event>
12    1  0.8135779E-002  0.1988654E+03  0.7818608E-02  0.1150965E+00
         21   -1    0    0  501  502  0.00000000000E+00  0.00000000000E+00  0.21153608625E+04  0.21153608625E+04  0.00000000000E+00 0.  1.
         21   -1    0    0  502  503 -0.00000000000E+00 -0.00000000000E+00 -0.28364160963E+02  0.28364160963E+02  0.00000000000E+00 0.  1.
         -6    2    1    2    0  503  0.84350966810E+02 -0.52598679895E+02  0.41607001113E+03  0.46115256573E+03  0.17223741751E+03 0.  0.
        -24    2    3    3    0    0  0.87472493944E+02 -0.13905807976E+02  0.40295266831E+03  0.41990893651E+03  0.78152756601E+02 0.  0.
          6    2    1    2  501    0 -0.84350966810E+02  0.52598679895E+02  0.16709266904E+04  0.16825724577E+04  0.17079919227E+03 0.  0.
         24    2    5    5    0    0  0.27599287561E+01  0.19763418005E+02  0.11669402698E+04  0.11700386884E+04  0.82720790470E+02 0.  0.
          5    1    5    5  501    0 -0.87110895566E+02  0.32835261890E+02  0.50398642058E+03  0.51253376930E+03  0.47000000000E+01 0. -1.
        -13    1    6    6    0    0 -0.14377446334E+01  0.34027805088E+02  0.11254374242E+04  0.11259526431E+04  0.00000000000E+00 0.  1.
         14    1    6    6    0    0  0.41976733895E+01 -0.14264387083E+02  0.41502845604E+02  0.44086045342E+02  0.00000000000E+00 0. -1.
         -5    1    3    3    0  503 -0.31215271344E+01 -0.38692871919E+02  0.13117342817E+02  0.41243629224E+02  0.47000000000E+01 0.  1.
         11    1    4    4    0    0 -0.70442797980E+01 -0.19525608174E+02  0.43557957843E+02  0.48251082308E+02  0.00000000000E+00 0. -1.
        -12    1    4    4    0    0  0.94516773742E+02  0.56198001983E+01  0.35939471047E+03  0.37165785420E+03  0.00000000000E+00 0.  1.
</event>
<event>
12    1  0.8135779E-002  0.2748150E+03  0.7818608E-02  0.1098685E+00
         21   -1    0    0  501  502  0.00000000000E+00  0.00000000000E+00  0.23025727341E+03  0.23025727341E+03  0.00000000000E+00 0.  1.
         21   -1    0    0  502  503 -0.00000000000E+00 -0.00000000000E+00 -0.33387189221E+03  0.33387189221E+03  0.00000000000E+00 0.  1.
         -6    2    1    2    0  503  0.15487246452E+03 -0.14756518243E+03 -0.11092790145E+02  0.27503875923E+03  0.17251755202E+03 0.  0.
        -24    2    3    3    0    0  0.24790437690E+02 -0.67898640251E+02 -0.51092678711E+02  0.11727256281E+03  0.76925945051E+02 0.  0.
          6    2    1    2  501    0 -0.15487246452E+03  0.14756518243E+03 -0.92521828657E+02  0.28909040639E+03  0.17103219275E+03 0.  0.
         24    2    5    5    0    0 -0.17815224869E+03  0.91530307680E+02 -0.84680590008E+02  0.22772730214E+03  0.67623227368E+02 0.  0.
          5    1    5    5  501    0  0.23279784173E+02  0.56034874746E+02 -0.78412386491E+01  0.61363104244E+02  0.47000000000E+01 0. -1.
        -11    1    6    6    0    0 -0.14701430411E+02  0.24576157419E+02  0.58757304965E+01  0.29234291140E+02  0.00000000000E+00 0.  1.
         12    1    6    6    0    0 -0.16345081828E+03  0.66954150261E+02 -0.90556320504E+02  0.19849301100E+03  0.00000000000E+00 0. -1.
         -5    1    3    3    0  503  0.13008202683E+03 -0.79666542175E+02  0.39999888566E+02  0.15776619642E+03  0.47000000000E+01 0.  1.
         11    1    4    4    0    0  0.21210219444E+02  0.10046010940E+01 -0.42802524187E+02  0.47780107880E+02  0.00000000000E+00 0. -1.
        -12    1    4    4    0    0  0.35802182452E+01 -0.68903241345E+02 -0.82901545237E+01  0.69492454933E+02  0.00000000000E+00 0.  1.
</event>
<event>
12    1  0.8135779E-002  0.2061799E+03  0.7818608E-02  0.1144996E+00
         21   -1    0    0  503  502  0.00000000000E+00  0.00000000000E+00  0.22475797444E+04  0.22475797444E+04  0.00000000000E+00 0. -1.
         21   -1    0    0  501  503 -0.00000000000E+00 -0.00000000000E+00 -0.23258465095E+02  0.23258465095E+02  0.00000000000E+00 0. -1.
          6    2    1    2  501    0  0.96047529306E+02  0.53013201530E+02  0.16082098231E+04  0.16211432883E+04  0.17242737276E+03 0.  0.
         24    2    3    3    0    0  0.28970642825E+01  0.96569305801E+01  0.35861423607E+03  0.36732193088E+03  0.78864322121E+02 0.  0.
         -6    2    1    2    0  502 -0.96047529306E+02 -0.53013201530E+02  0.61611145623E+03  0.64969492115E+03  0.17456986181E+03 0.  0.
        -24    2    5    5    0    0 -0.28535390613E+01 -0.58651801273E+02  0.42890320608E+03  0.44044403693E+03  0.81146860698E+02 0.  0.
          5    1    3    3  501    0  0.93150465023E+02  0.43356270950E+02  0.12495955870E+04  0.12538213575E+04  0.47000000000E+01 0. -1.
        -13    1    4    4    0    0  0.16727105232E+02  0.72737584576E+01  0.15544541708E+02  0.23965316365E+02  0.00000000000E+00 0.  1.
         14    1    4    4    0    0 -0.13830040949E+02  0.23831721225E+01  0.34306969436E+03  0.34335661451E+03  0.00000000000E+00 0. -1.
         -5    1    5    5    0  502 -0.93193990245E+02  0.56385997437E+01  0.18720825015E+03  0.20925088422E+03  0.47000000000E+01 0.  1.
         11    1    6    6    0    0 -0.40561617427E+02 -0.25796180492E+02  0.25502676115E+03  0.25951750738E+03  0.00000000000E+00 0. -1.
        -12    1    6    6    0    0  0.37708078366E+02 -0.32855620781E+02  0.17387644494E+03  0.18092652955E+03  0.00000000000E+00 0.  1.
</event>
<event>
12    1  0.8135779E-002  0.1958464E+03  0.7818608E-02  0.1154187E+00
         21   -1    0    0  503  502  0.00000000000E+00  0.00000000000E+00  0.51483916636E+03  0.51483916636E+03  0.00000000000E+00 0. -1.
         21   -1    0    0  501  503 -0.00000000000E+00 -0.00000000000E+00 -0.64714219125E+03  0.64714219125E+03  0.00000000000E+00 0. -1.
          6    2    1    2  501    0 -0.83802469920E+02  0.92250239803E+01 -0.61348988342E+03  0.64399196845E+03  0.17677065178E+03 0.  0.
         24    2    3    3    0    0 -0.10658928378E+03  0.14197891986E+02 -0.60429085849E+03  0.61848353138E+03  0.76102440043E+02 0.  0.
         -6    2    1    2    0  502  0.83802469920E+02 -0.92250239803E+01  0.48118685853E+03  0.51798938917E+03  0.17223315427E+03 0.  0.
        -24    2    5    5    0    0 -0.97914321882E+01 -0.39226736159E+02  0.27417169973E+03  0.28877925147E+03  0.81170968801E+02 0.  0.
          5    1    3    3  501    0  0.22786813856E+02 -0.49728680059E+01 -0.91990249326E+01  0.25508437068E+02  0.47000000000E+01 0. -1.
        -13    1    4    4    0    0 -0.66768033418E+02  0.29549022816E+02 -0.21932371797E+03  0.23115797261E+03  0.00000000000E+00 0.  1.
         14    1    4    4    0    0 -0.39821250358E+02 -0.15351130830E+02 -0.38496714052E+03  0.38732555877E+03  0.00000000000E+00 0. -1.
         -5    1    5    5    0  502  0.93593902108E+02  0.30001712179E+02  0.20701515881E+03  0.22921013769E+03  0.47000000000E+01 0.  1.
         13    1    6    6    0    0 -0.44191559222E+02 -0.97637343197E+01  0.14483484008E+03  0.15174107985E+03  0.00000000000E+00 0. -1.
        -14    1    6    6    0    0  0.34400127033E+02 -0.29463001840E+02  0.12933685965E+03  0.13703817162E+03  0.00000000000E+00 0.  1.
</event>
<event>
12    1  0.8135779E-002  0.2113992E+03  0.7818608E-02  0.1140985E+00
         21   -1    0    0  503  502  0.00000000000E+00  0.00000000000E+00  0.14531619671E+03  0.14531619671E+03  0.00000000000E+00 0. -1.
         21   -1    0    0  501  503 -0.00000000000E+00 -0.00000000000E+00 -0.38865613503E+03  0.38865613503E+03  0.00000000000E+00 0. -1.
          6    2    1    2  501    0  0.10065731684E+03 -0.56340719516E+02 -0.24709005912E+03  0.32518169193E+03  0.17715378446E+03 0.  0.
         24    2    3    3    0    0 -0.18930733110E+02 -0.93933723559E+01 -0.86869795119E+02  0.11976022740E+03  0.79684017614E+02 0.  0.
         -6    2    1    2    0  502 -0.10065731684E+03  0.56340719516E+02  0.37501207993E+01  0.20879063981E+03  0.17399222902E+03 0.  0.
        -24    2    5    5    0    0 -0.17017191748E+02 -0.24787575442E+02 -0.11993089081E+01  0.92068501286E+02  0.87012423688E+02 0.  0.
          5    1    3    3  501    0  0.11958804995E+03 -0.46947347161E+02 -0.16022026400E+03  0.20542146453E+03  0.47000000000E+01 0. -1.
        -13    1    4    4    0    0  0.12978962359E+02  0.22769204182E+02 -0.57288837303E+01  0.26827415675E+02  0.00000000000E+00 0.  1.
         14    1    4    4    0    0 -0.31909695469E+02 -0.32162576538E+02 -0.81140911389E+02  0.92932811727E+02  0.00000000000E+00 0. -1.
         -5    1    5    5    0  502 -0.83640125089E+02  0.81128294958E+02  0.49494297075E+01  0.11672213853E+03  0.47000000000E+01 0.  1.
         13    1    6    6    0    0 -0.32317388345E+02  0.22831552706E+02  0.10000716177E+02  0.40813082614E+02  0.00000000000E+00 0. -1.
        -14    1    6    6    0    0  0.15300196597E+02 -0.47619128147E+02 -0.11200025085E+02  0.51255418673E+02  0.00000000000E+00 0.  1.
</event>
<event>
12    1  0.8135779E-002  0.1896274E+03  0.7818608E-02  0.1158855E+00
         21   -1    0    0  501  502  0.00000000000E+00  0.00000000000E+00  0.94684114730E+02  0.94684114730E+02  0.00000000000E+00 0.  1.
         21   -1    0    0  502  503 -0.00000000000E+00 -0.00000000000E+00 -0.58560044438E+03  0.58560044438E+03  0.00000000000E+00 0.  1.
         -6    2    1    2    0  503  0.73236202156E+02  0.34178020524E+02 -0.44746503502E+03  0.48598714276E+03  0.17154260977E+03 0.  0.
        -24    2    3    3    0    0  0.10000808780E+03 -0.18277461478E+02 -0.32038072328E+03  0.34584141952E+03  0.81405137289E+02 0.  0.
          6    2    1    2  501    0 -0.73236202156E+02 -0.34178020524E+02 -0.43451294626E+02  0.19429741635E+03  0.17126526969E+03 0.  0.
         24    2    5    5    0    0 -0.60900294581E+02 -0.69766180418E+02  0.18262932571E+02  0.12184448281E+03  0.77047890785E+02 0.  0.
          5    1    5    5  501    0 -0.12335907574E+02  0.35588159894E+02 -0.61714227197E+02  0.72452933542E+02  0.47000000000E+01 0. -1.
        -13    1    6    6    0    0  0.12613946444E+02 -0.28049323487E+02  0.21055972828E+02  0.37272378307E+02  0.00000000000E+00 0.  1.
         14    1    6    6    0    0 -0.73514241025E+02 -0.41716856931E+02 -0.27930402566E+01  0.84572104500E+02  0.00000000000E+00 0. -1.
         -5    1    3    3    0  503 -0.26771885647E+02  0.52455482002E+02 -0.12708431174E+03  0.14014572325E+03  0.47000000000E+01 0.  1.
         13    1    4    4    0    0 -0.14440719011E+02 -0.27466741500E+01 -0.39057021650E+02  0.41731636975E+02  0.00000000000E+00 0. -1.
        -14    1    4    4    0    0  0.11444880681E+03 -0.15530787328E+02 -0.28132370163E+03  0.30410978254E+03  0.00000000000E+00 0.  1.
</event>
<event>
12    1  0.8135779E-002  0.2237680E+03  0.7818608E-02  0.1131682E+00
         21   -1    0    0  503  502  0.00000000000E+00  0.00000000000E+00  0.19860975584E+03  0.19860975584E+03  0.00000000000E+00 0. -1.
         21   -1    0    0  501  503 -0.00000000000E+00 -0.00000000000E+00 -0.27394076339E+03  0.27394076339E+03  0.00000000000E+00 0.  1.
          6    2    1    2  501    0 -0.81970292245E+02 -0.11749294230E+03 -0.10978653042E+03  0.24924923038E+03  0.17189641148E+03 0.  0.
         24    2    3    3    0    0 -0.77705906766E+02 -0.29526714224E+02 -0.11262550447E+03  0.16100869525E+03  0.79556652070E+02 0.  0.
         -6    2    1    2    0  502  0.81970292245E+02  0.11749294230E+03  0.34455522871E+02  0.22330128885E+03  0.16778725293E+03 0.  0.
        -24    2    5    5    0    0  0.35956876256E+02  0.14234140046E+03  0.37523337034E+02  0.17070678527E+03  0.78605562647E+02 0.  0.
          5    1    3    3  501    0 -0.42643854784E+01 -0.87966228079E+02  0.28389740536E+01  0.88240535128E+02  0.47000000000E+01 0. -1.
        -13    1    4    4    0    0 -0.86237288353E+01  0.24668799339E+02 -0.35909012835E+02  0.44411435043E+02  0.00000000000E+00 0.  1.
         14    1    4    4    0    0 -0.69082177931E+02 -0.54195513563E+02 -0.76716491640E+02  0.11659726021E+03  0.00000000000E+00 0. -1.
         -5    1    5    5    0  502  0.46013415988E+02 -0.24848458157E+02 -0.30678141630E+01  0.52594503586E+02  0.47000000000E+01 0.  1.
         13    1    6    6    0    0  0.40550567153E+01  0.83504948801E+02  0.56781285597E+02  0.10106252695E+03  0.00000000000E+00 0. -1.
        -14    1    6    6    0    0  0.31901819541E+02  0.58836451659E+02 -0.19257948563E+02  0.69644258319E+02  0.00000000000E+00 0.  1.
</event>
<event>
12    1  0.8135779E-002  0.2009900E+03  0.7818608E-02  0.1149004E+00
         21   -1    0    0  501  502  0.00000000000E+00  0.00000000000E+00  0.50952354663E+03  0.50952354663E+03  0.00000000000E+00 0.  1.
         21   -1    0    0  502  503 -0.00000000000E+00 -0.00000000000E+00 -0.83370361534E+02  0.83370361534E+02  0.00000000000E+00 0.  1.
         -6    2    1    2    0  503  0.70583371006E+02 -0.76668250043E+02  0.14574711791E+03  0.24789456051E+03  0.17131683491E+03 0.  0.
        -24    2    3    3    0    0  0.71590774302E+02 -0.28607090963E+02  0.17419663385E+02  0.11077813021E+03  0.77619229843E+02 0.  0.
          6    2    1    2  501    0 -0.70583371006E+02  0.76668250043E+02  0.28040606718E+03  0.34499934765E+03  0.17186318553E+03 0.  0.
         24    2    5    5    0    0 -0.42232862353E+01  0.44114722388E+02  0.54067789457E+02  0.10685128661E+03  0.80807961958E+02 0.  0.
          5    1    5    5  501    0 -0.66360084770E+02  0.32553527655E+02  0.22633827772E+03  0.23814806104E+03  0.47000000000E+01 0. -1.
        -11    1    6    6    0    0 -0.15727934130E+02  0.23815547481E+02  0.71982774970E+02  0.77434282499E+02  0.00000000000E+00 0.  1.
         12    1    6    6    0    0  0.11504647895E+02  0.20299174906E+02 -0.17914985512E+02  0.29417004113E+02  0.00000000000E+00 0. -1.
         -5    1    3    3    0  503 -0.10074032961E+01 -0.48061159081E+02  0.12832745453E+03  0.13711643030E+03  0.47000000000E+01 0.  1.
         11    1    4    4    0    0 -0.15121102865E+02  0.30459606595E+01  0.95338016320E+01  0.18133367083E+02  0.00000000000E+00 0. -1.
        -12    1    4    4    0    0  0.86711877167E+02 -0.31653051622E+02  0.78858617529E+01  0.92644763125E+02  0.00000000000E+00 0.  1.
</event>
<event>
12    1  0.8135779E-002  0.2042485E+03  0.7818608E-02  0.1146484E+00
         21   -1    0    0  501  502  0.00000000000E+00  0.00000000000E+00  0.29453322626E+03  0.29453322626E+03  0.00000000000E+00 0. -1.
         21   -1    0    0  502  503 -0.00000000000E+00 -0.00000000000E+00 -0.14156540854E+03  0.14156540854E+03  0.00000000000E+00 0.  1.
         -6    2    1    2    0  503 -0.10092832280E+03 -0.48334201185E+02  0.59637928723E+02  0.21277715090E+03  0.17086460153E+03 0.  0.
        -24    2    3    3    0    0 -0.66308196472E+02  0.19849903039E+02  0.81127938639E+02  0.13320620305E+03  0.79820765049E+02 0.  0.
          6    2    1    2  501    0  0.10092832280E+03  0.48334201185E+02  0.93329888998E+02  0.22332148390E+03  0.16923148538E+03 0.  0.
         24    2    5    5    0    0  0.13220952245E+03  0.45098899428E+02  0.44326003202E+02  0.16490529220E+03  0.75602197581E+02 0.  0.
          5    1    5    5  501    0 -0.31281199653E+02  0.32353017569E+01  0.49003885796E+02  0.58416191697E+02  0.47000000000E+01 0. -1.
        -11    1    6    6    0    0  0.94261190432E+02  0.47363671080E+02  0.62661588918E+02  0.12269867190E+03  0.00000000000E+00 0.  1.
         12    1    6    6    0    0  0.37948332022E+02 -0.22647716517E+01 -0.18335585716E+02  0.42206620304E+02  0.00000000000E+00 0. -1.
         -5    1    3    3    0  503 -0.34620126329E+02 -0.68184104224E+02 -0.21490009916E+02  0.79570947852E+02  0.47000000000E+01 0.  1.
         13    1    4    4    0    0 -0.29214941537E+02 -0.36572562857E+01 -0.10773026361E+02  0.31351976485E+02  0.00000000000E+00 0. -1.
        -14    1    4    4    0    0 -0.37093254935E+02  0.23507159325E+02  0.91900965000E+02  0.10185422656E+03  0.00000000000E+00 0.  1.
</event>
<event>
12    1  0.8135779E-002  0.1800483E+03  0.7818608E-02  0.1167823E+00
         21   -1    0    0  503  502  0.00000000000E+00  0.00000000000E+00  0.32714758683E+03  0.32714758683E+03  0.00000000000E+00 0. -1.
         21   -1    0    0  501  503 -0.00000000000E+00 -0.00000000000E+00 -0.18890788023E+03  0.18890788023E+03  0.00000000000E+00 0.  1.
          6    2    1    2  501    0  0.53042347220E+02  0.22547356165E+02 -0.10897705143E+03  0.21022299211E+03  0.17028163379E+03 0.  0.
         24    2    3    3    0    0 -0.11519782194E+02  0.38321040367E+02 -0.86640766560E+01  0.89799320950E+02  0.79922739581E+02 0.  0.
         -6    2    1    2    0  502 -0.53042347220E+02 -0.22547356165E+02  0.24721675803E+03  0.30583247495E+03  0.17057404086E+03 0.  0.
        -24    2    5    5    0    0 -0.49445551766E+02  0.50321865400E+02  0.15952457878E+03  0.19166212551E+03  0.79430009411E+02 0.  0.
          5    1    3    3  501    0  0.64562129414E+02 -0.15773684202E+02 -0.10031297477E+03  0.12042367116E+03  0.47000000000E+01 0. -1.
        -11    1    4    4    0    0  0.11859734358E+02  0.49519992529E+02 -0.27390445075E+02  0.57819714981E+02  0.00000000000E+00 0.  1.
         12    1    4    4    0    0 -0.23379516552E+02 -0.11198952162E+02  0.18726368419E+02  0.31979605968E+02  0.00000000000E+00 0. -1.
         -5    1    5    5    0  502 -0.35967954533E+01 -0.72869221564E+02  0.87692179252E+02  0.11417034944E+03  0.47000000000E+01 0.  1.
         13    1    6    6    0    0  0.12572075777E+02  0.59496005199E+01  0.81067065928E+02  0.82251589734E+02  0.00000000000E+00 0. -1.
        -14    1    6    6    0    0 -0.62017627544E+02  0.44372264880E+02  0.78457512851E+02  0.10941053578E+03  0.00000000000E+00 0.  1.
</event>
<event>
12    1  0.8135779E-002  0.2432756E+03  0.7818608E-02  0.1117871E+00
         21   -1    0    0  501  502  0.00000000000E+00  0.00000000000E+00  0.18165979454E+03  0.18165979454E+03  0.00000000000E+00 0.  1.
         21   -1    0    0  502  503 -0.00000000000E+00 -0.00000000000E+00 -0.65863515293E+03  0.65863515293E+03  0.00000000000E+00 0.  1.
         -6    2    1    2    0  503 -0.67535519885E+02  0.15816977758E+03 -0.53768837570E+03  0.58955790638E+03  0.16997355859E+03 0.  0.
        -24    2    3    3    0    0  0.12400238700E+02  0.10332580929E+03 -0.40076984118E+03  0.42172953734E+03  0.80058405419E+02 0.  0.
          6    2    1    2  501    0  0.67535519885E+02 -0.15816977758E+03  0.60713017310E+02  0.25073704110E+03  0.17205890945E+03 0.  0.
         24    2    5    5    0    0  0.59569405232E+02 -0.12709238144E+03 -0.21814058690E+02  0.16206871639E+03  0.78034788492E+02 0.  0.
          5    1    5    5  501    0  0.79661146528E+01 -0.31077396137E+02  0.82527076000E+02  0.88668324708E+02  0.47000000000E+01 0. -1.
        -13    1    6    6    0    0  0.50856482912E+01 -0.75034235618E+02  0.17293658008E+02  0.77169106128E+02  0.00000000000E+00 0.  1.
         14    1    6    6    0    0  0.54483756941E+02 -0.52058145824E+02 -0.39107716698E+02  0.84899610260E+02  0.00000000000E+00 0. -1.
         -5    1    3    3    0  503 -0.79935758585E+02  0.54843968290E+02 -0.13691853452E+03  0.16782836903E+03  0.47000000000E+01 0.  1.
         13    1    4    4    0    0  0.25702845924E+01  0.26081678844E+02 -0.19702615564E+02  0.32788006866E+02  0.00000000000E+00 0. -1.
        -14    1    4    4    0    0  0.98299541075E+01  0.77244130445E+02 -0.38106722562E+03  0.38894153047E+03  0.00000000000E+00 0.  1.
</event>
<event>
12    1  0.8135779E-002  0.1982128E+03  0.7818608E-02  0.1151687E+00
         21   -1    0    0  503  502  0.00000000000E+00  0.00000000000E+00  0.41513163810E+03  0.41513163810E+03  0.00000000000E+00 0.  1.
         21   -1    0    0  501  503 -0.00000000000E+00 -0.00000000000E+00 -0.30665795718E+03  0.30665795718E+03  0.00000000000E+00 0.  1.
          6    2    1    2  501    0 -0.54150630484E+02  0.78658774180E+02 -0.24660400907E+03  0.31513438043E+03  0.17139616946E+03 0.  0.
         24    2    3    3    0    0 -0.51325087982E+02  0.63160852809E+02 -0.61914049656E+02  0.12971420795E+03  0.79805189145E+02 0.  0.
         -6    2    1    2    0  502  0.54150630484E+02 -0.78658774180E+02  0.35507768999E+03  0.40665521485E+03  0.17369169324E+03 0.  0.
        -24    2    5    5    0    0 -0.21032127058E+02 -0.65541844365E+02  0.28144745577E+03  0.30050436808E+03  0.79700195381E+02 0.  0.
          5    1    3    3  501    0 -0.28255425018E+01  0.15497921372E+02 -0.18468995941E+03  0.18542017249E+03  0.47000000000E+01 0. -1.
        -13    1    4    4    0    0  0.83449134454E+00  0.60403528123E+02 -0.43051372691E+02  0.74180208115E+02  0.00000000000E+00 0.  1.
         14    1    4    4    0    0 -0.52159579326E+02  0.27573246863E+01 -0.18862676965E+02  0.55533999831E+02  0.00000000000E+00 0. -1.
         -5    1    5    5    0  502  0.75182757541E+02 -0.13116929815E+02  0.73630234222E+02  0.10615084677E+03  0.47000000000E+01 0.  1.
         13    1    6    6    0    0 -0.20367572753E+02  0.14597345523E+02  0.61348261245E+02  0.66268617565E+02  0.00000000000E+00 0. -1.
        -14    1    6    6    0    0 -0.66455430477E+00 -0.80139189888E+02  0.22009919452E+03  0.23423575051E+03  0.00000000000E+00 0.  1.
</event>
<event>
12    1  0.8135779E-002  0.2323621E+03  0.7818608E-02  0.1125042E+00
         21   -1    0    0  501  502  0.00000000000E+00  0.00000000000E+00  0.49810971570E+03  0.49810971570E+03  0.00000000000E+00 0.  1.
         21   -1    0    0  502  503 -0.00000000000E+00 -0.00000000000E+00 -0.38639042203E+03  0.38639042203E+03  0.00000000000E+00 0. -1.
         -6    2    1    2    0  503  0.13838003352E+03 -0.75420288996E+02 -0.31937094851E+03  0.39477476524E+03  0.17032926598E+03 0.  0.
        -24    2    3    3    0    0  0.12138364339E+03 -0.36364242717E+02 -0.31872855255E+03  0.35191738897E+03  0.78750310578E+02 0.  0.
          6    2    1    2  501    0 -0.13838003352E+03  0.75420288996E+02  0.43109024218E+03  0.48972537249E+03  0.17074803040E+03 0.  0.
         24    2    5    5    0    0 -0.58027888509E+02  0.38214145706E+02  0.99841215779E+02  0.14681317994E+03  0.82208786994E+02 0.  0.
          5    1    5    5  501    0 -0.80352145008E+02  0.37206143290E+02  0.33124902640E+03  0.34291219255E+03  0.47000000000E+01 0. -1.
        -13    1    6    6    0    0 -0.42995453670E+01  0.49294483284E+02  0.65509532544E+02  0.82097082936E+02  0.00000000000E+00 0.  1.
         14    1    6    6    0    0 -0.53728343142E+02 -0.11080337578E+02  0.34331683235E+02  0.64716097003E+02  0.00000000000E+00 0. -1.
         -5    1    3    3    0  503  0.16996390122E+02 -0.39056046278E+02 -0.64239595829E+00  0.42857376269E+02  0.47000000000E+01 0.  1.
         13    1    4    4    0    0  0.80487592625E+02 -0.60810368384E+02 -0.20042687095E+03  0.22438155911E+03  0.00000000000E+00 0. -1.
        -14    1    4    4    0    0  0.40896050770E+02  0.24446125667E+02 -0.11830168160E+03  0.12753582986E+03  0.00000000000E+00 0.  1.
</event>
<event>
12    1  0.8135779E-002  0.2028560E+03  0.7818608E-02  0.1147372E+00
         21   -1    0    0  501  502  0.00000000000E+00  0.00000000000E+00  0.11268093980E+03  0.11268093980E+03  0.00000000000E+00 0.  1.
         21   -1    0    0  502  503 -0.00000000000E+00 -0.00000000000E+00 -0.51907509760E+03  0.51907509760E+03  0.00000000000E+00 0. -1.
         -6    2    1    2    0  503 -0.10644274465E+03  0.11029396011E+02 -0.31144270491E+02  0.20523283170E+03  0.17233352593E+03 0.  0.
        -24    2    3    3    0    0 -0.26051493176E+02  0.46898146684E+02 -0.59067462394E+02  0.11276059136E+03  0.79673517503E+02 0.  0.
          6    2    1    2  501    0  0.10644274465E+03 -0.11029396011E+02 -0.37524988731E+03  0.42652320570E+03  0.17221458015E+03 0.  0.
         24    2    5    5    0    0  0.13272873296E+03 -0.43353894798E+02 -0.30129108691E+03  0.34150661579E+03  0.79711811128E+02 0.  0.
          5    1    5    5  501    0 -0.26285988315E+02  0.32324498787E+02 -0.73958800398E+02  0.85016589910E+02  0.47000000000E+01 0. -1.
        -11    1    6    6    0    0  0.21461528512E+02  0.48549835887E+01 -0.68062568663E+01  0.23032438087E+02  0.00000000000E+00 0.  1.
         12    1    6    6    0    0  0.11126720445E+03 -0.48208878387E+02 -0.29448483004E+03  0.31847417771E+03  0.00000000000E+00 0. -1.
         -5    1    3    3    0  503 -0.80391251470E+02 -0.35868750673E+02  0.27923191902E+02  0.92472240341E+02  0.47000000000E+01 0.  1.
         13    1    4    4    0    0  0.28864412635E+02  0.16027226191E+02 -0.18806558929E+02  0.37996222903E+02  0.00000000000E+00 0. -1.
        -14    1    4    4    0    0 -0.54915905811E+02  0.30870920493E+02 -0.40260903464E+02  0.74764368458E+02  0.00000000000E+00 0.  1.
</event>
<event>
12    1  0.8135779E-002  0.1821555E+03  0.7818608E-02  0.1166636E+00
         21   -1    0    0  503  502  0.00000000000E+00  0.00000000000E+00  0.27263042507E+03  0.27263042507E+03  0.00000000000E+00 0. -1.
         21   -1    0    0  501  503 -0.00000000000E+00 -0.00000000000E+00 -0.25433709430E+03  0.25433709430E+03  0.00000000000E+00 0.  1.
          6    2    1    2  501    0  0.59068510350E+02  0.19851421237E+02 -0.18285379683E+03  0.25810104832E+03  0.17116504401E+03 0.  0.
         24    2    3    3    0    0 -0.11170064789E+02  0.60197715288E+02 -0.85056800757E+02  0.13102774931E+03  0.78645257081E+02 0.  0.
         -6    2    1    2    0  502 -0.59068510350E+02 -0.19851421237E+02  0.20114712759E+03  0.26886647105E+03  0.16717010641E+03 0.  0.
        -24    2    5    5    0    0 -0.37226181931E+02 -0.53498868502E+02  0.55194286026E+02  0.11742816685E+03  0.80591858196E+02 0.  0.
          5    1    3    3  501    0  0.70238575139E+02 -0.40346294051E+02 -0.97796996071E+02  0.12707329901E+03  0.47000000000E+01 0. -1.
        -13    1    4    4    0    0  0.36682187901E+01  0.19544886102E+01 -0.68580956472E+02  0.68706793299E+02  0.00000000000E+00 0.  1.
         14    1    4    4    0    0 -0.14838283579E+02  0.58243226678E+02 -0.16475844285E+02  0.62320956012E+02  0.00000000000E+00 0. -1.
         -5    1    5    5    0  502 -0.21842328419E+02  0.33647447265E+02  0.14595284157E+03  0.15143830420E+03  0.47000000000E+01 0.  1.
         11    1    6    6    0    0 -0.40361578739E+02 -0.27516190202E+02  0.71499584260E+02  0.86593234787E+02  0.00000000000E+00 0. -1.
        -12    1    6    6    0    0  0.31353968076E+01 -0.25982678299E+02 -0.16305298234E+02  0.30834932062E+02  0.00000000000E+00 0.  1.
</event>
<event>
12    1  0.8135779E-002  0.1768415E+03  0.7818608E-02  0.1171333E+00
         21   -1    0    0  501  502  0.00000000000E+00  0.00000000000E+00  0.47164482694E+02  0.47164482694E+02  0.00000000000E+00 0.  1.
         21   -1    0    0  502  503 -0.00000000000E+00 -0.00000000000E+00 -0.69276053201E+03  0.69276053201E+03  0.00000000000E+00 0.  1.
         -6    2    1    2    0  503  0.31178505509E+02 -0.61403946424E+01 -0.40898920917E+03  0.44558398007E+03  0.17396294554E+03 0.  0.
        -24    2    3    3    0    0  0.44943361855E+01  0.27205781177E+02 -0.10503399048E+03  0.13860698206E+03  0.86135954937E+02 0.  0.
          6    2    1    2  501    0 -0.31178505509E+02  0.61403946424E+01 -0.23660684014E+03  0.29434103463E+03  0.17217445866E+03 0.  0.
         24    2    5    5    0    0  0.15342504734E+02 -0.22747036058E+02 -0.22381373332E+03  0.23791017757E+03  0.75867287211E+02 0.  0.
          5    1    5    5  501    0 -0.46521010243E+02  0.28887430701E+02 -0.12793106820E+02  0.56430857061E+02  0.47000000000E+01 0. -1.
        -13    1    6    6    0    0 -0.30548986956E+02 -0.14246510036E+02 -0.10404729985E+03  0.10937113082E+03  0.00000000000E+00 0.  1.
         14    1    6    6    0    0  0.45891491689E+02 -0.85005260228E+01 -0.11976643347E+03  0.12853904675E+03  0.00000000000E+00 0. -1.
         -5    1    3    3    0  503  0.26684169324E+02 -0.33346175820E+02 -0.30395521869E+03  0.30697699801E+03  0.47000000000E+01 0.  1.
         11    1    4    4    0    0  0.16179242245E+02 -0.27752680180E+02 -0.53289197370E+02  0.62223128282E+02  0.00000000000E+00 0. -1.
        -12    1    4    4    0    0 -0.11684906060E+02  0.54958461357E+02 -0.51744793110E+02  0.76383853781E+02  0.00000000000E+00 0.  1.
</event>
<event>
12    1  0.8135779E-002  0.2373612E+03  0.7818608E-02  0.1121986E+00
         21   -1    0    0  503  502  0.00000000000E+00  0.00000000000E+00  0.31625213000E+03  0.31625213000E+03  0.00000000000E+00 0. -1.
         21   -1    0    0  501  503 -0.00000000000E+00 -0.00000000000E+00 -0.21533589664E+03  0.21533589664E+03  0.00000000000E+00 0.  1.
          6    2    1    2  501    0  0.15778536181E+03 -0.46301482012E+02 -0.62505147122E+02  0.24545309820E+03  0.17117325248E+03 0.  0.
         24    2    3    3    0    0  0.10941008074E+03 -0.60229844613E+02 -0.97901037561E+02  0.18373497961E+03  0.92605235417E+02 0.  0.
         -6    2    1    2    0  502 -0.15778536181E+03  0.46301482012E+02  0.16342138048E+03  0.28613492844E+03  0.16770987460E+03 0.  0.
        -24    2    5    5    0    0 -0.28669977504E+02  0.50031943728E+02  0.45053149968E+02  0.11086990967E+03  0.83289780559E+02 0.  0.
          5    1    3    3  501    0  0.48375281066E+02  0.13928362602E+02  0.35395890439E+02  0.61718118595E+02  0.47000000000E+01 0. -1.
        -11    1    4    4    0    0  0.71273111852E+02  0.68986856370E+01 -0.73861525141E+02  0.10287357889E+03  0.00000000000E+00 0.  1.
         12    1    4    4    0    0  0.38136968888E+02 -0.67128530250E+02 -0.24039512420E+02  0.80861400723E+02  0.00000000000E+00 0. -1.
         -5    1    5    5    0  502 -0.12911538430E+03 -0.37304617165E+01  0.11836823051E+03  0.17526501876E+03  0.47000000000E+01 0.  1.
         13    1    6    6    0    0  0.21377412194E+02 -0.94535091714E+01  0.75935710703E+01  0.24576918223E+02  0.00000000000E+00 0. -1.
        -14    1    6    6    0    0 -0.50047389698E+02  0.59485452899E+02  0.37459578897E+02  0.86292991450E+02  0.00000000000E+00 0.  1.
</event>
<event>
12    1  0.8135779E-002  0.2736364E+03  0.7818608E-02  0.1099241E+00
         21   -1    0    0  503  502  0.00000000000E+00  0.00000000000E+00  0.43782897584E+03  0.43782897584E+03  0.00000000000E+00 0.  1.
         21   -1    0    0  501  503 -0.00000000000E+00 -0.00000000000E+00 -0.25058872893E+03  0.25058872893E+03  0.00000000000E+00 0.  1.
          6    2    1    2  501    0 -0.21258572833E+03  0.14739519138E+02  0.28773960016E+03  0.39707803563E+03  0.17165938239E+03 0.  0.
         24    2    3    3    0    0 -0.12300507189E+03 -0.56443760229E+02  0.14254065905E+03  0.21215487382E+03  0.79848013292E+02 0.  0.
         -6    2    1    2    0  502  0.21258572833E+03 -0.14739519138E+02 -0.10049935326E+03  0.29133966914E+03  0.17137309443E+03 0.  0.
        -24    2    5    5    0    0  0.12558670258E+03 -0.17992763831E+02 -0.13075982765E+03  0.19905098948E+03  0.80171094983E+02 0.  0.
          5    1    3    3  501    0 -0.89580656447E+02  0.71183279367E+02  0.14519894111E+03  0.18492316180E+03  0.47000000000E+01 0. -1.
        -13    1    4    4    0    0 -0.12570617616E+03 -0.32993866277E+02  0.13495923624E+03  0.18736230513E+03  0.00000000000E+00 0.  1.
         14    1    4    4    0    0  0.27011042722E+01 -0.23449893953E+02  0.75814228049E+01  0.24792568693E+02  0.00000000000E+00 0. -1.
         -5    1    5    5    0  502  0.86999025756E+02  0.32532446932E+01  0.30260474393E+02  0.92288679663E+02  0.47000000000E+01 0.  1.
         11    1    6    6    0    0  0.57637574401E+02 -0.24610884459E+02 -0.14656603387E+02  0.64363045605E+02  0.00000000000E+00 0. -1.
        -12    1    6    6    0    0  0.67949128178E+02  0.66181206272E+01 -0.11610322426E+03  0.13468794388E+03  0.00000000000E+00 0.  1.
</event>
<event>
12    1  0.8135779E-002  0.1821567E+03  0.7818608E-02  0.1166633E+00
         21   -1    0    0  501  502  0.00000000000E+00  0.00000000000E+00  0.58878812824E+03  0.58878812824E+03  0.00000000000E+00 0. -1.
         21   -1    0    0  502  503 -0.00000000000E+00 -0.00000000000E+00 -0.59998410666E+02  0.59998410666E+02  0.00000000000E+00 0. -1.
         -6    2    1    2    0  503  0.52052707014E+02 -0.24660488535E+02  0.17016648941E+03  0.24655316906E+03  0.16886150258E+03 0.  0.
        -24    2    3    3    0    0  0.41032840131E+02  0.26205685776E+02  0.17088611517E+03  0.19429024706E+03  0.78588827490E+02 0.  0.
          6    2    1    2  501    0 -0.52052707014E+02  0.24660488535E+02  0.35862322816E+03  0.40223336984E+03  0.17281041646E+03 0.  0.
         24    2    5    5    0    0 -0.81772405004E+02 -0.30646070409E+02  0.22347206630E+03  0.25313607791E+03  0.80698213540E+02 0.  0.
          5    1    5    5  501    0  0.29719697990E+02  0.55306558944E+02  0.13515116186E+03  0.14909729193E+03  0.47000000000E+01 0. -1.
        -13    1    6    6    0    0  0.12418427721E+02 -0.38694282089E+00  0.51595126856E+01  0.13453164793E+02  0.00000000000E+00 0.  1.
         14    1    6    6    0    0 -0.94190832724E+02 -0.30259127588E+02  0.21831255362E+03  0.23968291311E+03  0.00000000000E+00 0. -1.
         -5    1    3    3    0  503  0.11019866883E+02 -0.50866174312E+02 -0.71962576256E+00  0.52262922004E+02  0.47000000000E+01 0.  1.
         11    1    4    4    0    0  0.58241041175E+02 -0.19780508041E+01  0.93787993842E+02  0.11041793039E+03  0.00000000000E+00 0. -1.
        -12    1    4    4    0    0 -0.17208201043E+02  0.28183736580E+02  0.77098121331E+02  0.83872316670E+02  0.00000000000E+00 0.  1.
</event>
<event>
12    1  0.8135779E-002  0.2689406E+03  0.7818608E-02  0.1102389E+00
         21   -1    0    0  503  502  0.00000000000E+00  0.00000000000E+00  0.32460801813E+03  0.32460801813E+03  0.00000000000E+00 0.  1.
         21   -1    0    0  501  503 -0.00000000000E+00 -0.00000000000E+00 -0.23400717230E+03  0.23400717230E+03  0.00000000000E+00 0. -1.
          6    2    1    2  501    0  0.16161172631E+03 -0.12120377816E+03  0.11401410533E+03  0.29210997623E+03  0.17753961833E+03 0.  0.
         24    2    3    3    0    0  0.12414071642E+03 -0.49855052016E+02  0.13779445972E+03  0.20795349959E+03  0.79755257992E+02 0.  0.
         -6    2    1    2    0  502 -0.16161172631E+03  0.12120377816E+03 -0.23413259489E+02  0.26650521421E+03  0.17224442678E+03 0.  0.
        -24    2    5    5    0    0 -0.12358650703E+03  0.13675719935E+03 -0.60840476737E+02  0.21073144974E+03  0.82036723504E+02 0.  0.
          5    1    3    3  501    0  0.37471009890E+02 -0.71348726143E+02 -0.23780354393E+02  0.84156476634E+02  0.47000000000E+01 0. -1.
        -13    1    4    4    0    0  0.26582915312E+02  0.18958385220E+02  0.50185329292E+02  0.59871855097E+02  0.00000000000E+00 0.  1.
         14    1    4    4    0    0  0.97557801112E+02 -0.68813437235E+02  0.87609130427E+02  0.14808164449E+03  0.00000000000E+00 0. -1.
         -5    1    5    5    0  502 -0.38025219284E+02 -0.15553421195E+02  0.37427217248E+02  0.55773764472E+02  0.47000000000E+01 0.  1.
         11    1    6    6    0    0 -0.11317373183E+01  0.20044857880E+02 -0.33950002324E+02  0.39442107126E+02  0.00000000000E+00 0. -1.
        -12    1    6    6    0    0 -0.12245476971E+03  0.11671234147E+03 -0.26890474413E+02  0.17128934261E+03  0.00000000000E+00 0.  1.
</event>
<event>
12    1  0.8135779E-002  0.2068139E+03  0.7818608E-02  0.1144251E+00
         21   -1    0    0  503  502  0.00000000000E+00  0.00000000000E+00  0.16764754185E+03  0.16764754185E+03  0.00000000000E+00 0. -1.
         21   -1    0    0  501  503 -0.00000000000E+00 -0.00000000000E+00 -0.25789308147E+03  0.25789308147E+03  0.00000000000E+00 0. -1.
          6    2    1    2  501    0  0.91575957720E+02 -0.68681042413E+02 -0.70181052298E+02  0.21775572800E+03  0.17143201380E+03 0.  0.
         24    2    3    3    0    0 -0.26412142346E+02 -0.14676280203E+02 -0.23587853161E+02  0.79803843982E+02  0.69994801476E+02 0.  0.
         -6    2    1    2    0  502 -0.91575957720E+02  0.68681042413E+02 -0.20064487324E+02  0.20778489532E+03  0.17224615367E+03 0.  0.
        -24    2    5    5    0    0  0.77675119930E+01 -0.68624084794E+01 -0.52313350535E+01  0.82015064467E+02  0.81189143612E+02 0.  0.
          5    1    3    3  501    0  0.11798810007E+03 -0.54004762209E+02 -0.46593199137E+02  0.13795188402E+03  0.47000000000E+01 0. -1.
        -13    1    4    4    0    0 -0.14432183927E+02  0.21015894615E+02  0.11837609336E+02  0.28108446313E+02  0.00000000000E+00 0.  1.
         14    1    4    4    0    0 -0.11979958419E+02 -0.35692174818E+02 -0.35425462498E+02  0.51695397669E+02  0.00000000000E+00 0. -1.
         -5    1    5    5    0  502 -0.99343469713E+02  0.75543450892E+02 -0.14833152271E+02  0.12576983086E+03  0.47000000000E+01 0.  1.
         13    1    6    6    0    0 -0.33982880602E+02 -0.16789464552E+02  0.40141485030E+01  0.38116081674E+02  0.00000000000E+00 0. -1.
        -14    1    6    6    0    0  0.41750392595E+02  0.99270560729E+01 -0.92454835565E+01  0.43898982793E+02  0.00000000000E+00 0.  1.
</event>
<event>
12    1  0.8135779E-002  0.1890410E+03  0.7818608E-02  0.1161409E+00
         21   -1    0    0  503  502  0.00000000000E+00  0.00000000000E+00  0.15757593135E+04  0.15757593135E+04  0.00000000000E+00 0. -1.
         21   -1    0    0  501  503 -0.00000000000E+00 -0.00000000000E+00 -0.45882994269E+02  0.45882994269E+02  0.00000000000E+00 0.  1.
          6    2    1    2  501    0 -0.49710165685E+02  0.76912217700E+01  0.18412411148E+03  0.26389045463E+03  0.18222576150E+03 0.  0.
         24    2    3    3    0    0 -0.71964426566E+00 -0.16608766496E+02  0.19169485392E+03  0.20848317389E+03  0.80261745326E+02 0.  0.
         -6    2    1    2    0  502  0.49710165685E+02 -0.76912217700E+01  0.13457522077E+04  0.13577518531E+04  0.17294749073E+03 0.  0.
        -24    2    5    5    0    0  0.52605271528E+02 -0.66054753691E+02  0.72405943997E+03  0.73330115771E+03  0.79611369896E+02 0.  0.
          5    1    3    3  501    0 -0.48990521419E+02  0.24299988266E+02 -0.75707424423E+01  0.55407280747E+02  0.47000000000E+01 0. -1.
        -11    1    4    4    0    0 -0.37405639138E+02 -0.23176834997E+02  0.90184299731E+02  0.10034717454E+03  0.00000000000E+00 0.  1.
         12    1    4    4    0    0  0.36685994873E+02  0.65680685015E+01  0.10151055419E+03  0.10813599935E+03  0.00000000000E+00 0. -1.
         -5    1    5    5    0  502 -0.28951058435E+01  0.58363531921E+02  0.62169276776E+03  0.62445069540E+03  0.47000000000E+01 0.  1.
         13    1    6    6    0    0  0.45768510872E+02 -0.50424245682E+02  0.25514210682E+03  0.26407358030E+03  0.00000000000E+00 0. -1.
        -14    1    6    6    0    0  0.68367606565E+01 -0.15630508010E+02  0.46891733315E+03  0.46922757741E+03  0.00000000000E+00 0.  1.
</event>
<event>
12    1  0.8135779E-002  0.1827432E+03  0.7818608E-02  0.1165361E+00
         21   -1    0    0  503  502  0.00000000000E+00  0.00000000000E+00  0.31287059074E+03  0.31287059074E+03  0.00000000000E+00 0.  1.
         21   -1    0    0  501  503 -0.00000000000E+00 -0.00000000000E+00 -0.11970963123E+03  0.11970963123E+03  0.00000000000E+00 0.  1.
          6    2    1    2  501    0 -0.63228434974E+01  0.56376149243E+02  0.24316759046E+02  0.18435396538E+03  0.17371479853E+03 0.  0.
         24    2    3    3    0    0  0.22536386520E+02  0.70622501650E+02  0.68287347946E+02  0.12966103711E+03  0.81568352927E+02 0.  0.
         -6    2    1    2    0  502  0.63228434974E+01 -0.56376149243E+02  0.16884420046E+03  0.24822625658E+03  0.17288626861E+03 0.  0.
        -24    2    5    5    0    0 -0.45605821930E+02 -0.28402004755E+02  0.16098801335E+03  0.18853581573E+03  0.82109978105E+02 0.  0.
          5    1    3    3  501    0 -0.28859230017E+02 -0.14246352407E+02 -0.43970588899E+02  0.54692928265E+02  0.47000000000E+01 0. -1.
        -11    1    4    4    0    0 -0.46684357278E+01  0.23564020809E+02 -0.16360067176E+02  0.29063880795E+02  0.00000000000E+00 0.  1.
         12    1    4    4    0    0  0.27204822248E+02  0.47058480841E+02  0.84647415122E+02  0.10059715632E+03  0.00000000000E+00 0. -1.
         -5    1    5    5    0  502  0.51928665428E+02 -0.27974144488E+02  0.78561871148E+01  0.59690440850E+02  0.47000000000E+01 0.  1.
         13    1    6    6    0    0 -0.69397742765E+01 -0.18358089689E+02 -0.29089008711E+01  0.19840403936E+02  0.00000000000E+00 0. -1.
        -14    1    6    6    0    0 -0.38666047654E+02 -0.10043915066E+02  0.16389691422E+03  0.16869541180E+03  0.00000000000E+00 0.  1.
</event>
<event>
12    1  0.8135779E-002  0.2022700E+03  0.7818608E-02  0.1148172E+00
         21   -1    0    0  501  502  0.00000000000E+00  0.00000000000E+00  0.28196380806E+03  0.28196380806E+03  0.00000000000E+00 0.  1.
         21   -1    0    0  502  503 -0.00000000000E+00 -0.00000000000E+00 -0.15255718218E+03  0.15255718218E+03  0.00000000000E+00 0. -1.
         -6    2    1    2    0  503 -0.35293647849E+02  0.97968894585E+02  0.13353154862E+02  0.20271027710E+03  0.17340589325E+03 0.  0.
        -24    2    3    3    0    0  0.93134412766E+01  0.12092092922E+03  0.28000171353E+02  0.15023920520E+03  0.84137969273E+02 0.  0.
          6    2    1    2  501    0  0.35293647849E+02 -0.97968894585E+02  0.11605347103E+03  0.23181071314E+03  0.17153498974E+03 0.  0.
         24    2    5    5    0    0  0.40818329488E+02 -0.13341443621E+03  0.11093256878E+03  0.19527002119E+03  0.79742075148E+02 0.  0.
          5    1    5    5  501    0 -0.55246816389E+01  0.35445541625E+02  0.51209022490E+01  0.36540691950E+02  0.47000000000E+01 0. -1.
        -13    1    6    6    0    0  0.32117005629E+02 -0.63724488355E+02  0.10198412138E+03  0.12447117530E+03  0.00000000000E+00 0.  1.
         14    1    6    6    0    0  0.87013238590E+01 -0.69689947855E+02  0.89484473983E+01  0.70798845893E+02  0.00000000000E+00 0. -1.
         -5    1    3    3    0  503 -0.44607089126E+02 -0.22952034630E+02 -0.14647016491E+02  0.52471071897E+02  0.47000000000E+01 0.  1.
         13    1    4    4    0    0  0.21587773807E+02  0.48417058745E+02 -0.25962812286E+02  0.59028054154E+02  0.00000000000E+00 0. -1.
        -14    1    4    4    0    0 -0.12274332530E+02  0.72503870471E+02  0.53962983639E+02  0.91211151048E+02  0.00000000000E+00 0.  1.
</event>
<event>
12    1  0.8135779E-002  0.2191171E+03  0.7818608E-02  0.1136204E+00
         21   -1    0    0  501  502  0.00000000000E+00  0.00000000000E+00  0.12678839964E+03  0.12678839964E+03  0.00000000000E+00 0.  1.
         21   -1    0    0  502  503 -0.00000000000E+00 -0.00000000000E+00 -0.72610887993E+03  0.72610887993E+03  0.00000000000E+00 0.  1.
         -6    2    1    2    0  503  0.13561139054E+03 -0.15851116095E+02 -0.60387984335E+03  0.64240421811E+03  0.17137854917E+03 0.  0.
        -24    2    3    3    0    0  0.72893159040E+02 -0.29443870330E+02 -0.17083767608E+03  0.20460752081E+03  0.80612479618E+02 0.  0.
          6    2    1    2  501    0 -0.13561139054E+03  0.15851116095E+02  0.45593630639E+01  0.21049306146E+03  0.16014004498E+03 0.  0.
         24    2    5    5    0    0 -0.63281549986E+02 -0.54951889705E+02 -0.33136577452E+01  0.10886262350E+03  0.69396150586E+02 0.  0.
          5    1    5    5  501    0 -0.72329840550E+02  0.70803005799E+02  0.78730208090E+01  0.10163043796E+03  0.47000000000E+01 0. -1.
        -11    1    6    6    0    0 -0.60173900181E+02 -0.30476472961E+02  0.24426547944E+02  0.71738203989E+02  0.00000000000E+00 0.  1.
         12    1    6    6    0    0 -0.31076498049E+01 -0.24475416743E+02 -0.27740205689E+02  0.37124419507E+02  0.00000000000E+00 0. -1.
         -5    1    3    3    0  503  0.62718231496E+02  0.13592754235E+02 -0.43304216728E+03  0.43779669730E+03  0.47000000000E+01 0.  1.
         13    1    4    4    0    0  0.76418288355E+02  0.31370877749E+01 -0.14040644636E+03  0.15988610413E+03  0.00000000000E+00 0. -1.
        -14    1    4    4    0    0 -0.35251293150E+01 -0.32580958105E+02 -0.30431229713E+02  0.44721416677E+02  0.00000000000E+00 0.  1.
</event>
<event>
12    1  0.8135779E-002  0.1812153E+03  0.7818608E-02  0.1166948E+00
         21   -1    0    0  503  502  0.00000000000E+00  0.00000000000E+00  0.15632077245E+03  0.15632077245E+03  0.00000000000E+00 0. -1.
         21   -1    0    0  501  503 -0.00000000000E+00 -0.00000000000E+00 -0.20873490619E+03  0.20873490619E+03  0.00000000000E+00 0. -1.
          6    2    1    2  501    0  0.25829842866E+02  0.44257450878E+02 -0.31451311758E+02  0.18263187849E+03  0.17245090690E+03 0.  0.
         24    2    3    3    0    0 -0.27193143012E+02  0.96346936337E+01  0.33100771697E+02  0.92082257682E+02  0.80939401682E+02 0.  0.
         -6    2    1    2    0  502 -0.25829842866E+02 -0.44257450878E+02 -0.20962821983E+02  0.18242380014E+03  0.17381915951E+03 0.  0.
        -24    2    5    5    0    0 -0.81717847800E+01  0.27021401319E+02 -0.54984744932E+02  0.10135553861E+03  0.80328630242E+02 0.  0.
          5    1    3    3  501    0  0.53022985878E+02  0.34622757244E+02 -0.64552083454E+02  0.90549620811E+02  0.47000000000E+01 0. -1.
        -13    1    4    4    0    0 -0.33650903078E+02  0.37873265474E+02  0.37162021598E+02  0.62831388372E+02  0.00000000000E+00 0.  1.
         14    1    4    4    0    0  0.64577600654E+01 -0.28238571840E+02 -0.40612499007E+01  0.29250869310E+02  0.00000000000E+00 0. -1.
         -5    1    5    5    0  502 -0.17658058086E+02 -0.71278852197E+02  0.34021922949E+02  0.81068261527E+02  0.47000000000E+01 0.  1.
         11    1    6    6    0    0 -0.99299609305E+01 -0.15633149218E+02  0.11895595181E+02  0.22011466631E+02  0.00000000000E+00 0. -1.
        -12    1    6    6    0    0  0.17581761505E+01  0.42654550537E+02 -0.66880340113E+02  0.79344071981E+02  0.00000000000E+00 0.  1.
</event>
<event>
12    1  0.8135779E-002  0.1998324E+03  0.7818608E-02  0.1150083E+00
         21   -1    0    0  503  502  0.00000000000E+00  0.00000000000E+00  0.26288081232E+03  0.26288081232E+03  0.00000000000E+00 0.  1.
         21   -1    0    0  501  503 -0.00000000000E+00 -0.00000000000E+00 -0.20145913919E+03  0.20145913919E+03  0.00000000000E+00 0. -1.
          6    2    1    2  501    0 -0.22368948038E+02  0.96433156863E+02 -0.85330787938E+02  0.21640999254E+03  0.17248831242E+03 0.  0.
         24    2    3    3    0    0  0.95462378082E+01  0.13292543002E+03 -0.47021664013E+02  0.15444271033E+03  0.62299384315E+02 0.  0.
         -6    2    1    2    0  502  0.22368948038E+02 -0.96433156863E+02  0.14675246106E+03  0.24792995897E+03  0.17358933190E+03 0.  0.
        -24    2    5    5    0    0 -0.18355987740E+02  0.14700143558E+02  0.64244920954E+02  0.10357375013E+03  0.77762943241E+02 0.  0.
          5    1    3    3  501    0 -0.31915185846E+02 -0.36492273157E+02 -0.38309123925E+02  0.61967282203E+02  0.47000000000E+01 0. -1.
        -13    1    4    4    0    0  0.13329944739E+02  0.90055400713E+02 -0.60544895404E+02  0.10933136322E+03  0.00000000000E+00 0.  1.
         14    1    4    4    0    0 -0.37837069303E+01  0.42870029307E+02  0.13523231392E+02  0.45111347111E+02  0.00000000000E+00 0. -1.
         -5    1    5    5    0  502  0.40724935778E+02 -0.11113330042E+03  0.82507540106E+02  0.14435620884E+03  0.47000000000E+01 0.  1.
         13    1    6    6    0    0  0.24712718615E+02 -0.11720765537E+02  0.92056080637E+01  0.28858933208E+02  0.00000000000E+00 0. -1.
        -14    1    6    6    0    0 -0.43068706355E+02  0.26420909095E+02  0.55039312890E+02  0.74714816924E+02  0.00000000000E+00 0.  1.
</event>
<event>
12    1  0.8135779E-002  0.1754422E+03  0.7818608E-02  0.1172736E+00
         21   -1    0    0  503  502  0.00000000000E+00  0.00000000000E+00  0.12337496747E+03  0.12337496747E+03  0.00000000000E+00 0.  1.
         21   -1    0    0  501  503 -0.00000000000E+00 -0.00000000000E+00 -0.34073767087E+03  0.34073767087E+03  0.00000000000E+00 0.  1.
          6    2    1    2  501    0  0.27216625587E+02 -0.89146988090E+01 -0.23082194040E+03  0.28992886821E+03  0.17308889013E+03 0.  0.
         24    2    3    3    0    0  0.35575658393E+02  0.47760343950E+02 -0.72727710976E+02  0.12170934116E+03  0.77312132671E+02 0.  0.
         -6    2    1    2    0  502 -0.27216625587E+02  0.89146988090E+01  0.13459237005E+02  0.17418377013E+03  0.17128519537E+03 0.  0.
        -24    2    5    5    0    0  0.91389173162E+01  0.32393342537E+02 -0.47988231522E+02  0.98878699918E+02  0.79632144782E+02 0.  0.
          5    1    3    3  501    0 -0.83590328062E+01 -0.56675042759E+02 -0.15809422943E+03  0.16821952704E+03  0.47000000000E+01 0. -1.
        -11    1    4    4    0    0  0.29049853781E+02  0.36708448350E+02 -0.89253513867E+02  0.10078488936E+03  0.00000000000E+00 0.  1.
         12    1    4    4    0    0  0.65258046119E+01  0.11051895600E+02  0.16525802891E+02  0.20924451806E+02  0.00000000000E+00 0. -1.
         -5    1    5    5    0  502 -0.36355542903E+02 -0.23478643728E+02  0.61447468527E+02  0.75305070211E+02  0.47000000000E+01 0.  1.
         13    1    6    6    0    0  0.28631432702E+02  0.41054073599E+02 -0.42689669963E+01  0.50233653827E+02  0.00000000000E+00 0. -1.
        -14    1    6    6    0    0 -0.19492515385E+02 -0.86607310620E+01 -0.43719264526E+02  0.48645046091E+02  0.00000000000E+00 0.  1.
</event>
<event>
12    1  0.8135779E-002  0.1873001E+03  0.7818608E-02  0.1160939E+00
         21   -1    0    0  501  502  0.00000000000E+00  0.00000000000E+00  0.80908979285E+03  0.80908979285E+03  0.00000000000E+00 0. -1.
         21   -1    0    0  502  503 -0.00000000000E+00 -0.00000000000E+00 -0.45327452266E+02  0.45327452266E+02  0.00000000000E+00 0.  1.
         -6    2    1    2    0  503  0.71660746778E+02 -0.19801697682E+02  0.47127873121E+03  0.50710184359E+03  0.17181754107E+03 0.  0.
        -24    2    3    3    0    0  0.22774762099E+02  0.32139575387E+02  0.12070874129E+03  0.14931818944E+03  0.78572764864E+02 0.  0.
          6    2    1    2  501    0 -0.71660746778E+02  0.19801697682E+02  0.29248360938E+03  0.34731540153E+03  0.17191264213E+03 0.  0.
         24    2    5    5    0    0 -0.10660170705E+03  0.27067290898E+02  0.27633195064E+03  0.30786130631E+03  0.79515248803E+02 0.  0.
          5    1    5    5  501    0  0.34940960277E+02 -0.72655932153E+01  0.16151658732E+02  0.39454095220E+02  0.47000000000E+01 0. -1.
        -13    1    6    6    0    0 -0.13284819146E+02  0.25637723215E+02  0.20154937230E+02  0.35213644602E+02  0.00000000000E+00 0.  1.
         14    1    6    6    0    0 -0.93316887908E+02  0.14295676823E+01  0.25617701341E+03  0.27264766171E+03  0.00000000000E+00 0. -1.
         -5    1    3    3    0  503  0.48885984679E+02 -0.51941273070E+02  0.35056998991E+03  0.35778365415E+03  0.47000000000E+01 0.  1.
         11    1    4    4    0    0 -0.17818461912E+02  0.41564446812E+02  0.51554418167E+02  0.68578122286E+02  0.00000000000E+00 0. -1.
        -12    1    4    4    0    0  0.40593224011E+02 -0.94248714249E+01  0.69154323127E+02  0.80740067155E+02  0.00000000000E+00 0.  1.
</event>
<event>
12    1  0.8135779E-002  0.1811010E+03  0.7818608E-02  0.1167448E+00
         21   -1    0    0  501  502  0.00000000000E+00  0.00000000000E+00  0.18467337585E+03  0.18467337585E+03  0.00000000000E+00 0.  1.
         21   -1    0    0  502  503 -0.00000000000E+00 -0.00000000000E+00 -0.20121250307E+03  0.20121250307E+03  0.00000000000E+00 0.  1.
         -6    2    1    2    0  503  0.36336274914E+02  0.28439136934E+02 -0.78300106920E+02  0.19730301370E+03  0.17512413623E+03 0.  0.
        -24    2    3    3    0    0 -0.46523309155E+02  0.31169378317E+02 -0.25970166462E+02  0.99151714384E+02  0.77592940915E+02 0.  0.
          6    2    1    2  501    0 -0.36336274914E+02 -0.28439136934E+02  0.61760979704E+02  0.18858286521E+03  0.17210452944E+03 0.  0.
         24    2    5    5    0    0 -0.24667722463E+02  0.29430454577E+02  0.85394622470E+02  0.12482015034E+03  0.82541990499E+02 0.  0.
          5    1    5    5  501    0 -0.11668552450E+02 -0.57869591511E+02 -0.23633642766E+02  0.63762714876E+02  0.47000000000E+01 0. -1.
        -13    1    6    6    0    0 -0.13053116290E+02 -0.27773541281E+02  0.17668575903E+02  0.35410902482E+02  0.00000000000E+00 0.  1.
         14    1    6    6    0    0 -0.11614606174E+02  0.57203995858E+02  0.67726046567E+02  0.89409247857E+02  0.00000000000E+00 0. -1.
         -5    1    3    3    0  503  0.82859584069E+02 -0.27302413828E+01 -0.52329940458E+02  0.98151299321E+02  0.47000000000E+01 0.  1.
         11    1    4    4    0    0 -0.32853498411E+02  0.53479902696E+02 -0.68994318669E+00  0.62768848737E+02  0.00000000000E+00 0. -1.
        -12    1    4    4    0    0 -0.13669810744E+02 -0.22310524379E+02 -0.25280223275E+02  0.36382865647E+02  0.00000000000E+00 0.  1.
</event>
<event>
12    1  0.8135779E-002  0.1876184E+03  0.7818608E-02  0.1161069E+00
         21   -1    0    0  503  502  0.00000000000E+00  0.00000000000E+00  0.62709577273E+02  0.62709577273E+02  0.00000000000E+00 0. -1.
         21   -1    0    0  501  503 -0.00000000000E+00 -0.00000000000E+00 -0.55794204433E+03  0.55794204433E+03  0.00000000000E+00 0. -1.
          6    2    1    2  501    0 -0.10784524223E+02  0.73722951135E+02 -0.22628812145E+03  0.29273134134E+03  0.17009980836E+03 0.  0.
         24    2    3    3    0    0  0.25910849054E+02 -0.58634743079E+01 -0.17183072842E+03  0.18944413404E+03  0.75216542503E+02 0.  0.
         -6    2    1    2    0  502  0.10784524223E+02 -0.73722951135E+02 -0.26894434560E+03  0.32792028026E+03  0.17218963293E+03 0.  0.
        -24    2    5    5    0    0  0.63901164710E+02 -0.12947630081E+02 -0.12474543656E+03  0.16260109652E+03  0.81404500301E+02 0.  0.
          5    1    3    3  501    0 -0.36695373277E+02  0.79586425443E+02 -0.54457393037E+02  0.10328720730E+03  0.47000000000E+01 0. -1.
        -11    1    4    4    0    0  0.29162638169E+02 -0.36621362816E+02 -0.81799293085E+02  0.94248119497E+02  0.00000000000E+00 0.  1.
         12    1    4    4    0    0 -0.32517891146E+01  0.30757888508E+02 -0.90031435332E+02  0.95196014548E+02  0.00000000000E+00 0. -1.
         -5    1    5    5    0  502 -0.53116640487E+02 -0.60775321054E+02 -0.14419890904E+03  0.16531918375E+03  0.47000000000E+01 0.  1.
         13    1    6    6    0    0  0.23398477363E+02 -0.44170037082E+02 -0.41808027268E+02  0.65164346561E+02  0.00000000000E+00 0. -1.
        -14    1    6    6    0    0  0.40502687346E+02  0.31222407002E+02 -0.82937409294E+02  0.97436749955E+02  0.00000000000E+00 0.  1.
</event>
<event>
12    1  0.8135779E-002  0.1878697E+03  0.7818608E-02  0.1160456E+00
         21   -1    0    0  503  502  0.00000000000E+00  0.00000000000E+00  0.55753292489E+03  0.55753292489E+03  0.00000000000E+00 0.  1.
         21   -1    0    0  501  503 -0.00000000000E+00 -0.00000000000E+00 -0.17271651657E+03  0.17271651657E+03  0.00000000000E+00 0.  1.
          6    2    1    2  501    0 -0.70525601139E+02  0.26065052701E+02 -0.98361456793E+02  0.21183273184E+03  0.17188624933E+03 0.  0.
         24    2    3    3    0    0 -0.99077913338E+02  0.16999635083E+02 -0.22910219988E+02  0.13051609478E+03  0.80025947741E+02 0.  0.
         -6    2    1    2    0  502  0.70525601139E+02 -0.26065052701E+02  0.48317786511E+03  0.51841670962E+03  0.17216790668E+03 0.  0.
        -24    2    5    5    0    0  0.81742723898E+02  0.39102498315E+02  0.32149115615E+03  0.34366741662E+03  0.80869348202E+02 0.  0.
          5    1    3    3  501    0  0.28552312199E+02  0.90654176182E+01 -0.75451236804E+02  0.81316637066E+02  0.47000000000E+01 0. -1.
        -13    1    4    4    0    0 -0.35277540359E+02  0.34541776184E+02  0.18196438163E+02  0.52618908365E+02  0.00000000000E+00 0.  1.
         14    1    4    4    0    0 -0.63800372980E+02 -0.17542141101E+02 -0.41106658151E+02  0.77897186413E+02  0.00000000000E+00 0. -1.
         -5    1    5    5    0  502 -0.11217122759E+02 -0.65167551017E+02  0.16168670897E+03  0.17474929300E+03  0.47000000000E+01 0.  1.
         13    1    6    6    0    0  0.72494517867E+02 -0.69962668262E+01  0.16726170797E+03  0.18243048491E+03  0.00000000000E+00 0. -1.
        -14    1    6    6    0    0  0.92482060315E+01  0.46098765142E+02  0.15422944817E+03  0.16123693171E+03  0.00000000000E+00 0.  1.
</event>
<event>
12    1  0.8135779E-002  0.2115077E+03  0.7818608E-02  0.1140428E+00
         21   -1    0    0  501  502  0.00000000000E+00  0.00000000000E+00  0.18182562892E+03  0.18182562892E+03  0.00000000000E+00 0.  1.
         21   -1    0    0  502  503 -0.00000000000E+00 -0.00000000000E+00 -0.24803713723E+03  0.24803713723E+03  0.00000000000E+00 0.  1.
         -6    2    1    2    0  503  0.67588129389E+02 -0.10240605404E+03 -0.12437306372E+02  0.21187305362E+03  0.17227985698E+03 0.  0.
        -24    2    3    3    0    0  0.10689375008E+03 -0.95660450328E+02 -0.32576343533E+02  0.16694972109E+03  0.78954389689E+02 0.  0.
          6    2    1    2  501    0 -0.67588129389E+02  0.10240605404E+03 -0.53774201932E+02  0.21798971254E+03  0.17196713302E+03 0.  0.
         24    2    5    5    0    0  0.29941384548E+02  0.52328304116E+02 -0.14862076432E+02  0.10155934435E+03  0.80365920561E+02 0.  0.
          5    1    5    5  501    0 -0.97529513937E+02  0.50077749925E+02 -0.38912125500E+02  0.11643036819E+03  0.47000000000E+01 0. -1.
        -11    1    6    6    0    0  0.14012518884E+02  0.71680597678E+02 -0.12742679406E+01  0.73048494357E+02  0.00000000000E+00 0.  1.
         12    1    6    6    0    0  0.15928865664E+02 -0.19352293562E+02 -0.13587808492E+02  0.28510849989E+02  0.00000000000E+00 0. -1.
         -5    1    3    3    0  503 -0.39305620691E+02 -0.67456037137E+01  0.20139037161E+02  0.44923332525E+02  0.47000000000E+01 0.  1.
         13    1    4    4    0    0  0.47613387680E+01  0.12500888575E+02 -0.95051619174E+01  0.16410078157E+02  0.00000000000E+00 0. -1.
        -14    1    4    4    0    0  0.10213241131E+03 -0.10816133890E+03 -0.23071181615E+02  0.15053964293E+03  0.00000000000E+00 0.  1.
</event>
<event>
12    1  0.8135779E-002  0.1753890E+03  0.7818608E-02  0.1172819E+00
         21   -1    0    0  501  502  0.00000000000E+00  0.00000000000E+00  0.12879658109E+03  0.12879658109E+03  0.00000000000E+00 0.  1.
         21   -1    0    0  502  503 -0.00000000000E+00 -0.00000000000E+00 -0.89161970225E+03  0.89161970225E+03  0.00000000000E+00 0.  1.
         -6    2    1    2    0  503 -0.32399224595E+02  0.92206219540E+01 -0.81827915896E+03  0.83646883371E+03  0.17018988850E+03 0.  0.
        -24    2    3    3    0    0 -0.58321484995E+02  0.60711645345E+02 -0.51680202209E+03  0.52949352016E+03  0.78687726854E+02 0.  0.
          6    2    1    2  501    0  0.32399224595E+02 -0.92206219540E+01  0.55456037799E+02  0.18394744964E+03  0.17212368366E+03 0.  0.
         24    2    5    5    0    0  0.58272252618E+02 -0.36573623724E+02  0.85734607461E+02  0.13540383970E+03  0.79060050043E+02 0.  0.
          5    1    5    5  501    0 -0.25873028022E+02  0.27353001770E+02 -0.30278569662E+02  0.48543609936E+02  0.47000000000E+01 0. -1.
        -13    1    6    6    0    0  0.43564570448E+02 -0.15082468121E+02  0.31492782322E+00  0.46102622728E+02  0.00000000000E+00 0.  1.
         14    1    6    6    0    0  0.14707682170E+02 -0.21491155602E+02  0.85419679638E+02  0.89301216976E+02  0.00000000000E+00 0. -1.
         -5    1    3    3    0  503  0.25922260399E+02 -0.51491023391E+02 -0.30147713687E+03  0.30697531355E+03  0.47000000000E+01 0.  1.
         11    1    4    4    0    0 -0.29916170213E+02 -0.12233269602E+02 -0.91332688539E+02  0.96882868047E+02  0.00000000000E+00 0. -1.
        -12    1    4    4    0    0 -0.28405314782E+02  0.72944914947E+02 -0.42546933355E+03  0.43261065211E+03  0.00000000000E+00 0.  1.
</event>
<event>
12    1  0.8135779E-002  0.2259884E+03  0.7818608E-02  0.1129590E+00
         21   -1    0    0  503  502  0.00000000000E+00  0.00000000000E+00  0.23401149370E+03  0.23401149370E+03  0.00000000000E+00 0.  1.
         21   -1    0    0  501  503 -0.00000000000E+00 -0.00000000000E+00 -0.28748249809E+03  0.28748249809E+03  0.00000000000E+00 0.  1.
          6    2    1    2  501    0 -0.12510186806E+03 -0.74331242002E+02 -0.15519199822E+03  0.27414472923E+03  0.17290218426E+03 0.  0.
         24    2    3    3    0    0 -0.80970548036E+01 -0.68579469556E+02 -0.94331402550E+02  0.14204888782E+03  0.80689324465E+02 0.  0.
         -6    2    1    2    0  502  0.12510186806E+03  0.74331242002E+02  0.10172099383E+03  0.24734926256E+03  0.17221755478E+03 0.  0.
        -24    2    5    5    0    0  0.66707011976E+02  0.21228667465E+02  0.12668082007E+03  0.16443409166E+03  0.78038827241E+02 0.  0.
          5    1    3    3  501    0 -0.11700481326E+03 -0.57517724466E+01 -0.60860595674E+02  0.13209584141E+03  0.47000000000E+01 0. -1.
        -11    1    4    4    0    0 -0.16641477938E+02 -0.32584780364E+02  0.41739513949E+01  0.36825650973E+02  0.00000000000E+00 0.  1.
         12    1    4    4    0    0  0.85444231341E+01 -0.35994689192E+02 -0.98505353945E+02  0.10522323685E+03  0.00000000000E+00 0. -1.
         -5    1    5    5    0  502  0.58394856086E+02  0.53102574538E+02 -0.24959826241E+02  0.82915170902E+02  0.47000000000E+01 0.  1.
         11    1    6    6    0    0  0.14588438326E+02 -0.22867112266E+02  0.93568842348E+01  0.28692832533E+02  0.00000000000E+00 0. -1.
        -12    1    6    6    0    0  0.52118573651E+02  0.44095779731E+02  0.11732393583E+03  0.13574125912E+03  0.00000000000E+00 0.  1.
</event>
<event>
12    1  0.8135779E-002  0.2254078E+03  0.7818608E-02  0.1130210E+00
         21   -1    0    0  501  502  0.00000000000E+00  0.00000000000E+00  0.12443138876E+03  0.12443138876E+03  0.00000000000E+00 0.  1.
         21   -1    0    0  502  503 -0.00000000000E+00 -0.00000000000E+00 -0.42748472274E+03  0.42748472274E+03  0.00000000000E+00 0.  1.
         -6    2    1    2    0  503  0.14176593315E+03 -0.37822648726E+02 -0.21480655663E+03  0.31136877529E+03  0.17111553085E+03 0.  0.
        -24    2    3    3    0    0  0.52078538860E+02 -0.66560073602E+01 -0.19057636039E+03  0.21326484755E+03  0.80037924868E+02 0.  0.
          6    2    1    2  501    0 -0.14176593315E+03  0.37822648726E+02 -0.88246777353E+02  0.24054733621E+03  0.16895974279E+03 0.  0.
         24    2    5    5    0    0 -0.73157677567E+02 -0.45176945047E+02 -0.45064822876E+02  0.12443189153E+03  0.77842502642E+02 0.  0.
          5    1    5    5  501    0 -0.68608255586E+02  0.82999593773E+02 -0.43181954477E+02  0.11611544468E+03  0.47000000000E+01 0. -1.
        -11    1    6    6    0    0 -0.10640987777E+02 -0.22463997566E+02  0.19607567408E+02  0.31659414195E+02  0.00000000000E+00 0.  1.
         12    1    6    6    0    0 -0.62516689790E+02 -0.22712947481E+02 -0.64672390283E+02  0.92772477333E+02  0.00000000000E+00 0. -1.
         -5    1    3    3    0  503  0.89687394292E+02 -0.31166641366E+02 -0.24230196236E+02  0.98103927743E+02  0.47000000000E+01 0.  1.
         13    1    4    4    0    0 -0.94172329680E+01 -0.23825057635E+02 -0.94478124599E+02  0.97889905893E+02  0.00000000000E+00 0. -1.
        -14    1    4    4    0    0  0.61495771828E+02  0.17169050275E+02 -0.96098235793E+02  0.11537494166E+03  0.00000000000E+00 0.  1.
</event>
<event>
12    1  0.8135779E-002  0.2547131E+03  0.7818608E-02  0.1110500E+00
         21   -1    0    0  503  502  0.00000000000E+00  0.00000000000E+00  0.10934693843E+03  0.10934693843E+03  0.00000000000E+00 0.  1.
         21   -1    0    0  501  503 -0.00000000000E+00 -0.00000000000E+00 -0.59145551198E+03  0.59145551198E+03  0.00000000000E+00 0. -1.
          6    2    1    2  501    0  0.12530895634E+03  0.13943165278E+03 -0.23406934939E+03  0.34527158639E+03  0.17111542218E+03 0.  0.
         24    2    3    3    0    0  0.11027217742E+02  0.62626921018E+02 -0.15989071907E+03  0.18879845197E+03  0.77692230338E+02 0.  0.
         -6    2    1    2    0  502 -0.12530895634E+03 -0.13943165278E+03 -0.24803922417E+03  0.35553086402E+03  0.17243902751E+03 0.  0.
        -24    2    5    5    0    0 -0.83046626294E+02 -0.13059732897E+03 -0.25820049823E+03  0.31092714996E+03  0.77818961827E+02 0.  0.
          5    1    3    3  501    0  0.11428173860E+03  0.76804731766E+02 -0.74178630314E+02  0.15647313441E+03  0.47000000000E+01 0. -1.
        -13    1    4    4    0    0  0.25366837093E+02  0.42966969153E+02 -0.33529265987E+02  0.60115293727E+02  0.00000000000E+00 0.  1.
         14    1    4    4    0    0 -0.14339619351E+02  0.19659951865E+02 -0.12636145309E+03  0.12868315825E+03  0.00000000000E+00 0. -1.
         -5    1    5    5    0  502 -0.42262330044E+02 -0.88343238107E+01  0.10161274061E+02  0.44603714065E+02  0.47000000000E+01 0.  1.
         13    1    6    6    0    0 -0.72391207487E+01 -0.83689841781E+02 -0.12054813069E+03  0.14692939222E+03  0.00000000000E+00 0. -1.
        -14    1    6    6    0    0 -0.75807505545E+02 -0.46907487192E+02 -0.13765236755E+03  0.16399775774E+03  0.00000000000E+00 0.  1.
</event>
<event>
12    1  0.8135779E-002  0.1991592E+03  0.7818608E-02  0.1150472E+00
         21   -1    0    0  503  502  0.00000000000E+00  0.00000000000E+00  0.19617601937E+04  0.19617601937E+04  0.00000000000E+00 0.  1.
         21   -1    0    0  501  503 -0.00000000000E+00 -0.00000000000E+00 -0.20281879094E+02  0.20281879094E+02  0.00000000000E+00 0.  1.
          6    2    1    2  501    0 -0.10289885692E+02  0.99266049233E+02  0.91139062718E+03  0.93289725156E+03  0.17235073650E+03 0.  0.
         24    2    3    3    0    0  0.39242643627E+02  0.65565500493E+02  0.47588768920E+03  0.49326775137E+03  0.10490549020E+03 0.  0.
         -6    2    1    2    0  502  0.10289885692E+02 -0.99266049233E+02  0.10300876875E+04  0.10491448213E+04  0.17223409032E+03 0.  0.
        -24    2    5    5    0    0 -0.22477784039E+02 -0.57159027120E+01  0.67464471423E+03  0.68010939301E+03  0.82857550673E+02 0.  0.
          5    1    3    3  501    0 -0.49532529319E+02  0.33700548741E+02  0.43550293798E+03  0.43962950019E+03  0.47000000000E+01 0. -1.
        -11    1    4    4    0    0 -0.11634127407E+02  0.72505013760E+02  0.34370789463E+03  0.35146471625E+03  0.00000000000E+00 0.  1.
         12    1    4    4    0    0  0.50876771034E+02 -0.69395132669E+01  0.13217979457E+03  0.14180303512E+03  0.00000000000E+00 0. -1.
         -5    1    5    5    0  502  0.32767669731E+02 -0.93550146521E+02  0.35544297324E+03  0.36903542827E+03  0.47000000000E+01 0.  1.
         13    1    6    6    0    0 -0.48775743395E+01  0.36575516196E+02  0.21049107451E+03  0.21370084596E+03  0.00000000000E+00 0. -1.
        -14    1    6    6    0    0 -0.17600209699E+02 -0.42291418908E+02  0.46415363971E+03  0.46640854704E+03  0.00000000000E+00 0.  1.
</event>
<event>
12    1  0.8135779E-002  0.2722750E+03  0.7818608E-02  0.1100097E+00
         21   -1    0    0  501  502  0.00000000000E+00  0.00000000000E+00  0.98724625679E+02  0.98724625679E+02  0.00000000000E+00 0. -1.
         21   -1    0    0  502  503 -0.00000000000E+00 -0.00000000000E+00 -0.90033730911E+03  0.90033730911E+03  0.00000000000E+00 0.  1.
         -6    2    1    2    0  503 -0.13815344971E+02 -0.20978248741E+03 -0.60628408661E+03  0.66461572449E+03  0.17301477331E+03 0.  0.
        -24    2    3    3    0    0  0.10011162183E+02 -0.34135644349E+02 -0.12500780837E+03  0.15171372418E+03  0.78260056026E+02 0.  0.
          6    2    1    2  501    0  0.13815344971E+02  0.20978248741E+03 -0.19532859682E+03  0.33444621030E+03  0.17175986453E+03 0.  0.
         24    2    5    5    0    0  0.31061037656E+02  0.10338355932E+03 -0.18282852163E+03  0.22583457328E+03  0.76954777431E+02 0.  0.
          5    1    5    5  501    0 -0.17245692685E+02  0.10639892810E+03 -0.12500075193E+02  0.10861163702E+03  0.47000000000E+01 0. -1.
        -11    1    6    6    0    0 -0.36831130328E+01  0.64255423936E+02 -0.45347667757E+02  0.78732050639E+02  0.00000000000E+00 0.  1.
         12    1    6    6    0    0  0.34744150689E+02  0.39128135380E+02 -0.13748085387E+03  0.14710252264E+03  0.00000000000E+00 0. -1.
         -5    1    3    3    0  503 -0.23826507154E+02 -0.17564684306E+03 -0.48127627824E+03  0.51290200031E+03  0.47000000000E+01 0.  1.
         11    1    4    4    0    0 -0.33730070109E+02 -0.12258314290E+02 -0.65495982889E+02  0.74684052337E+02  0.00000000000E+00 0. -1.
        -12    1    4    4    0    0  0.43741232292E+02 -0.21877330059E+02 -0.59511825476E+02  0.77029671844E+02  0.00000000000E+00 0.  1.
</event>
<event>
12    1  0.8135779E-002  0.1859334E+03  0.7818608E-02  0.1162763E+00
         21   -1    0    0  501  502  0.00000000000E+00  0.00000000000E+00  0.28888589305E+03  0.28888589305E+03  0.00000000000E+00 0. -1.
         21   -1    0    0  502  503 -0.00000000000E+00 -0.00000000000E+00 -0.57079104933E+03  0.57079104933E+03  0.00000000000E+00 0. -1.
         -6    2    1    2    0  503 -0.28945328214E+02  0.63489175491E+02 -0.52395483905E+03  0.55596754373E+03  0.17234421631E+03 0.  0.
        -24    2    3    3    0    0  0.34398874020E+02  0.36021156291E+02 -0.42577736314E+03  0.43585140489E+03  0.78735493563E+02 0.  0.
          6    2    1    2  501    0  0.28945328214E+02 -0.63489175491E+02  0.24204968277E+03  0.30370939865E+03  0.16965447965E+03 0.  0.
         24    2    5    5    0    0  0.16471174688E+02 -0.10045332457E+03  0.22378337564E+03  0.26037695354E+03  0.85761230796E+02 0.  0.
          5    1    5    5  501    0  0.12474153526E+02  0.36964149075E+02  0.18266307130E+02  0.43332445110E+02  0.47000000000E+01 0. -1.
        -11    1    6    6    0    0 -0.17557785704E+02 -0.38794132353E+02  0.24753427758E+02  0.49254367620E+02  0.00000000000E+00 0.  1.
         12    1    6    6    0    0  0.34028960392E+02 -0.61659192213E+02  0.19902994789E+03  0.21112258592E+03  0.00000000000E+00 0. -1.
         -5    1    3    3    0  503 -0.63344202234E+02  0.27468019200E+02 -0.98177475907E+02  0.12011613884E+03  0.47000000000E+01 0.  1.
         13    1    4    4    0    0 -0.10159087063E+02  0.34482389420E+02 -0.30493704429E+03  0.30704860073E+03  0.00000000000E+00 0. -1.
        -14    1    4    4    0    0  0.44557961083E+02  0.15387668707E+01 -0.12084031885E+03  0.12880280416E+03  0.00000000000E+00 0.  1.
</event>
<event>
12    1  0.8135779E-002  0.2212672E+03  0.7818608E-02  0.1133055E+00
         21   -1    0    0  501  502  0.00000000000E+00  0.00000000000E+00  0.91970143073E+03  0.91970143073E+03  0.00000000000E+00 0. -1.
         21   -1    0    0  502  503 -0.00000000000E+00 -0.00000000000E+00 -0.79358354704E+03  0.79358354704E+03  0.00000000000E+00 0.  1.
         -6    2    1    2    0  503 -0.13177430922E+03 -0.44718893464E+02 -0.76444079071E+03  0.79565002615E+03  0.17124541922E+03 0.  0.
        -24    2    3    3    0    0 -0.88523133496E+02 -0.69104394177E+02 -0.32103516989E+03  0.34944833250E+03  0.80242098155E+02 0.  0.
          6    2    1    2  501    0  0.13177430922E+03  0.44718893464E+02  0.89055867440E+03  0.91763495162E+03  0.17203169440E+03 0.  0.
         24    2    5    5    0    0  0.13841749848E+03  0.83843724288E+02  0.68471722388E+03  0.70795024282E+03  0.78528311116E+02 0.  0.
          5    1    5    5  501    0 -0.66431892576E+01 -0.39124830824E+02  0.20584145053E+03  0.20968470880E+03  0.47000000000E+01 0. -1.
        -11    1    6    6    0    0  0.43270093863E+02  0.11409432044E+02  0.81334446536E+02  0.92831936077E+02  0.00000000000E+00 0.  1.
         12    1    6    6    0    0  0.95147404618E+02  0.72434292244E+02  0.60338277734E+03  0.61511830674E+03  0.00000000000E+00 0. -1.
         -5    1    3    3    0  503 -0.43251175727E+02  0.24385500713E+02 -0.44340562082E+03  0.44620169366E+03  0.47000000000E+01 0.  1.
         13    1    4    4    0    0 -0.96113021298E+02 -0.33811209848E+02 -0.23345228251E+03  0.25471725301E+03  0.00000000000E+00 0. -1.
        -14    1    4    4    0    0  0.75898878023E+01 -0.35293184329E+02 -0.87582887386E+02  0.94731079482E+02  0.00000000000E+00 0.  1.
</event>
<event>
12    1  0.8135779E-002  0.1743407E+03  0.7818608E-02  0.1173674E+00
         21   -1    0    0  503  502  0.00000000000E+00  0.00000000000E+00  0.38766335150E+02  0.38766335150E+02  0.00000000000E+00 0. -1.
         21   -1    0    0  501  503 -0.00000000000E+00 -0.00000000000E+00 -0.83023564910E+03  0.83023564910E+03  0.00000000000E+00 0. -1.
          6    2    1    2  501    0  0.24909657411E+02 -0.18011324253E+01 -0.28673490320E+03  0.33500618876E+03  0.17143076353E+03 0.  0.
         24    2    3    3    0    0  0.19476780800E+02 -0.57755170339E+02 -0.10992808036E+03  0.14941763009E+03  0.80786388944E+02 0.  0.
         -6    2    1    2    0  502 -0.24909657411E+02  0.18011324253E+01 -0.50473441074E+03  0.53399579548E+03  0.17254260081E+03 0.  0.
        -24    2    5    5    0    0  0.17813554615E+02  0.50790579047E+02 -0.38848807615E+03  0.40072712312E+03  0.82232817341E+02 0.  0.
          5    1    3    3  501    0  0.54328766109E+01  0.55954037914E+02 -0.17680682284E+03  0.18558855867E+03  0.47000000000E+01 0. -1.
        -13    1    4    4    0    0  0.41617828106E+02 -0.12470351851E+02 -0.79336132700E+02  0.90453166021E+02  0.00000000000E+00 0.  1.
         14    1    4    4    0    0 -0.22141047306E+02 -0.45284818488E+02 -0.30591947664E+02  0.58964464071E+02  0.00000000000E+00 0. -1.
         -5    1    5    5    0  502 -0.42723212027E+02 -0.48989446622E+02 -0.11624633460E+03  0.13326867236E+03  0.47000000000E+01 0.  1.
         13    1    6    6    0    0  0.29736206423E+02  0.53578054709E+02 -0.38197429548E+03  0.38685812946E+03  0.00000000000E+00 0. -1.
        -14    1    6    6    0    0 -0.11922651807E+02 -0.27874756617E+01 -0.65137806674E+01  0.13868993665E+02  0.00000000000E+00 0.  1.
</event>
<event>
12    1  0.8135779E-002  0.1774874E+03  0.7818608E-02  0.1170523E+00
         21   -1    0    0  503  502  0.00000000000E+00  0.00000000000E+00  0.22945299396E+03  0.22945299396E+03  0.00000000000E+00 0. -1.
         21   -1    0    0  501  503 -0.00000000000E+00 -0.00000000000E+00 -0.18355727749E+03  0.18355727749E+03  0.00000000000E+00 0. -1.
          6    2    1    2  501    0  0.12196039405E+02  0.37979091175E+02 -0.81603469970E+02  0.19534818569E+03  0.17294690687E+03 0.  0.
         24    2    3    3    0    0  0.16829468119E+02 -0.71778844963E+01 -0.11322917231E+03  0.13982435151E+03  0.79970311932E+02 0.  0.
         -6    2    1    2    0  502 -0.12196039405E+02 -0.37979091175E+02  0.12749918644E+03  0.21766208576E+03  0.17184174781E+03 0.  0.
        -24    2    5    5    0    0 -0.16009776346E+02 -0.33013676146E+02 -0.23328814109E+01  0.87594196645E+02  0.79505252649E+02 0.  0.
          5    1    3    3  501    0 -0.46334287141E+01  0.45156975672E+02  0.31625702336E+02  0.55523834177E+02  0.47000000000E+01 0. -1.
        -11    1    4    4    0    0 -0.21741468083E+02  0.95996394888E+01 -0.58137782001E+01  0.24467213361E+02  0.00000000000E+00 0.  1.
         12    1    4    4    0    0  0.38570936201E+02 -0.16777523985E+02 -0.10741539411E+03  0.11535713815E+03  0.00000000000E+00 0. -1.
         -5    1    5    5    0  502  0.38137369416E+01 -0.49654150291E+01  0.12983206785E+03  0.13006788911E+03  0.47000000000E+01 0.  1.
         11    1    6    6    0    0 -0.79664263998E+01 -0.59210984354E+02 -0.55500130812E+01  0.60001727167E+02  0.00000000000E+00 0. -1.
        -12    1    6    6    0    0 -0.80433499464E+01  0.26197308208E+02  0.32171316703E+01  0.27592469478E+02  0.00000000000E+00 0.  1.
</event>
<event>
12    1  0.8135779E-002  0.2789298E+03  0.7818608E-02  0.1096353E+00
         21   -1    0    0  503  502  0.00000000000E+00  0.00000000000E+00  0.89437819366E+02  0.89437819366E+02  0.00000000000E+00 0. -1.
         21   -1    0    0  501  503 -0.00000000000E+00 -0.00000000000E+00 -0.13083298489E+04  0.13083298489E+04  0.00000000000E+00 0.  1.
          6    2    1    2  501    0 -0.23759338410E+02 -0.21842920303E+03 -0.10144233481E+04  0.10519219240E+04  0.17090694029E+03 0.  0.
         24    2    3    3    0    0 -0.78111121956E+02 -0.13178788878E+03 -0.55599766493E+03  0.58220176194E+03  0.79725110189E+02 0.  0.
         -6    2    1    2    0  502  0.23759338410E+02  0.21842920303E+03 -0.20446868144E+03  0.34584574422E+03  0.17183135396E+03 0.  0.
        -24    2    5    5    0    0  0.24847130207E+02  0.27615831760E+02 -0.63388436958E+02  0.10849231296E+03  0.79827777040E+02 0.  0.
          5    1    3    3  501    0  0.54351783546E+02 -0.86641314257E+02 -0.45842568313E+03  0.46972016208E+03  0.47000000000E+01 0. -1.
        -13    1    4    4    0    0 -0.10881523421E+02  0.53979118088E+01 -0.11197417616E+03  0.11263108421E+03  0.00000000000E+00 0.  1.
         14    1    4    4    0    0 -0.67229598535E+02 -0.13718580059E+03 -0.44402348877E+03  0.46957067773E+03  0.00000000000E+00 0. -1.
         -5    1    5    5    0  502 -0.10877917970E+01  0.19081337127E+03 -0.14108024449E+03  0.23735343126E+03  0.47000000000E+01 0.  1.
         13    1    6    6    0    0  0.48632880075E+02  0.38000967653E+01 -0.18024079183E+02  0.52004472791E+02  0.00000000000E+00 0. -1.
        -14    1    6    6    0    0 -0.23785749868E+02  0.23815734995E+02 -0.45364357774E+02  0.56487840164E+02  0.00000000000E+00 0.  1.
</event>
<event>
12    1  0.8135779E-002  0.1858985E+03  0.7818608E-02  0.1162528E+00
         21   -1    0    0  503  502  0.00000000000E+00  0.00000000000E+00  0.34693770277E+04  0.34693770277E+04  0.00000000000E+00 0. -1.
         21   -1    0    0  501  503 -0.00000000000E+00 -0.00000000000E+00 -0.12507170450E+02  0.12507170450E+02  0.00000000000E+00 0. -1.
          6    2    1    2  501    0  0.42594255550E+02  0.52165362677E+02  0.93684375275E+03  0.95510967178E+03  0.17327080652E+03 0.  0.
         24    2    3    3    0    0  0.90305447531E+02  0.32725522518E+02  0.77269094226E+03  0.78299778835E+03  0.82511881782E+02 0.  0.
         -6    2    1    2    0  502 -0.42594255550E+02 -0.52165362677E+02  0.25200261045E+04  0.25267745264E+04  0.17182096521E+03 0.  0.
        -24    2    5    5    0    0 -0.86748224182E+02 -0.59965551384E+02  0.15210805978E+04  0.15268122114E+04  0.79675732196E+02 0.  0.
          5    1    3    3  501    0 -0.47711191981E+02  0.19439840160E+02  0.16415281050E+03  0.17211188344E+03  0.47000000000E+01 0. -1.
        -11    1    4    4    0    0  0.73955223588E+02  0.57760348588E+02  0.64872281882E+03  0.65547458274E+03  0.00000000000E+00 0.  1.
         12    1    4    4    0    0  0.16350223942E+02 -0.25034826070E+02  0.12396812344E+03  0.12752320561E+03  0.00000000000E+00 0. -1.
         -5    1    5    5    0  502  0.44153968632E+02  0.78001887068E+01  0.99894550675E+03  0.99996231496E+03  0.47000000000E+01 0.  1.
         11    1    6    6    0    0 -0.12636749028E+02 -0.46550780483E+02  0.88031003102E+03  0.88163054241E+03  0.00000000000E+00 0. -1.
        -12    1    6    6    0    0 -0.74111475154E+02 -0.13414770901E+02  0.64077056674E+03  0.64518166901E+03  0.00000000000E+00 0.  1.
</event>
<event>
12    1  0.8135779E-002  0.1816720E+03  0.7818608E-02  0.1166337E+00
         21   -1    0    0  501  502  0.00000000000E+00  0.00000000000E+00  0.19917118304E+03  0.19917118304E+03  0.00000000000E+00 0.  1.
         21   -1    0    0  502  503 -0.00000000000E+00 -0.00000000000E+00 -0.28790049849E+03  0.28790049849E+03  0.00000000000E+00 0.  1.
         -6    2    1    2    0  503 -0.48898603130E+02  0.29863346120E+02 -0.20341623439E+03  0.27273226103E+03  0.17240020001E+03 0.  0.
        -24    2    3    3    0    0 -0.35145177158E+02  0.35229625656E+02 -0.29674941363E+02  0.98301528115E+02  0.79412078952E+02 0.  0.
          6    2    1    2  501    0  0.48898603130E+02 -0.29863346120E+02  0.11468691893E+03  0.21433942050E+03  0.17177137415E+03 0.  0.
         24    2    5    5    0    0  0.77177308142E+02 -0.33120165552E+02  0.13552060208E+03  0.17875256361E+03  0.80829222144E+02 0.  0.
          5    1    5    5  501    0 -0.28278705012E+02  0.32568194322E+01 -0.20833683143E+02  0.35586856889E+02  0.47000000000E+01 0. -1.
        -11    1    6    6    0    0  0.68431506899E+01  0.21104481120E+02  0.84885117198E+01  0.23754634620E+02  0.00000000000E+00 0.  1.
         12    1    6    6    0    0  0.70334157452E+02 -0.54224646672E+02  0.12703209036E+03  0.15499792899E+03  0.00000000000E+00 0. -1.
         -5    1    3    3    0  503 -0.13753425973E+02 -0.53662795368E+01 -0.17374129303E+03  0.17443073291E+03  0.47000000000E+01 0.  1.
         13    1    4    4    0    0  0.13100624106E+02  0.35493943224E+02 -0.32634161084E+02  0.49964335553E+02  0.00000000000E+00 0. -1.
        -14    1    4    4    0    0 -0.48245801264E+02 -0.26431756799E+00  0.29592197218E+01  0.48337192562E+02  0.00000000000E+00 0.  1.
</event>
<event>
12    1  0.8135779E-002  0.1829889E+03  0.7818608E-02  0.1165129E+00
         21   -1    0    0  501  502  0.00000000000E+00  0.00000000000E+00  0.11812932446E+03  0.11812932446E+03  0.00000000000E+00 0. -1.
         21   -1    0    0  502  503 -0.00000000000E+00 -0.00000000000E+00 -0.34949054836E+03  0.34949054836E+03  0.00000000000E+00 0. -1.
         -6    2    1    2    0  503 -0.23934107990E+02  0.56650229102E+02 -0.21844847370E+03  0.28496436091E+03  0.17234518080E+03 0.  0.
        -24    2    3    3    0    0 -0.59943731147E+01 -0.32866760753E+02 -0.13616520366E+03  0.16196943383E+03  0.81098571717E+02 0.  0.
          6    2    1    2  501    0  0.23934107990E+02 -0.56650229102E+02 -0.12912750198E+02  0.18265551191E+03  0.17150570524E+03 0.  0.
         24    2    5    5    0    0 -0.53286662915E+02 -0.37136288468E+02 -0.10568361413E+01  0.10199267018E+03  0.78630881346E+02 0.  0.
          5    1    5    5  501    0  0.77220770906E+02 -0.19513940633E+02 -0.11855914057E+02  0.80662841733E+02  0.47000000000E+01 0. -1.
        -13    1    6    6    0    0 -0.63332020911E+02 -0.15464977195E+02 -0.23419666677E+02  0.69271864271E+02  0.00000000000E+00 0.  1.
         14    1    6    6    0    0  0.10045357996E+02 -0.21671311273E+02  0.22362830535E+02  0.32720805906E+02  0.00000000000E+00 0. -1.
         -5    1    3    3    0  503 -0.17939734876E+02  0.89516989855E+02 -0.82283270041E+02  0.12299492709E+03  0.47000000000E+01 0.  1.
         11    1    4    4    0    0 -0.39514559453E+02 -0.12174969827E+02 -0.37848781878E+02  0.56054978269E+02  0.00000000000E+00 0. -1.
        -12    1    4    4    0    0  0.33520186338E+02 -0.20691790927E+02 -0.98316421783E+02  0.10591445556E+03  0.00000000000E+00 0.  1.
</event>
<event>
12    1  0.8135779E-002  0.2090018E+03  0.7818608E-02  0.1142633E+00
         21   -1    0    0  503  502  0.00000000000E+00  0.00000000000E+00  0.38196616982E+03  0.38196616982E+03  0.00000000000E+00 0.  1.
         21   -1    0    0  501  503 -0.00000000000E+00 -0.00000000000E+00 -0.24227674097E+03  0.24227674097E+03  0.00000000000E+00 0.  1.
          6    2    1    2  501    0 -0.94678037039E+01 -0.11829576622E+03 -0.15771848603E+03  0.26074158344E+03  0.17037466033E+03 0.  0.
         24    2    3    3    0    0  0.17172836256E+02 -0.14225429251E+03 -0.98733556320E+02  0.19156755209E+03  0.80116301882E+02 0.  0.
         -6    2    1    2    0  502  0.94678037039E+01  0.11829576622E+03  0.29740791487E+03  0.36350132736E+03  0.17204133093E+03 0.  0.
        -24    2    5    5    0    0  0.28381840650E+02  0.97434734157E+02  0.30700566777E+03  0.33338272326E+03  0.81194235187E+02 0.  0.
          5    1    3    3  501    0 -0.26640639960E+02  0.23958526291E+02 -0.58984929711E+02  0.69174031345E+02  0.47000000000E+01 0. -1.
        -13    1    4    4    0    0  0.11600763774E+02 -0.42556454840E+02  0.86313222547E+01  0.44945848446E+02  0.00000000000E+00 0.  1.
         14    1    4    4    0    0  0.55720724818E+01 -0.99697837673E+02 -0.10736487857E+03  0.14662170364E+03  0.00000000000E+00 0. -1.
         -5    1    5    5    0  502 -0.18914036946E+02  0.20861032064E+02 -0.95977528902E+01  0.30118604100E+02  0.47000000000E+01 0.  1.
         13    1    6    6    0    0  0.49949862811E+02  0.42981907839E+02  0.20970161246E+03  0.21981173642E+03  0.00000000000E+00 0. -1.
        -14    1    6    6    0    0 -0.21568022161E+02  0.54452826319E+02  0.97304055301E+02  0.11357098684E+03  0.00000000000E+00 0.  1.
</event>
<event>
12    1  0.8135779E-002  0.1982478E+03  0.7818608E-02  0.1151267E+00
         21   -1    0    0  501  502  0.00000000000E+00  0.00000000000E+00  0.38552180045E+03  0.38552180045E+03  0.00000000000E+00 0.  1.
         21   -1    0    0  502  503 -0.00000000000E+00 -0.00000000000E+00 -0.24845605864E+03  0.24845605864E+03  0.00000000000E+00 0. -1.
         -6    2    1    2    0  503  0.22208689190E+02 -0.96344724581E+02 -0.17498283114E+03  0.26428001704E+03  0.17160828763E+03 0.  0.
        -24    2    3    3    0    0 -0.34144384292E+02 -0.78273747670E+02 -0.53288049247E+02  0.12887714027E+03  0.80480323922E+02 0.  0.
          6    2    1    2  501    0 -0.22208689190E+02  0.96344724581E+02  0.31204857295E+03  0.36969784205E+03  0.17183320605E+03 0.  0.
         24    2    5    5    0    0 -0.48258772513E+02  0.10120143797E+03  0.31795622472E+03  0.34214453271E+03  0.58275897713E+02 0.  0.
          5    1    5    5  501    0  0.26050083323E+02 -0.48567133858E+01 -0.59076517660E+01  0.27553309338E+02  0.47000000000E+01 0. -1.
        -13    1    6    6    0    0 -0.57961329557E+02  0.62801540654E+02  0.19334170185E+03  0.21138723449E+03  0.00000000000E+00 0.  1.
         14    1    6    6    0    0  0.97025570444E+01  0.38399897312E+02  0.12461452287E+03  0.13075729821E+03  0.00000000000E+00 0. -1.
         -5    1    3    3    0  503  0.56353073482E+02 -0.18070976910E+02 -0.12169478189E+03  0.13540287677E+03  0.47000000000E+01 0.  1.
         11    1    4    4    0    0 -0.12024367188E+02  0.15802427683E+02 -0.15174356758E+02  0.24991263073E+02  0.00000000000E+00 0. -1.
        -12    1    4    4    0    0 -0.22120017104E+02 -0.94076175354E+02 -0.38113692489E+02  0.10388587720E+03  0.00000000000E+00 0.  1.
</event>
<event>
12    1  0.8135779E-002  0.1937375E+03  0.7818608E-02  0.1156081E+00
         21   -1    0    0  503  502  0.00000000000E+00  0.00000000000E+00  0.18936675060E+03  0.18936675060E+03  0.00000000000E+00 0. -1.
         21   -1    0    0  501  503 -0.00000000000E+00 -0.00000000000E+00 -0.20121636553E+03  0.20121636553E+03  0.00000000000E+00 0.  1.
          6    2    1    2  501    0  0.27169356667E+02  0.87060389243E+02  0.31311405919E+02  0.19625146952E+03  0.17092849332E+03 0.  0.
         24    2    3    3    0    0  0.34325021539E+02 -0.30100673176E+00  0.74898166878E+02  0.98245792245E+02  0.53518245334E+02 0.  0.
         -6    2    1    2    0  502 -0.27169356667E+02 -0.87060389243E+02 -0.43161020846E+02  0.19433164662E+03  0.16608500787E+03 0.  0.
        -24    2    5    5    0    0  0.16159029300E+02  0.23483292088E+02 -0.13940408446E+02  0.71966665100E+02  0.64593240070E+02 0.  0.
          5    1    3    3  501    0 -0.71556648722E+01  0.87361395975E+02 -0.43586760958E+02  0.98005677271E+02  0.47000000000E+01 0. -1.
        -13    1    4    4    0    0  0.94823837561E+01 -0.35573510858E+01 -0.71891257666E+01  0.12419898459E+02  0.00000000000E+00 0.  1.
         14    1    4    4    0    0  0.24842637783E+02  0.32563443540E+01  0.82087292644E+02  0.85825893786E+02  0.00000000000E+00 0. -1.
         -5    1    5    5    0  502 -0.43328385967E+02 -0.11054368133E+03 -0.29220612400E+02  0.12236498152E+03  0.47000000000E+01 0.  1.
         11    1    6    6    0    0  0.13718827587E+02  0.74903043594E+01  0.25177842813E+02  0.29635024186E+02  0.00000000000E+00 0. -1.
        -12    1    6    6    0    0  0.24402017131E+01  0.15992987729E+02 -0.39118251260E+02  0.42331640914E+02  0.00000000000E+00 0.  1.
</event>
<event>
12    1  0.8135779E-002  0.2403024E+03  0.7818608E-02  0.1119739E+00
         21   -1    0    0  503  502  0.00000000000E+00  0.00000000000E+00  0.65722366323E+02  0.65722366323E+02  0.00000000000E+00 0. -1.
         21   -1    0    0  501  503 -0.00000000000E+00 -0.00000000000E+00 -0.10281619650E+04  0.10281619650E+04  0.00000000000E+00 0. -1.
          6    2    1    2  501    0  0.13419825066E+03  0.10533444602E+03 -0.26962639720E+03  0.36057989381E+03  0.16797306258E+03 0.  0.
         24    2    3    3    0    0  0.32437825790E+02  0.70379445330E+02 -0.21110401590E+03  0.23800748559E+03  0.77956262098E+02 0.  0.
         -6    2    1    2    0  502 -0.13419825066E+03 -0.10533444602E+03 -0.69281320147E+03  0.73330443750E+03  0.16923578208E+03 0.  0.
        -24    2    5    5    0    0 -0.58711582101E+02 -0.21690465101E+02 -0.16875636643E+03  0.19725200628E+03  0.80697686590E+02 0.  0.
          5    1    3    3  501    0  0.10176042487E+03  0.34955000691E+02 -0.58522381301E+02  0.12257240822E+03  0.47000000000E+01 0. -1.
        -11    1    4    4    0    0  0.51900419737E+02  0.24736489410E+02 -0.13957821014E+03  0.15095570285E+03  0.00000000000E+00 0.  1.
         12    1    4    4    0    0 -0.19462593947E+02  0.45642955921E+02 -0.71525805759E+02  0.87051782737E+02  0.00000000000E+00 0. -1.
         -5    1    5    5    0  502 -0.75486668563E+02 -0.83643980921E+02 -0.52405683503E+03  0.53605243122E+03  0.47000000000E+01 0.  1.
         11    1    6    6    0    0 -0.64508205790E+02  0.85600273348E+01 -0.14296702668E+03  0.15708008594E+03  0.00000000000E+00 0. -1.
        -12    1    6    6    0    0  0.57966236885E+01 -0.30250492436E+02 -0.25789339756E+02  0.40171920340E+02  0.00000000000E+00 0.  1.
</event>
<event>
12    1  0.8135779E-002  0.1844559E+03  0.7818608E-02  0.1165949E+00
         21   -1    0    0  503  502  0.00000000000E+00  0.00000000000E+00  0.48981397814E+03  0.48981397814E+03  0.00000000000E+00 0.  1.
         21   -1    0    0  501  503 -0.00000000000E+00 -0.00000000000E+00 -0.92664007954E+02  0.92664007954E+02  0.00000000000E+00 0.  1.
          6    2    1    2  501    0  0.25654114445E+02 -0.59861475961E+02  0.45647940029E+02  0.19002033471E+03  0.17257596381E+03 0.  0.
         24    2    3    3    0    0  0.16426675533E+02 -0.13251708327E+02  0.91804020108E+02  0.12361182776E+03  0.80040379879E+02 0.  0.
         -6    2    1    2    0  502 -0.25654114445E+02  0.59861475961E+02  0.35150203016E+03  0.39245765138E+03  0.16194999546E+03 0.  0.
        -24    2    5    5    0    0 -0.13968484331E+02  0.20672537817E+02  0.72332847094E+02  0.11027003720E+03  0.79403828379E+02 0.  0.
          5    1    3    3  501    0  0.92274389118E+01 -0.46609767634E+02 -0.46156080079E+02  0.66408506955E+02  0.47000000000E+01 0. -1.
        -13    1    4    4    0    0 -0.10002051539E+02 -0.31778497572E+02  0.84058417925E+02  0.90419752084E+02  0.00000000000E+00 0.  1.
         14    1    4    4    0    0  0.26428727073E+02  0.18526789245E+02  0.77456021835E+01  0.33192075675E+02  0.00000000000E+00 0. -1.
         -5    1    5    5    0  502 -0.11685630115E+02  0.39188938144E+02  0.27916918307E+03  0.28218761418E+03  0.47000000000E+01 0.  1.
         11    1    6    6    0    0 -0.42246085880E+02 -0.31555960262E+01  0.21775410302E+02  0.47632531449E+02  0.00000000000E+00 0. -1.
        -12    1    6    6    0    0  0.28277601549E+02  0.23828133843E+02  0.50557436792E+02  0.62637505752E+02  0.00000000000E+00 0.  1.
</event>
<event>
12    1  0.8135779E-002  0.1954087E+03  0.7818608E-02  0.1153945E+00
         21   -1    0    0  501  502  0.00000000000E+00  0.00000000000E+00  0.63164691305E+03  0.63164691305E+03  0.00000000000E+00 0.  1.
         21   -1    0    0  502  503 -0.00000000000E+00 -0.00000000000E+00 -0.94147123665E+02  0.94147123665E+02  0.00000000000E+00 0.  1.
         -6    2    1    2    0  503  0.88492662600E+02 -0.19666308909E+02  0.49857537065E+02  0.20045649695E+03  0.17169542256E+03 0.  0.
        -24    2    3    3    0    0  0.42516365191E+01  0.36676412429E+02  0.44522981787E+02  0.98861220472E+02  0.80174867411E+02 0.  0.
          6    2    1    2  501    0 -0.88492662600E+02  0.19666308909E+02  0.48764225232E+03  0.52533753977E+03  0.17310935676E+03 0.  0.
         24    2    5    5    0    0 -0.85454567255E+02 -0.40371439013E+02  0.23546901786E+03  0.26605547063E+03  0.80046979489E+02 0.  0.
          5    1    5    5  501    0 -0.30380953449E+01  0.60037747922E+02  0.25217323446E+03  0.25928206914E+03  0.47000000000E+01 0. -1.
        -13    1    6    6    0    0 -0.39271284459E+02 -0.34917828595E+02  0.20209412409E+03  0.20881456733E+03  0.00000000000E+00 0.  1.
         14    1    6    6    0    0 -0.46183282796E+02 -0.54536104179E+01  0.33374893777E+02  0.57240903304E+02  0.00000000000E+00 0. -1.
         -5    1    3    3    0  503  0.84241026080E+02 -0.56342721338E+02  0.53345552788E+01  0.10159527648E+03  0.47000000000E+01 0.  1.
         11    1    4    4    0    0 -0.18860821076E+01 -0.25546132457E+02  0.10550699452E+02  0.27703419431E+02  0.00000000000E+00 0. -1.
        -12    1    4    4    0    0  0.61377186267E+01  0.62222544886E+02  0.33972282335E+02  0.71157801042E+02  0.00000000000E+00 0.  1.
</event>
<event>
12    1  0.8135779E-002  0.3587239E+03  0.7818608E-02  0.1059124E+00
         21   -1    0    0  501  502  0.00000000000E+00  0.00000000000E+00  0.74455243083E+03  0.74455243083E+03  0.00000000000E+00 0. -1.
         21   -1    0    0  502  503 -0.00000000000E+00 -0.00000000000E+00 -0.19874190290E+03  0.19874190290E+03  0.00000000000E+00 0. -1.
         -6    2    1    2    0  503 -0.29029766460E+03  0.12155788324E+03  0.44362138370E+03  0.57029907076E+03  0.17144108312E+03 0.  0.
        -24    2    3    3    0    0 -0.15542951085E+03  0.12289379928E+02  0.15730584488E+03  0.23544432243E+03  0.79872012793E+02 0.  0.
          6    2    1    2  501    0  0.29029766460E+03 -0.12155788324E+03  0.10218914422E+03  0.37299526297E+03  0.17214468318E+03 0.  0.
         24    2    5    5    0    0  0.22431484436E+03 -0.76318902725E+02  0.13802090726E+03  0.28520971081E+03  0.78441596028E+02 0.  0.
          5    1    5    5  501    0  0.65982820243E+02 -0.45238980519E+02 -0.35831763034E+02  0.87785552158E+02  0.47000000000E+01 0. -1.
        -13    1    6    6    0    0  0.32114676764E+02 -0.40433177537E+02  0.13385694794E+02  0.53342020345E+02  0.00000000000E+00 0.  1.
         14    1    6    6    0    0  0.19220016760E+03 -0.35885725188E+02  0.12463521246E+03  0.23186769047E+03  0.00000000000E+00 0. -1.
         -5    1    3    3    0  503 -0.13486815376E+03  0.10926850332E+03  0.28631553882E+03  0.33485474833E+03  0.47000000000E+01 0.  1.
         13    1    4    4    0    0 -0.97099256505E+01  0.26979682333E+02  0.23693462559E+02  0.37196318138E+02  0.00000000000E+00 0. -1.
        -14    1    4    4    0    0 -0.14571958520E+03 -0.14690302405E+02  0.13361238233E+03  0.19824800429E+03  0.00000000000E+00 0.  1.
</event>
<event>
12    1  0.8135779E-002  0.1888349E+03  0.7818608E-02  0.1159711E+00
         21   -1    0    0  501  502  0.00000000000E+00  0.00000000000E+00  0.35967812520E+03  0.35967812520E+03  0.00000000000E+00 0. -1.
         21   -1    0    0  502  503 -0.00000000000E+00 -0.00000000000E+00 -0.11903008231E+03  0.11903008231E+03  0.00000000000E+00 0.  1.
         -6    2    1    2    0  503  0.63411693692E+02  0.38571232509E+02  0.21163389402E+02  0.18917044560E+03  0.17271012004E+03 0.  0.
        -24    2    3    3    0    0  0.41099734551E+02  0.60213162657E+02 -0.47754415457E+02  0.11342118496E+03  0.72588345245E+02 0.  0.
          6    2    1    2  501    0 -0.63411693692E+02 -0.38571232509E+02  0.21948465349E+03  0.28953776190E+03  0.17363703399E+03 0.  0.
         24    2    5    5    0    0  0.19781228921E+01 -0.52668546746E+02  0.51152098809E+02  0.10834035202E+03  0.79644245724E+02 0.  0.
          5    1    5    5  501    0 -0.65389816584E+02  0.14097314237E+02  0.16833255468E+03  0.18119740988E+03  0.47000000000E+01 0. -1.
        -13    1    6    6    0    0 -0.12797013190E+01  0.18333554348E+02 -0.34657242855E+01  0.18702087993E+02  0.00000000000E+00 0.  1.
         14    1    6    6    0    0  0.32578242111E+01 -0.71002101094E+02  0.54617823094E+02  0.89638264027E+02  0.00000000000E+00 0. -1.
         -5    1    3    3    0  503  0.22311959142E+02 -0.21641930148E+02  0.68917804859E+02  0.75749260642E+02  0.47000000000E+01 0.  1.
         13    1    4    4    0    0 -0.14123220056E+02  0.40191444273E+02 -0.10542458085E+02  0.43885771726E+02  0.00000000000E+00 0. -1.
        -14    1    4    4    0    0  0.55222954607E+02  0.20021718384E+02 -0.37211957371E+02  0.69535413237E+02  0.00000000000E+00 0.  1.
</event>
<event>
12    1  0.8135779E-002  0.1822297E+03  0.7818608E-02  0.1165883E+00
         21   -1    0    0  503  502  0.00000000000E+00  0.00000000000E+00  0.18936872991E+04  0.18936872991E+04  0.00000000000E+00 0.  1.
         21   -1    0    0  501  503 -0.00000000000E+00 -0.00000000000E+00 -0.18260968198E+02  0.18260968198E+02  0.00000000000E+00 0. -1.
          6    2    1    2  501    0 -0.54207547579E+02  0.29192085615E+02  0.73816481175E+03  0.76032555510E+03  0.17151391886E+03 0.  0.
         24    2    3    3    0    0 -0.59086338675E+02  0.26358727376E+02  0.74400229757E+03  0.75094489616E+03  0.78694601824E+02 0.  0.
         -6    2    1    2    0  502  0.54207547579E+02 -0.29192085615E+02  0.11372615192E+04  0.11516227122E+04  0.17052997455E+03 0.  0.
        -24    2    5    5    0    0  0.77086235367E+02  0.27513323734E+02  0.80120990239E+03  0.81002101879E+03  0.86587946837E+02 0.  0.
          5    1    3    3  501    0  0.48787910961E+01  0.28333582387E+01 -0.58374858203E+01  0.93806589411E+01  0.47000000000E+01 0. -1.
        -13    1    4    4    0    0  0.15667726955E+02 -0.95715831156E+01  0.16834663516E+03  0.16934486246E+03  0.00000000000E+00 0.  1.
         14    1    4    4    0    0 -0.74754065630E+02  0.35930310492E+02  0.57565566241E+03  0.58160003370E+03  0.00000000000E+00 0. -1.
         -5    1    5    5    0  502 -0.22878687789E+02 -0.56705409349E+02  0.33605161677E+03  0.34160169340E+03  0.47000000000E+01 0.  1.
         11    1    6    6    0    0  0.80441653015E+02  0.12310950948E+02  0.38435642645E+03  0.39287692934E+03  0.00000000000E+00 0. -1.
        -12    1    6    6    0    0 -0.33554176480E+01  0.15202372786E+02  0.41685347594E+03  0.41714408946E+03  0.00000000000E+00 0.  1.
</event>
<event>
12    1  0.8135779E-002  0.2147797E+03  0.7818608E-02  0.1138079E+00
         21   -1    0    0  501  502  0.00000000000E+00  0.00000000000E+00  0.17388381886E+03  0.17388381886E+03  0.00000000000E+00 0. -1.
         21   -1    0    0  502  503 -0.00000000000E+00 -0.00000000000E+00 -0.49493900805E+03  0.49493900805E+03  0.00000000000E+00 0. -1.
         -6    2    1    2    0  503  0.12165528586E+03 -0.38071929071E+02 -0.38883347116E+03  0.44360248320E+03  0.17129569302E+03 0.  0.
        -24    2    3    3    0    0  0.12362959869E+03 -0.73089701265E+02 -0.22526031307E+03  0.27624534912E+03  0.70305776153E+02 0.  0.
          6    2    1    2  501    0 -0.12165528586E+03  0.38071929071E+02  0.67778281972E+02  0.22522034371E+03  0.17286071663E+03 0.  0.
         24    2    5    5    0    0 -0.45026517705E+02  0.51034709466E+02 -0.19938590309E+02  0.10793291272E+03  0.81363612253E+02 0.  0.
          5    1    5    5  501    0 -0.76628768151E+02 -0.12962780395E+02  0.87716872281E+02  0.11728743098E+03  0.47000000000E+01 0. -1.
        -13    1    6    6    0    0  0.15093127761E+02 -0.85160138114E+01  0.76292497498E+01  0.18934900279E+02  0.00000000000E+00 0.  1.
         14    1    6    6    0    0 -0.60119645465E+02  0.59550723277E+02 -0.27567840059E+02  0.88998012446E+02  0.00000000000E+00 0. -1.
         -5    1    3    3    0  503 -0.19743128368E+01  0.35017772194E+02 -0.16357315809E+03  0.16735713408E+03  0.47000000000E+01 0.  1.
         11    1    4    4    0    0  0.68628519231E+02 -0.72766750738E+02 -0.17585965412E+03  0.20231532718E+03  0.00000000000E+00 0. -1.
        -12    1    4    4    0    0  0.55001079461E+02 -0.32295052714E+00 -0.49400658954E+02  0.73930021940E+02  0.00000000000E+00 0.  1.
</event>
<event>
12    1  0.8135779E-002  0.1801292E+03  0.7818608E-02  0.1167796E+00
         21   -1    0    0  503  502  0.00000000000E+00  0.00000000000E+00  0.67782840632E+02  0.67782840632E+02  0.00000000000E+00 0. -1.
         21   -1    0    0  501  503 -0.00000000000E+00 -0.00000000000E+00 -0.54766566973E+03  0.54766566973E+03  0.00000000000E+00 0.  1.
          6    2    1    2  501    0 -0.45022586017E+02 -0.30836820633E+02 -0.12999325903E+03  0.22213683647E+03  0.17166416039E+03 0.  0.
         24    2    3    3    0    0 -0.42918437132E+02  0.46264999290E+02 -0.62614181629E+02  0.11961294584E+03  0.80026737195E+02 0.  0.
         -6    2    1    2    0  502  0.45022586017E+02  0.30836820633E+02 -0.34988957007E+03  0.39331167390E+03  0.17115320278E+03 0.  0.
        -24    2    5    5    0    0  0.27680808127E+02  0.54713742791E+01 -0.35181725134E+03  0.36216766831E+03  0.81202700387E+02 0.  0.
          5    1    3    3  501    0 -0.21041488846E+01 -0.77101819923E+02 -0.67379077400E+02  0.10252389063E+03  0.47000000000E+01 0. -1.
        -13    1    4    4    0    0 -0.12518775030E+02 -0.23011644857E+02 -0.14247404911E+02  0.29820195740E+02  0.00000000000E+00 0.  1.
         14    1    4    4    0    0 -0.30399662102E+02  0.69276644147E+02 -0.48366776717E+02  0.89792750098E+02  0.00000000000E+00 0. -1.
         -5    1    5    5    0  502  0.17341777889E+02  0.25365446354E+02  0.19276812722E+01  0.31144005590E+02  0.47000000000E+01 0.  1.
         13    1    6    6    0    0  0.14266060014E+02 -0.36252672274E+02 -0.21502647435E+03  0.21852725547E+03  0.00000000000E+00 0. -1.
        -14    1    6    6    0    0  0.13414748113E+02  0.41724046553E+02 -0.13679077700E+03  0.14364041283E+03  0.00000000000E+00 0.  1.
</event>
<event>
12    1  0.8135779E-002  0.1811794E+03  0.7818608E-02  0.1166669E+00
         21   -1    0    0  503  502  0.00000000000E+00  0.00000000000E+00  0.51978988733E+02  0.51978988733E+02  0.00000000000E+00 0.  1.
         21   -1    0    0  501  503 -0.00000000000E+00 -0.00000000000E+00 -0.81223741124E+03  0.81223741124E+03  0.00000000000E+00 0.  1.
          6    2    1    2  501    0 -0.57534269628E+02  0.36207624919E+01 -0.58396320558E+03  0.61142006832E+03  0.17175031986E+03 0.  0.
         24    2    3    3    0    0 -0.71223464813E+02  0.60656353015E+02 -0.39274527169E+03  0.41135297734E+03  0.78806398426E+02 0.  0.
         -6    2    1    2    0  502  0.57534269628E+02 -0.36207624919E+01 -0.17629521693E+03  0.25279633165E+03  0.17176344105E+03 0.  0.
        -24    2    5    5    0    0 -0.30382753207E+02 -0.14213241139E+02 -0.12095952111E+03  0.14827010174E+03  0.78915710773E+02 0.  0.
          5    1    3    3  501    0  0.13689195185E+02 -0.57035590523E+02 -0.19121793389E+03  0.20006709098E+03  0.47000000000E+01 0. -1.
        -11    1    4    4    0    0 -0.87150583747E+02  0.39320525366E+02 -0.31339970633E+03  0.32765943278E+03  0.00000000000E+00 0.  1.
         12    1    4    4    0    0  0.15927118934E+02  0.21335827649E+02 -0.79345565359E+02  0.83693544561E+02  0.00000000000E+00 0. -1.
         -5    1    5    5    0  502  0.87917022835E+02  0.10592478647E+02 -0.55335695816E+02  0.10452622991E+03  0.47000000000E+01 0.  1.
         11    1    6    6    0    0 -0.34760443189E+02  0.24685745743E+02 -0.40549654060E+02  0.58838328477E+02  0.00000000000E+00 0. -1.
        -12    1    6    6    0    0  0.43776899818E+01 -0.38898986882E+02 -0.80409867050E+02  0.89431773263E+02  0.00000000000E+00 0.  1.
</event>
<event>
12    1  0.8135779E-002  0.2364610E+03  0.7818608E-02  0.1122393E+00
         21   -1    0    0  503  502  0.00000000000E+00  0.00000000000E+00  0.92620693248E+02  0.92620693248E+02  0.00000000000E+00 0.  1.
         21   -1    0    0  501  503 -0.00000000000E+00 -0.00000000000E+00 -0.60131932253E+03  0.60131932253E+03  0.00000000000E+00 0.  1.
          6    2    1    2  501    0  0.29028921098E+02  0.15778324507E+03 -0.26727814701E+03  0.35600860649E+03  0.17194850781E+03 0.  0.
         24    2    3    3    0    0  0.30210224813E+02  0.95357719314E+02 -0.62647366168E+02  0.14201283968E+03  0.78975957286E+02 0.  0.
         -6    2    1    2    0  502 -0.29028921098E+02 -0.15778324507E+03 -0.24142048227E+03  0.33793140929E+03  0.17371113217E+03 0.  0.
        -24    2    5    5    0    0 -0.78972228063E+02 -0.62891847030E+02 -0.13278282516E+03  0.18521290394E+03  0.80501825461E+02 0.  0.
          5    1    3    3  501    0 -0.11813037152E+01  0.62425525754E+02 -0.20463078084E+03  0.21399576681E+03  0.47000000000E+01 0. -1.
        -13    1    4    4    0    0 -0.72409141834E+01  0.88329095990E+02 -0.36763052950E+02  0.95947809244E+02  0.00000000000E+00 0.  1.
         14    1    4    4    0    0  0.37451138997E+02  0.70286233240E+01 -0.25884313218E+02  0.46065030433E+02  0.00000000000E+00 0. -1.
         -5    1    5    5    0  502  0.49943306965E+02 -0.94891398038E+02 -0.10863765712E+03  0.15271850535E+03  0.47000000000E+01 0.  1.
         11    1    6    6    0    0  0.93662616353E+01  0.10574054497E+02 -0.16910070622E+02  0.22033791639E+02  0.00000000000E+00 0. -1.
        -12    1    6    6    0    0 -0.88338489699E+02 -0.73465901526E+02 -0.11587275453E+03  0.16317911230E+03  0.00000000000E+00 0.  1.
</event>
<event>
12    1  0.8135779E-002  0.2780153E+03  0.7818608E-02  0.1096985E+00
         21   -1    0    0  503  502  0.00000000000E+00  0.00000000000E+00  0.30066064284E+03  0.30066064284E+03  0.00000000000E+00 0.  1.
         21   -1    0    0  501  503 -0.00000000000E+00 -0.00000000000E+00 -0.32289254919E+03  0.32289254919E+03  0.00000000000E+00 0. -1.
          6    2    1    2  501    0  0.17063444404E+03  0.13415137907E+03  0.13114265094E+03  0.30603738916E+03  0.17131194549E+03 0.  0.
         24    2    3    3    0    0  0.88835153493E+02  0.14807761513E+03  0.11166640300E+03  0.22067651862E+03  0.80062948449E+02 0.  0.
         -6    2    1    2    0  502 -0.17063444404E+03 -0.13415137907E+03 -0.15337455729E+03  0.31751580287E+03  0.17372341306E+03 0.  0.
        -24    2    5    5    0    0 -0.33513298027E+02 -0.82470736182E+01 -0.75647124275E+02  0.11572941418E+03  0.80496301328E+02 0.  0.
          5    1    3    3  501    0  0.81799290548E+02 -0.13926236058E+02  0.19476247942E+02  0.85360870537E+02  0.47000000000E+01 0. -1.
        -11    1    4    4    0    0  0.71023490102E+02  0.10731340312E+03  0.11937214199E+03  0.17552837639E+03  0.00000000000E+00 0.  1.
         12    1    4    4    0    0  0.17811663391E+02  0.40764212015E+02 -0.77057389896E+01  0.45148142235E+02  0.00000000000E+00 0. -1.
         -5    1    5    5    0  502 -0.13712114601E+03 -0.12590430545E+03 -0.77727433013E+02  0.20178638869E+03  0.47000000000E+01 0.  1.
         13    1    6    6    0    0 -0.48553881075E+02 -0.26830673258E+02 -0.72984787635E+02  0.91674116419E+02  0.00000000000E+00 0. -1.
        -14    1    6    6    0    0  0.15040583048E+02  0.18583599640E+02 -0.26623366395E+01  0.24055297761E+02  0.00000000000E+00 0.  1.
</event>
<event>
12    1  0.8135779E-002  0.1995358E+03  0.7818608E-02  0.1153169E+00
         21   -1    0    0  503  502  0.00000000000E+00  0.00000000000E+00  0.21338209598E+03  0.21338209598E+03  0.00000000000E+00 0.  1.
         21   -1    0    0  501  503 -0.00000000000E+00 -0.00000000000E+00 -0.32252540148E+03  0.32252540148E+03  0.00000000000E+00 0.  1.
          6    2    1    2  501    0  0.94645723072E+02 -0.30665706008E+02 -0.23535661305E+03  0.29980512642E+03  0.15681894049E+03 0.  0.
         24    2    3    3    0    0  0.18157245965E+02 -0.96495566056E+01 -0.19306243039E+03  0.20978816383E+03  0.79468057314E+02 0.  0.
         -6    2    1    2    0  502 -0.94645723072E+02  0.30665706008E+02  0.12621330756E+03  0.23610237104E+03  0.17296338394E+03 0.  0.
        -24    2    5    5    0    0 -0.54837543907E+02 -0.45370624220E+01  0.14994085474E+03  0.17771562144E+03  0.77928435271E+02 0.  0.
          5    1    3    3  501    0  0.76488477108E+02 -0.21016149403E+02 -0.42294182670E+02  0.90016962588E+02  0.47000000000E+01 0. -1.
        -13    1    4    4    0    0  0.36281309265E+02  0.23337589984E+02 -0.84288633800E+02  0.94686589843E+02  0.00000000000E+00 0.  1.
         14    1    4    4    0    0 -0.18124063301E+02 -0.32987146590E+02 -0.10877379659E+03  0.11510157399E+03  0.00000000000E+00 0. -1.
         -5    1    5    5    0  502 -0.39808179165E+02  0.35202768430E+02 -0.23727547186E+02  0.58386749602E+02  0.47000000000E+01 0.  1.
         13    1    6    6    0    0 -0.55389440016E+02 -0.28528829913E+02  0.67528415975E+02  0.91880200074E+02  0.00000000000E+00 0. -1.
        -14    1    6    6    0    0  0.55189610884E+00  0.23991767491E+02  0.82412438768E+02  0.85835421362E+02  0.00000000000E+00 0.  1.
</event>
<event>
12    1  0.8135779E-002  0.2569652E+03  0.7818608E-02  0.1109179E+00
         21   -1    0    0  501  502  0.00000000000E+00  0.00000000000E+00  0.15577596837E+03  0.15577596837E+03  0.00000000000E+00 0.  1.
         21   -1    0    0  502  503 -0.00000000000E+00 -0.00000000000E+00 -0.42353903406E+03  0.42353903406E+03  0.00000000000E+00 0.  1.
         -6    2    1    2    0  503  0.45332953992E+02 -0.18391340878E+03 -0.11536946120E+03  0.28167578715E+03  0.17364307600E+03 0.  0.
        -24    2    3    3    0    0  0.34846701498E+02 -0.39257274967E+02  0.17363901865E+02  0.85014672004E+02  0.64579897220E+02 0.  0.
          6    2    1    2  501    0 -0.45332953992E+02  0.18391340878E+03 -0.15239360450E+03  0.29763921528E+03  0.17171509291E+03 0.  0.
         24    2    5    5    0    0 -0.88824393781E+02  0.93963753468E+02 -0.11715010282E+03  0.19158903736E+03  0.79140714866E+02 0.  0.
          5    1    5    5  501    0  0.43491439789E+02  0.89949655312E+02 -0.35243501683E+02  0.10605017792E+03  0.47000000000E+01 0. -1.
        -11    1    6    6    0    0 -0.26734923174E+01  0.11765055524E+02  0.11234441667E+02  0.16485653527E+02  0.00000000000E+00 0.  1.
         12    1    6    6    0    0 -0.86150901464E+02  0.82198697944E+02 -0.12838454449E+03  0.17510338383E+03  0.00000000000E+00 0. -1.
         -5    1    3    3    0  503  0.10486252495E+02 -0.14465613381E+03 -0.13273336306E+03  0.19666111515E+03  0.47000000000E+01 0.  1.
         11    1    4    4    0    0 -0.11218543624E+02  0.25032075852E+01 -0.11681416522E+02  0.16388326980E+02  0.00000000000E+00 0. -1.
        -12    1    4    4    0    0  0.46065245121E+02 -0.41760482552E+02  0.29045318387E+02  0.68626345024E+02  0.00000000000E+00 0.  1.
</event>
<event>
12    1  0.8135779E-002  0.2238748E+03  0.7818608E-02  0.1131125E+00
         21   -1    0    0  503  502  0.00000000000E+00  0.00000000000E+00  0.17888790910E+03  0.17888790910E+03  0.00000000000E+00 0.  1.
         21   -1    0    0  501  503 -0.00000000000E+00 -0.00000000000E+00 -0.31074225249E+03  0.31074225249E+03  0.00000000000E+00 0.  1.
          6    2    1    2  501    0 -0.12607762644E+03 -0.66333160350E+02 -0.14347998715E+03  0.26545369612E+03  0.17199855239E+03 0.  0.
         24    2    3    3    0    0 -0.12693693576E+03 -0.44292378892E+01 -0.60391497486E+02  0.16172992285E+03  0.79855063516E+02 0.  0.
         -6    2    1    2    0  502  0.12607762644E+03  0.66333160350E+02  0.11625643755E+02  0.22417646546E+03  0.17269706431E+03 0.  0.
        -24    2    5    5    0    0  0.48285179603E+01  0.41607730375E+02 -0.27594891266E+02  0.94280223931E+02  0.79829598444E+02 0.  0.
          5    1    3    3  501    0  0.85930931308E+00 -0.61903922460E+02 -0.83088489660E+02  0.10372377328E+03  0.47000000000E+01 0. -1.
        -13    1    4    4    0    0 -0.12042051620E+02 -0.28687990480E+02 -0.22296781779E+02  0.38277386048E+02  0.00000000000E+00 0.  1.
         14    1    4    4    0    0 -0.11489488414E+03  0.24258752591E+02 -0.38094715707E+02  0.12345253680E+03  0.00000000000E+00 0. -1.
         -5    1    5    5    0  502  0.12124910848E+03  0.24725429974E+02  0.39220535021E+02  0.12989624153E+03  0.47000000000E+01 0.  1.
         11    1    6    6    0    0 -0.15806078240E+02  0.22128614834E+02  0.23430208916E+02  0.35895436947E+02  0.00000000000E+00 0. -1.
        -12    1    6    6    0    0  0.20634596200E+02  0.19479115542E+02 -0.51025100182E+02  0.58384786984E+02  0.00000000000E+00 0.  1.
</event>
<event>
12    1  0.8135779E-002  0.1742277E+03  0.7818608E-02  0.1174438E+00
         21   -1    0    0  501  502  0.00000000000E+00  0.00000000000E+00  0.32200857475E+02  0.32200857475E+02  0.00000000000E+00 0. -1.
         21   -1    0    0  502  503 -0.00000000000E+00 -0.00000000000E+00 -0.94510557805E+03  0.94510557805E+03  0.00000000000E+00 0. -1.
         -6    2    1    2    0  503  0.17687056512E+02 -0.18722619883E+02 -0.52630211882E+03  0.55325825960E+03  0.16863396182E+03 0.  0.
        -24    2    3    3    0    0  0.12606633682E+02 -0.40425566275E+01 -0.10899430122E+03  0.13563496094E+03  0.79635516289E+02 0.  0.
          6    2    1    2  501    0 -0.17687056512E+02  0.18722619883E+02 -0.38660260175E+03  0.42404817592E+03  0.17231342187E+03 0.  0.
         24    2    5    5    0    0 -0.17110767364E+02  0.32279918793E+02 -0.39613308314E+03  0.40681296375E+03  0.85091694044E+02 0.  0.
          5    1    5    5  501    0 -0.57628914867E+00 -0.13557298911E+02  0.95304813934E+01  0.17235212170E+02  0.47000000000E+01 0. -1.
        -13    1    6    6    0    0 -0.41524618096E+02 -0.10960284220E+02 -0.18327394737E+03  0.18823857608E+03  0.00000000000E+00 0.  1.
         14    1    6    6    0    0  0.24413850732E+02  0.43240203013E+02 -0.21285913577E+03  0.21857438767E+03  0.00000000000E+00 0. -1.
         -5    1    3    3    0  503  0.50804228307E+01 -0.14680063255E+02 -0.41730781760E+03  0.41762329866E+03  0.47000000000E+01 0.  1.
         11    1    4    4    0    0 -0.31794718185E+02  0.99236708405E+01 -0.55480109521E+02  0.64710322978E+02  0.00000000000E+00 0. -1.
        -12    1    4    4    0    0  0.44401351867E+02 -0.13966227468E+02 -0.53514191701E+02  0.70924637967E+02  0.00000000000E+00 0.  1.
</event>
<event>
12    1  0.8135779E-002  0.1838632E+03  0.7818608E-02  0.1164337E+00
         21   -1    0    0  503  502  0.00000000000E+00  0.00000000000E+00  0.17721523928E+04  0.17721523928E+04  0.00000000000E+00 0. -1.
         21   -1    0    0  501  503 -0.00000000000E+00 -0.00000000000E+00 -0.10485475984E+03  0.10485475984E+03  0.00000000000E+00 0. -1.
          6    2    1    2  501    0  0.17712846836E+02  0.59902381481E+02 -0.15296785642E+02  0.18449843161E+03  0.17292668783E+03 0.  0.
         24    2    3    3    0    0  0.98154176255E+01 -0.64785492514E+01 -0.62882675574E+02  0.10230777354E+03  0.79839436470E+02 0.  0.
         -6    2    1    2    0  502 -0.17712846836E+02 -0.59902381481E+02  0.16825944186E+04  0.16925087210E+04  0.17192950015E+03 0.  0.
        -24    2    5    5    0    0  0.13067768108E+02 -0.50475499500E+02  0.16110606212E+04  0.16139244572E+04  0.80729706843E+02 0.  0.
          5    1    3    3  501    0  0.78974292101E+01  0.66380930732E+02  0.47585889932E+02  0.82190658068E+02  0.47000000000E+01 0. -1.
        -11    1    4    4    0    0  0.38806231066E+01 -0.34300383860E+02 -0.13825772691E+01  0.34546882472E+02  0.00000000000E+00 0.  1.
         12    1    4    4    0    0  0.59347945189E+01  0.27821834608E+02 -0.61500098305E+02  0.67760891069E+02  0.00000000000E+00 0. -1.
         -5    1    5    5    0  502 -0.30780614943E+02 -0.94268819809E+01  0.71533797342E+02  0.78584263834E+02  0.47000000000E+01 0.  1.
         11    1    6    6    0    0 -0.32258358056E+00 -0.70826325582E+02  0.12885473260E+04  0.12904924191E+04  0.00000000000E+00 0. -1.
        -12    1    6    6    0    0  0.13390351688E+02  0.20350826082E+02  0.32251329523E+03  0.32343203806E+03  0.00000000000E+00 0.  1.
</event>
<event>
12    1  0.8135779E-002  0.2053898E+03  0.7818608E-02  0.1146417E+00
         21   -1    0    0  501  502  0.00000000000E+00  0.00000000000E+00  0.16434629982E+03  0.16434629982E+03  0.00000000000E+00 0.  1.
         21   -1    0    0  502  503 -0.00000000000E+00 -0.00000000000E+00 -0.27119931600E+03  0.27119931600E+03  0.00000000000E+00 0. -1.
         -6    2    1    2    0  503  0.65041618127E+02 -0.86221847761E+02 -0.11392297833E+03  0.23003418513E+03  0.16814476566E+03 0.  0.
        -24    2    3    3    0    0  0.51386970434E+02 -0.27794938051E+02 -0.13427719722E+03  0.16650043498E+03  0.79239193848E+02 0.  0.
          6    2    1    2  501    0 -0.65041618127E+02  0.86221847761E+02  0.70699621489E+01  0.20551143069E+03  0.17470072884E+03 0.  0.
         24    2    5    5    0    0 -0.11178778174E+03  0.69329783811E+02  0.14906707228E+02  0.15497381885E+03  0.80570140491E+02 0.  0.
          5    1    5    5  501    0  0.46746163612E+02  0.16892063950E+02 -0.78367450792E+01  0.50537611838E+02  0.47000000000E+01 0. -1.
        -13    1    6    6    0    0 -0.65373064986E+02  0.83184204244E+02  0.91030366804E+01  0.10618905188E+03  0.00000000000E+00 0.  1.
         14    1    6    6    0    0 -0.46414716753E+02 -0.13854420433E+02  0.58036705478E+01  0.48784766973E+02  0.00000000000E+00 0. -1.
         -5    1    3    3    0  503  0.13654647693E+02 -0.58426909710E+02  0.20354218898E+02  0.63533750156E+02  0.47000000000E+01 0.  1.
         11    1    4    4    0    0  0.42321650643E+02  0.17131120115E+02 -0.36284198480E+02  0.58319297397E+02  0.00000000000E+00 0. -1.
        -12    1    4    4    0    0  0.90653197903E+01 -0.44926058166E+02 -0.97992998744E+02  0.10818113758E+03  0.00000000000E+00 0.  1.
</event>
<event>
12    1  0.8135779E-002  0.1920179E+03  0.7818608E-02  0.1156668E+00
         21   -1    0    0  503  502  0.00000000000E+00  0.00000000000E+00  0.18732442452E+04  0.18732442452E+04  0.00000000000E+00 0.  1.
         21   -1    0    0  501  503 -0.00000000000E+00 -0.00000000000E+00 -0.65298516856E+02  0.65298516856E+02  0.00000000000E+00 0.  1.
          6    2    1    2  501    0 -0.38501475690E+02 -0.75943701473E+02  0.93747037897E+02  0.21362304726E+03  0.17203630367E+03 0.  0.
         24    2    3    3    0    0  0.38883934055E+02 -0.30221741067E+02  0.14690895041E+02  0.93827542217E+02  0.78501409673E+02 0.  0.
         -6    2    1    2    0  502  0.38501475690E+02  0.75943701473E+02  0.17141986904E+04  0.17249197148E+04  0.17210770680E+03 0.  0.
        -24    2    5    5    0    0  0.77330440082E+02  0.62816969807E+02  0.79645131744E+03  0.80624549059E+03  0.75967897080E+02 0.  0.
          5    1    3    3  501    0 -0.77385409745E+02 -0.45721960405E+02  0.79056142856E+02  0.11979550504E+03  0.47000000000E+01 0. -1.
        -11    1    4    4    0    0 -0.17690382707E+02 -0.28958243435E+02  0.15328245732E+02  0.37235529006E+02  0.00000000000E+00 0.  1.
         12    1    4    4    0    0  0.56574316762E+02 -0.12634976321E+01 -0.63735069076E+00  0.56592013211E+02  0.00000000000E+00 0. -1.
         -5    1    5    5    0  502 -0.38828964392E+02  0.13126731665E+02  0.91774737298E+03  0.91867422418E+03  0.47000000000E+01 0.  1.
         13    1    6    6    0    0 -0.67699454397E+01  0.22639869098E+02  0.70948677929E+02  0.74780416781E+02  0.00000000000E+00 0. -1.
        -14    1    6    6    0    0  0.84100385521E+02  0.40177100709E+02  0.72550263951E+03  0.73146507381E+03  0.00000000000E+00 0.  1.
</event>
<event>
12    1  0.8135779E-002  0.2031530E+03  0.7818608E-02  0.1147289E+00
         21   -1    0    0  503  502  0.00000000000E+00  0.00000000000E+00  0.14117403651E+03  0.14117403651E+03  0.00000000000E+00 0.  1.
         21   -1    0    0  501  503 -0.00000000000E+00 -0.00000000000E+00 -0.29865392003E+03  0.29865392003E+03  0.00000000000E+00 0.  1.
          6    2    1    2  501    0 -0.88399317073E+02  0.60425611709E+02 -0.11361692703E+03  0.23199368245E+03  0.17160002558E+03 0.  0.
         24    2    3    3    0    0 -0.52932013243E+02  0.98134346236E+02 -0.11627563623E+03  0.17994527195E+03  0.80175615874E+02 0.  0.
         -6    2    1    2    0  502  0.88399317073E+02 -0.60425611709E+02 -0.43862956493E+02  0.20783427409E+03  0.17264249977E+03 0.  0.
        -24    2    5    5    0    0  0.60149600793E+01  0.14960951075E+02 -0.50074134012E+02  0.95892392511E+02  0.80174324086E+02 0.  0.
          5    1    3    3  501    0 -0.35467303830E+02 -0.37708734527E+02  0.26587091983E+01  0.52048410496E+02  0.47000000000E+01 0. -1.
        -13    1    4    4    0    0 -0.55423415657E+02  0.56729663847E+02 -0.31067921512E+02  0.85177611556E+02  0.00000000000E+00 0.  1.
         14    1    4    4    0    0  0.24914024140E+01  0.41404682389E+02 -0.85207714720E+02  0.94767660399E+02  0.00000000000E+00 0. -1.
         -5    1    5    5    0  502  0.82384356994E+02 -0.75386562784E+02  0.62111775190E+01  0.11194188158E+03  0.47000000000E+01 0.  1.
         13    1    6    6    0    0 -0.12577086981E+01 -0.20118668446E+02  0.12549660152E+02  0.23745244179E+02  0.00000000000E+00 0. -1.
        -14    1    6    6    0    0  0.72726687774E+01  0.35079619521E+02 -0.62623794164E+02  0.72147148332E+02  0.00000000000E+00 0.  1.
</event>
<event>
12    1  0.8135779E-002  0.1785905E+03  0.7818608E-02  0.1169289E+00
         21   -1    0    0  501  502  0.00000000000E+00  0.00000000000E+00  0.31776298079E+03  0.31776298079E+03  0.00000000000E+00 0.  1.
         21   -1    0    0  502  503 -0.00000000000E+00 -0.00000000000E+00 -0.32000338349E+03  0.32000338349E+03  0.00000000000E+00 0.  1.
         -6    2    1    2    0  503  0.15603776653E+02  0.43420299630E+02 -0.26545989504E+03  0.31994300311E+03  0.17252758938E+03 0.  0.
        -24    2    3    3    0    0  0.73499527513E+02  0.93567904983E+01 -0.13838703407E+03  0.17613117252E+03  0.79884220355E+02 0.  0.
          6    2    1    2  501    0 -0.15603776653E+02 -0.43420299630E+02  0.26321949234E+03  0.31782336117E+03  0.17204181902E+03 0.  0.
         24    2    5    5    0    0  0.30963422963E+02 -0.71425353428E+02  0.22646080412E+03  0.25205043150E+03  0.78642288501E+02 0.  0.
          5    1    5    5  501    0 -0.46567199616E+02  0.28005053797E+02  0.36758688214E+02  0.65772929671E+02  0.47000000000E+01 0. -1.
        -11    1    6    6    0    0 -0.67348858075E+01 -0.40620333377E+02  0.33613438608E+02  0.53152924901E+02  0.00000000000E+00 0.  1.
         12    1    6    6    0    0  0.37698308771E+02 -0.30805020050E+02  0.19284736552E+03  0.19889750660E+03  0.00000000000E+00 0. -1.
         -5    1    3    3    0  503 -0.57895750860E+02  0.34063509132E+02 -0.12707286097E+03  0.14381183059E+03  0.47000000000E+01 0.  1.
         11    1    4    4    0    0 -0.11169594171E+01 -0.21619135332E+02 -0.86855025463E+01  0.23325363134E+02  0.00000000000E+00 0. -1.
        -12    1    4    4    0    0  0.74616486930E+02  0.30975925830E+02 -0.12970153152E+03  0.15280580939E+03  0.00000000000E+00 0.  1.
</event>
<event>
12    1  0.8135779E-002  0.2291202E+03  0.7818608E-02  0.1127558E+00
         21   -1    0    0  503  502  0.00000000000E+00  0.00000000000E+00  0.35811160640E+03  0.35811160640E+03  0.00000000000E+00 0.  1.
         21   -1    0    0  501  503 -0.00000000000E+00 -0.00000000000E+00 -0.50665048319E+03  0.50665048319E+03  0.00000000000E+00 0.  1.
          6    2    1    2  501    0 -0.14021198904E+03 -0.55434630684E+02 -0.43923257355E+03  0.49462846354E+03  0.17029287458E+03 0.  0.
         24    2    3    3    0    0 -0.75962424378E+02  0.30755727209E+02 -0.17436536438E+03  0.20873772769E+03  0.80324056135E+02 0.  0.
         -6    2    1    2    0  502  0.14021198904E+03  0.55434630684E+02  0.29069369676E+03  0.37013362605E+03  0.17252152226E+03 0.  0.
        -24    2    5    5    0    0  0.10437088879E+03 -0.52541861633E+01  0.96552763445E+02  0.16354101014E+03  0.80637069455E+02 0.  0.
          5    1    3    3  501    0 -0.64249564665E+02 -0.86190357892E+02 -0.26486720917E+03  0.28589073585E+03  0.47000000000E+01 0. -1.
        -13    1    4    4    0    0 -0.76648499742E+02 -0.55993993981E+01 -0.10159710672E+03  0.12739041518E+03  0.00000000000E+00 0.  1.
         14    1    4    4    0    0  0.68607536465E+00  0.36355126607E+02 -0.72768257663E+02  0.81347312514E+02  0.00000000000E+00 0. -1.
         -5    1    5    5    0  502  0.35841100249E+02  0.60688816847E+02  0.19414093332E+03  0.20659261591E+03  0.47000000000E+01 0.  1.
         13    1    6    6    0    0  0.84198196191E+01  0.72573016440E+01  0.58528501204E+02  0.59574719829E+02  0.00000000000E+00 0. -1.
        -14    1    6    6    0    0  0.95951069174E+02 -0.12511487807E+02  0.38024262242E+02  0.10396629031E+03  0.00000000000E+00 0.  1.
</event>
<event>
12    1  0.8135779E-002  0.1930557E+03  0.7818608E-02  0.1155968E+00
         21   -1    0    0  503  502  0.00000000000E+00  0.00000000000E+00  0.72028551605E+02  0.72028551605E+02  0.00000000000E+00 0.  1.
         21   -1    0    0  501  503 -0.00000000000E+00 -0.00000000000E+00 -0.51947388612E+03  0.51947388612E+03  0.00000000000E+00 0.  1.
          6    2    1    2  501    0 -0.15319957744E+02 -0.84244150638E+02 -0.25294543650E+03  0.31820102662E+03  0.17302809445E+03 0.  0.
         24    2    3    3    0    0 -0.43541504339E+02 -0.10676520415E+03 -0.24295307489E+03  0.28044402946E+03  0.79548636974E+02 0.  0.
         -6    2    1    2    0  502  0.15319957744E+02  0.84244150638E+02 -0.19449989801E+03  0.27330141111E+03  0.17184781920E+03 0.  0.
        -24    2    5    5    0    0 -0.71293597352E+01 -0.68305968210E+01 -0.14936789767E+03  0.16910175211E+03  0.78658431778E+02 0.  0.
          5    1    3    3  501    0  0.28221546596E+02  0.22521053515E+02 -0.99923616169E+01  0.37756997157E+02  0.47000000000E+01 0. -1.
        -13    1    4    4    0    0 -0.10647574990E+02 -0.52839245873E+02 -0.19159757732E+03  0.19903514361E+03  0.00000000000E+00 0.  1.
         14    1    4    4    0    0 -0.32893929349E+02 -0.53925958280E+02 -0.51355497563E+02  0.81408885844E+02  0.00000000000E+00 0. -1.
         -5    1    5    5    0  502  0.22449317479E+02  0.91074747459E+02 -0.45132000341E+02  0.10419965900E+03  0.47000000000E+01 0.  1.
         11    1    6    6    0    0  0.55648912798E+01 -0.39341396356E+02 -0.10742242064E+03  0.11453510352E+03  0.00000000000E+00 0. -1.
        -12    1    6    6    0    0 -0.12694251015E+02  0.32510799535E+02 -0.41945477030E+02  0.54566648591E+02  0.00000000000E+00 0.  1.
</event>
<event>
12    1  0.8135779E-002  0.2437170E+03  0.7818608E-02  0.1117444E+00
         21   -1    0    0  503  502  0.00000000000E+00  0.00000000000E+00  0.89016049071E+03  0.89016049071E+03  0.00000000000E+00 0. -1.
         21   -1    0    0  501  503 -0.00000000000E+00 -0.00000000000E+00 -0.80135713643E+02  0.80135713643E+02  0.00000000000E+00 0. -1.
          6    2    1    2  501    0 -0.54253616562E+02  0.16371506780E+03  0.20485443955E+03  0.31789361571E+03  0.17130362276E+03 0.  0.
         24    2    3    3    0    0  0.24840663277E+02  0.63363252832E+02  0.13996769802E+03  0.17451031439E+03  0.78936258966E+02 0.  0.
         -6    2    1    2    0  502  0.54253616562E+02 -0.16371506780E+03  0.60517033752E+03  0.65240258864E+03  0.17219733425E+03 0.  0.
        -24    2    5    5    0    0  0.79594688625E+02 -0.11334363820E+03  0.28179249262E+03  0.32411190735E+03  0.80370546921E+02 0.  0.
          5    1    3    3  501    0 -0.79094279839E+02  0.10035181496E+03  0.64886741531E+02  0.14338330132E+03  0.47000000000E+01 0. -1.
        -11    1    4    4    0    0  0.60342565433E+01 -0.17838031451E+02  0.41013740620E+02  0.45130195409E+02  0.00000000000E+00 0.  1.
         12    1    4    4    0    0  0.18806406734E+02  0.81201284283E+02  0.98953957396E+02  0.12938011898E+03  0.00000000000E+00 0. -1.
         -5    1    5    5    0  502 -0.25341072062E+02 -0.50371429602E+02  0.32337784489E+03  0.32829068129E+03  0.47000000000E+01 0.  1.
         11    1    6    6    0    0  0.68172059494E+02 -0.11016713055E+03  0.28390624650E+03  0.31206887565E+03  0.00000000000E+00 0. -1.
        -12    1    6    6    0    0  0.11422629131E+02 -0.31765076449E+01 -0.21137538766E+01  0.12043031700E+02  0.00000000000E+00 0.  1.
</event>
<event>
12    1  0.8135779E-002  0.2222128E+03  0.7818608E-02  0.1132530E+00
         21   -1    0    0  503  502  0.00000000000E+00  0.00000000000E+00  0.27825110128E+03  0.27825110128E+03  0.00000000000E+00 0. -1.
         21   -1    0    0  501  503 -0.00000000000E+00 -0.00000000000E+00 -0.18545169545E+03  0.18545169545E+03  0.00000000000E+00 0. -1.
          6    2    1    2  501    0  0.13217494082E+03  0.46433176909E+02 -0.51600350094E+01  0.22227270241E+03  0.17248847317E+03 0.  0.
         24    2    3    3    0    0  0.41327759505E+01  0.30694029496E+02  0.21651637009E+02  0.90426305027E+02  0.82151810521E+02 0.  0.
         -6    2    1    2    0  502 -0.13217494082E+03 -0.46433176909E+02  0.97959440834E+02  0.24143009432E+03  0.17048807434E+03 0.  0.
        -24    2    5    5    0    0 -0.15957725330E+03 -0.51271522668E+02  0.60260270371E+02  0.19433854760E+03  0.77733532594E+02 0.  0.
          5    1    3    3  501    0  0.12804216487E+03  0.15739147413E+02 -0.26811672019E+02  0.13184639738E+03  0.47000000000E+01 0. -1.
        -13    1    4    4    0    0  0.31928181901E+02 -0.84811953390E+01  0.26218906463E+02  0.42175473085E+02  0.00000000000E+00 0.  1.
         14    1    4    4    0    0 -0.27795405950E+02  0.39175224835E+02 -0.45672694536E+01  0.48250831942E+02  0.00000000000E+00 0. -1.
         -5    1    5    5    0  502  0.27402312477E+02  0.48383457591E+01  0.37699170463E+02  0.47091546718E+02  0.47000000000E+01 0.  1.
         13    1    6    6    0    0 -0.48214840724E+00 -0.23105982013E+02  0.56706191984E+01  0.23796529032E+02  0.00000000000E+00 0. -1.
        -14    1    6    6    0    0 -0.15909510489E+03 -0.28165540655E+02  0.54589651173E+02  0.17054201857E+03  0.00000000000E+00 0.  1.
</event>
<event>
12    1  0.8135779E-002  0.5194458E+03  0.7818608E-02  0.1009115E+00
         21   -1    0    0  501  502  0.00000000000E+00  0.00000000000E+00  0.76952971817E+03  0.76952971817E+03  0.00000000000E+00 0.  1.
         21   -1    0    0  502  503 -0.00000000000E+00 -0.00000000000E+00 -0.68236417669E+03  0.68236417669E+03  0.00000000000E+00 0. -1.
         -6    2    1    2    0  503 -0.48846388736E+03 -0.39870570939E+02 -0.46485729284E+03  0.69707689937E+03  0.17215478282E+03 0.  0.
        -24    2    3    3    0    0 -0.25558205950E+03 -0.67725430273E+02 -0.31523798370E+03  0.41883623627E+03  0.78357408078E+02 0.  0.
          6    2    1    2  501    0  0.48846388736E+03  0.39870570939E+02  0.55202283432E+03  0.75481699549E+03  0.15758443890E+03 0.  0.
         24    2    5    5    0    0  0.35877468469E+03  0.20750333863E-01  0.32709664354E+03  0.49209817471E+03  0.80306441425E+02 0.  0.
          5    1    5    5  501    0  0.12968920267E+03  0.39849820606E+02  0.22492619078E+03  0.26271882077E+03  0.47000000000E+01 0. -1.
        -11    1    6    6    0    0  0.21464328996E+03  0.22041965080E+00  0.24690387270E+03  0.32715946091E+03  0.00000000000E+00 0.  1.
         12    1    6    6    0    0  0.14413139473E+03 -0.19966931694E+00  0.80192770838E+02  0.16493871380E+03  0.00000000000E+00 0. -1.
         -5    1    3    3    0  503 -0.23288182786E+03  0.27854859334E+02 -0.14961930914E+03  0.27824066310E+03  0.47000000000E+01 0.  1.
         13    1    4    4    0    0 -0.17325517723E+03 -0.12241399264E+02 -0.17103259452E+03  0.24376085962E+03  0.00000000000E+00 0. -1.
        -14    1    4    4    0    0 -0.82326882269E+02 -0.55484031009E+02 -0.14420538918E+03  0.17507537665E+03  0.00000000000E+00 0.  1.
</event>
<event>
12    1  0.8135779E-002  0.2923362E+03  0.7818608E-02  0.1089536E+00
         21   -1    0    0  501  502  0.00000000000E+00  0.00000000000E+00  0.45914657716E+03  0.45914657716E+03  0.00000000000E+00 0. -1.
         21   -1    0    0  502  503 -0.00000000000E+00 -0.00000000000E+00 -0.38817320405E+03  0.38817320405E+03  0.00000000000E+00 0.  1.
         -6    2    1    2    0  503 -0.76841513754E+01 -0.23282683312E+03 -0.27172846001E+03  0.39687002722E+03  0.17147035347E+03 0.  0.
        -24    2    3    3    0    0 -0.18134632831E+02 -0.12888622187E+03 -0.24329408864E+03  0.28850275030E+03  0.84269213060E+02 0.  0.
          6    2    1    2  501    0  0.76841513754E+01  0.23282683312E+03  0.34270183312E+03  0.45044975399E+03  0.17661555434E+03 0.  0.
         24    2    5    5    0    0  0.51242641616E+02  0.14575474189E+03  0.13819480051E+03  0.22390150850E+03  0.84639408781E+02 0.  0.
          5    1    5    5  501    0 -0.43558490241E+02  0.87072091235E+02  0.20450703261E+03  0.22654824548E+03  0.47000000000E+01 0. -1.
        -13    1    6    6    0    0  0.56226626868E+02  0.11244460459E+03  0.14240441707E+03  0.18995852355E+03  0.00000000000E+00 0.  1.
         14    1    6    6    0    0 -0.49839852516E+01  0.33310137297E+02 -0.42096165549E+01  0.33942984949E+02  0.00000000000E+00 0. -1.
         -5    1    3    3    0  503  0.10450481455E+02 -0.10394061126E+03 -0.28434371373E+02  0.10836727692E+03  0.47000000000E+01 0.  1.
         11    1    4    4    0    0 -0.10875552111E+02 -0.19125893046E+00  0.23179716305E+01  0.11121475000E+02  0.00000000000E+00 0. -1.
        -12    1    4    4    0    0 -0.72590807201E+01 -0.12869496294E+03 -0.24561206027E+03  0.27738127530E+03  0.00000000000E+00 0.  1.
</event>
<event>
12    1  0.8135779E-002  0.3197573E+03  0.7818608E-02  0.1075925E+00
         21   -1    0    0  503  502  0.00000000000E+00  0.00000000000E+00  0.98458219538E+03  0.98458219538E+03  0.00000000000E+00 0.  1.
         21   -1    0    0  501  503 -0.00000000000E+00 -0.00000000000E+00 -0.21584043708E+03  0.21584043708E+03  0.00000000000E+00 0. -1.
          6    2    1    2  501    0 -0.50508138489E+02 -0.26326725050E+03 -0.48459132610E+02  0.32340847070E+03  0.17431016651E+03 0.  0.
         24    2    3    3    0    0 -0.10156906118E+03 -0.19184323904E+03 -0.27197232112E+02  0.23294983014E+03  0.80036437774E+02 0.  0.
         -6    2    1    2    0  502  0.50508138489E+02  0.26326725050E+03  0.81720089091E+03  0.87701416176E+03  0.17168525441E+03 0.  0.
        -24    2    5    5    0    0  0.69544581280E+02  0.11813653336E+03  0.27691814156E+03  0.31723487449E+03  0.71844409437E+02 0.  0.
          5    1    3    3  501    0  0.51060922695E+02 -0.71424011460E+02 -0.21261900498E+02  0.90458640562E+02  0.47000000000E+01 0. -1.
        -11    1    4    4    0    0 -0.10347604335E+02 -0.60592715432E+02  0.22665144981E+02  0.65515333135E+02  0.00000000000E+00 0.  1.
         12    1    4    4    0    0 -0.91221456850E+02 -0.13125052361E+03 -0.49862377092E+02  0.16743449700E+03  0.00000000000E+00 0. -1.
         -5    1    5    5    0  502 -0.19036442791E+02  0.14513071715E+03  0.54028274935E+03  0.55977928727E+03  0.47000000000E+01 0.  1.
         13    1    6    6    0    0  0.59111276963E+02  0.35313512321E+02  0.97667962443E+02  0.11949986655E+03  0.00000000000E+00 0. -1.
        -14    1    6    6    0    0  0.10433304317E+02  0.82823021035E+02  0.17925017912E+03  0.19773500794E+03  0.00000000000E+00 0.  1.
</event>
<event>
12    1  0.8135779E-002  0.3479073E+03  0.7818608E-02  0.1063544E+00
         21   -1    0    0  501  502  0.00000000000E+00  0.00000000000E+00  0.27331136286E+03  0.27331136286E+03  0.00000000000E+00 0. -1.
         21   -1    0    0  502  503 -0.00000000000E+00 -0.00000000000E+00 -0.62404957305E+03  0.62404957305E+03  0.00000000000E+00 0.  1.
         -6    2    1    2    0  503 -0.23004322779E+03 -0.19490154940E+03 -0.41756436493E+03  0.54309379055E+03  0.17229151421E+03 0.  0.
        -24    2    3    3    0    0 -0.58902527162E+02 -0.76330745414E+02 -0.85015865985E+02  0.15071798967E+03  0.78691324424E+02 0.  0.
          6    2    1    2  501    0  0.23004322779E+03  0.19490154940E+03  0.66826154738E+02  0.35426714535E+03  0.17358852124E+03 0.  0.
         24    2    5    5    0    0  0.10491205344E+03  0.15921061396E+03  0.83905310438E+02  0.22294524609E+03  0.79435024272E+02 0.  0.
          5    1    5    5  501    0  0.12513117434E+03  0.35690935449E+02 -0.17079155700E+02  0.13132189926E+03  0.47000000000E+01 0. -1.
        -11    1    6    6    0    0  0.73536677856E+02  0.54064718673E+02  0.12731097506E+02  0.92155941963E+02  0.00000000000E+00 0.  1.
         12    1    6    6    0    0  0.31375375589E+02  0.10514589528E+03  0.71174212932E+02  0.13078930413E+03  0.00000000000E+00 0. -1.
         -5    1    3    3    0  503 -0.17114070062E+03 -0.11857080399E+03 -0.33254849894E+03  0.39237580088E+03  0.47000000000E+01 0.  1.
         13    1    4    4    0    0 -0.21881410835E+02  0.67274454673E+01  0.42586680172E+01  0.23284993363E+02  0.00000000000E+00 0. -1.
        -14    1    4    4    0    0 -0.37021116327E+02 -0.83058190881E+02 -0.89274534002E+02  0.12743299631E+03  0.00000000000E+00 0.  1.
</event>
<event>
12    1  0.8135779E-002  0.1765120E+03  0.7818608E-02  0.1171289E+00
         21   -1    0    0  501  502  0.00000000000E+00  0.00000000000E+00  0.40503491053E+03  0.40503491053E+03  0.00000000000E+00 0. -1.
         21   -1    0    0  502  503 -0.00000000000E+00 -0.00000000000E+00 -0.25835819343E+03  0.25835819343E+03  0.00000000000E+00 0.  1.
         -6    2    1    2    0  503  0.21993716438E+02 -0.34657721231E+02 -0.20470015738E+03  0.27029362406E+03  0.17167296691E+03 0.  0.
        -24    2    3    3    0    0 -0.11177735197E+01  0.17052890473E+02 -0.19640867318E+03  0.21285698905E+03  0.80247619234E+02 0.  0.
          6    2    1    2  501    0 -0.21993716438E+02  0.34657721231E+02  0.35137687448E+03  0.39309947991E+03  0.17139606758E+03 0.  0.
         24    2    5    5    0    0  0.17824916819E+02 -0.28085608830E+02  0.28268562028E+03  0.29179386593E+03  0.64233723178E+02 0.  0.
          5    1    5    5  501    0 -0.39818633257E+02  0.62743330062E+02  0.68691254196E+02  0.10130561398E+03  0.47000000000E+01 0. -1.
        -13    1    6    6    0    0  0.36756483289E+01 -0.35382793028E+02  0.70067698735E+02  0.78580753618E+02  0.00000000000E+00 0.  1.
         14    1    6    6    0    0  0.14149268490E+02  0.72971841978E+01  0.21261792155E+03  0.21321311231E+03  0.00000000000E+00 0. -1.
         -5    1    3    3    0  503  0.23111489958E+02 -0.51710611704E+02 -0.82914841989E+01  0.57436635008E+02  0.47000000000E+01 0.  1.
         11    1    4    4    0    0 -0.31657512573E+02 -0.11814250012E+02 -0.48613192806E+02  0.59203185054E+02  0.00000000000E+00 0. -1.
        -12    1    4    4    0    0  0.30539739053E+02  0.28867140485E+02 -0.14779548038E+03  0.15365380399E+03  0.00000000000E+00 0.  1.
</event>
<event>
12    1  0.8135779E-002  0.2181434E+03  0.7818608E-02  0.1136093E+00
         21   -1    0    0  501  502  0.00000000000E+00  0.00000000000E+00  0.18958145550E+03  0.18958145550E+03  0.00000000000E+00 0.  1.
         21   -1    0    0  502  503 -0.00000000000E+00 -0.00000000000E+00 -0.36284140729E+03  0.36284140729E+03  0.00000000000E+00 0.  1.
         -6    2    1    2    0  503  0.81659620307E+02 -0.10060475439E+03 -0.24271981532E+03  0.32348791076E+03  0.17012321848E+03 0.  0.
        -24    2    3    3    0    0 -0.22933219266E+02 -0.32634186278E+02 -0.10531523911E+03  0.13784910075E+03  0.79499385711E+02 0.  0.
          6    2    1    2  501    0 -0.81659620307E+02  0.10060475439E+03  0.69459863538E+02  0.22893495203E+03  0.17549053941E+03 0.  0.
         24    2    5    5    0    0 -0.64265471695E+02  0.12104593004E+03  0.52493424852E+01  0.15918196584E+03  0.80803308233E+02 0.  0.
          5    1    5    5  501    0 -0.17394148612E+02 -0.20441175651E+02  0.64210521053E+02  0.69752986186E+02  0.47000000000E+01 0. -1.
        -11    1    6    6    0    0 -0.80696236325E+02  0.10706284677E+03 -0.72196466403E+01  0.13426264936E+03  0.00000000000E+00 0.  1.
         12    1    6    6    0    0  0.16430764630E+02  0.13983083265E+02  0.12468989125E+02  0.24919316478E+02  0.00000000000E+00 0. -1.
         -5    1    3    3    0  503  0.10459283957E+03 -0.67970568110E+02 -0.13740457621E+03  0.18563881001E+03  0.47000000000E+01 0.  1.
         13    1    4    4    0    0  0.29505342256E+02 -0.17564843368E+02 -0.38544610406E+02  0.51621467777E+02  0.00000000000E+00 0. -1.
        -14    1    4    4    0    0 -0.52438561522E+02 -0.15069342910E+02 -0.66770628702E+02  0.86227632969E+02  0.00000000000E+00 0.  1.
</event>
<event>
12    1  0.8135779E-002  0.2354661E+03  0.7818608E-02  0.1123020E+00
         21   -1    0    0  501  502  0.00000000000E+00  0.00000000000E+00  0.25112790176E+03  0.25112790176E+03  0.00000000000E+00 0. -1.
         21   -1    0    0  502  503 -0.00000000000E+00 -0.00000000000E+00 -0.24097275414E+03  0.24097275414E+03  0.00000000000E+00 0. -1.
         -6    2    1    2    0  503  0.14857474924E+03 -0.51849573683E+02 -0.67751699732E+02  0.24501952176E+03  0.17516117957E+03 0.  0.
        -24    2    3    3    0    0  0.14068163210E+03  0.11355117271E+02 -0.79226025842E+02  0.18012819402E+03  0.79051519986E+02 0.  0.
          6    2    1    2  501    0 -0.14857474924E+03  0.51849573683E+02  0.77906847359E+02  0.24708113414E+03  0.17382973158E+03 0.  0.
         24    2    5    5    0    0 -0.15350758116E+03  0.40579663065E+02  0.11265180688E+03  0.20992409001E+03  0.78526476080E+02 0.  0.
          5    1    5    5  501    0  0.49328319195E+01  0.11269910618E+02 -0.34744959524E+02  0.37157044129E+02  0.47000000000E+01 0. -1.
        -13    1    6    6    0    0 -0.14408510976E+03  0.34550819674E+02  0.66451164157E+02  0.16238853165E+03  0.00000000000E+00 0.  1.
         14    1    6    6    0    0 -0.94224713942E+01  0.60288433909E+01  0.46200642726E+02  0.47535558355E+02  0.00000000000E+00 0. -1.
         -5    1    3    3    0  503  0.78931171374E+01 -0.63204690953E+02  0.11474326110E+02  0.64891327743E+02  0.47000000000E+01 0.  1.
         11    1    4    4    0    0 -0.41294265204E+01  0.87922721160E+01 -0.22634643436E+02  0.24630941838E+02  0.00000000000E+00 0. -1.
        -12    1    4    4    0    0  0.14481105862E+03  0.25628451546E+01 -0.56591382406E+02  0.15549725218E+03  0.00000000000E+00 0.  1.
</event>
<event>
12    1  0.8135779E-002  0.1892532E+03  0.7818608E-02  0.1159209E+00
         21   -1    0    0  501  502  0.00000000000E+00  0.00000000000E+00  0.58086825214E+03  0.58086825214E+03  0.00000000000E+00 0.  1.
         21   -1    0    0  502  503 -0.00000000000E+00 -0.00000000000E+00 -0.65564794818E+02  0.65564794818E+02  0.00000000000E+00 0.  1.
         -6    2    1    2    0  503 -0.78886942256E+02 -0.27691258035E+02  0.17753056748E+03  0.25925442227E+03  0.16942785380E+03 0.  0.
        -24    2    3    3    0    0  0.13466629140E+02 -0.39294658860E+02  0.11986892270E+03  0.14966073477E+03  0.79399978506E+02 0.  0.
          6    2    1    2  501    0  0.78886942256E+02  0.27691258035E+02  0.33777288984E+03  0.38717862469E+03  0.16978458964E+03 0.  0.
         24    2    5    5    0    0  0.12146562112E+02  0.22454266151E+02  0.62797126550E+02  0.10413187092E+03  0.79045774069E+02 0.  0.
          5    1    5    5  501    0  0.66740380144E+02  0.52369918838E+01  0.27497576329E+03  0.28304675377E+03  0.47000000000E+01 0. -1.
        -11    1    6    6    0    0 -0.12042544138E+02  0.22096218790E+02  0.73492370871E+02  0.77681364113E+02  0.00000000000E+00 0.  1.
         12    1    6    6    0    0  0.24189106250E+02  0.35804736044E+00 -0.10695244322E+02  0.26450506804E+02  0.00000000000E+00 0. -1.
         -5    1    3    3    0  503 -0.92353571397E+02  0.11603400825E+02  0.57661644781E+02  0.10959368750E+03  0.47000000000E+01 0.  1.
         11    1    4    4    0    0 -0.19975229873E+02  0.28083415123E+01  0.80583169345E+02  0.83069511688E+02  0.00000000000E+00 0. -1.
        -12    1    4    4    0    0  0.33441859013E+02 -0.42103000372E+02  0.39285753357E+02  0.66591223081E+02  0.00000000000E+00 0.  1.
</event>
<event>
12    1  0.8135779E-002  0.2103067E+03  0.7818608E-02  0.1141352E+00
         21   -1    0    0  501  502  0.00000000000E+00  0.00000000000E+00  0.30831861400E+02  0.30831861400E+02  0.00000000000E+00 0. -1.
         21   -1    0    0  502  503 -0.00000000000E+00 -0.00000000000E+00 -0.15170455231E+04  0.15170455231E+04  0.00000000000E+00 0.  1.
         -6    2    1    2    0  503  0.12080904809E+03  0.65023343530E+01 -0.92444425509E+03  0.94803258682E+03  0.17184731142E+03 0.  0.
        -24    2    3    3    0    0  0.12572334354E+03  0.32224150982E+02 -0.52313894123E+03  0.54584630276E+03  0.86192107468E+02 0.  0.
          6    2    1    2  501    0 -0.12080904809E+03 -0.65023343530E+01 -0.56176940661E+03  0.59984479768E+03  0.17202269807E+03 0.  0.
         24    2    5    5    0    0 -0.55087060020E+01  0.73951519758E+01 -0.13132312300E+03  0.15398226047E+03  0.79873273325E+02 0.  0.
          5    1    5    5  501    0 -0.11530034209E+03 -0.13897486329E+02 -0.43044628361E+03  0.44586253721E+03  0.47000000000E+01 0. -1.
        -11    1    6    6    0    0 -0.13315550018E+02  0.39826765524E+02 -0.98976295895E+02  0.10751642792E+03  0.00000000000E+00 0.  1.
         12    1    6    6    0    0  0.78068440161E+01 -0.32431613548E+02 -0.32346827105E+02  0.46465832550E+02  0.00000000000E+00 0. -1.
         -5    1    3    3    0  503 -0.49142954422E+01 -0.25721816629E+02 -0.40130531387E+03  0.40218628406E+03  0.47000000000E+01 0.  1.
         13    1    4    4    0    0  0.11027872110E+03  0.19575228093E+02 -0.50950809668E+03  0.52167335227E+03  0.00000000000E+00 0. -1.
        -14    1    4    4    0    0  0.15444622433E+02  0.12648922889E+02 -0.13630844546E+02  0.24172950490E+02  0.00000000000E+00 0.  1.
</event>
<event>
12    1  0.8135779E-002  0.1736894E+03  0.7818608E-02  0.1174258E+00
         21   -1    0    0  501  502  0.00000000000E+00  0.00000000000E+00  0.57132844453E+02  0.57132844453E+02  0.00000000000E+00 0.  1.
         21   -1    0    0  502  503 -0.00000000000E+00 -0.00000000000E+00 -0.93737376315E+03  0.93737376315E+03  0.00000000000E+00 0.  1.
         -6    2    1    2    0  503  0.74541668221E+01 -0.26081343625E+02 -0.77026158888E+03  0.78960174727E+03  0.17155816185E+03 0.  0.
        -24    2    3    3    0    0  0.22325712472E+01 -0.86004700709E+01 -0.15732683442E+03  0.17637752300E+03  0.79236010326E+02 0.  0.
          6    2    1    2  501    0 -0.74541668221E+01  0.26081343625E+02 -0.10997932981E+03  0.20490486033E+03  0.17074761407E+03 0.  0.
         24    2    5    5    0    0 -0.29450318401E+02  0.76504396771E+02 -0.86429021275E+02  0.14487968224E+03  0.82461522101E+02 0.  0.
          5    1    5    5  501    0  0.21996151579E+02 -0.50423053146E+02 -0.23550308535E+02  0.60025178091E+02  0.47000000000E+01 0. -1.
        -13    1    6    6    0    0 -0.25007219425E+02  0.83015550300E+02 -0.36064499565E+02  0.93902027369E+02  0.00000000000E+00 0.  1.
         14    1    6    6    0    0 -0.44430989752E+01 -0.65111535294E+01 -0.50364521710E+02  0.50977654868E+02  0.00000000000E+00 0. -1.
         -5    1    3    3    0  503  0.52215955748E+01 -0.17480873554E+02 -0.61293475447E+03  0.61322422427E+03  0.47000000000E+01 0.  1.
         13    1    4    4    0    0  0.31870983908E+02  0.20814022635E+01 -0.13241846312E+03  0.13621578920E+03  0.00000000000E+00 0. -1.
        -14    1    4    4    0    0 -0.29638412661E+02 -0.10681872334E+02 -0.24908371294E+02  0.40161733804E+02  0.00000000000E+00 0.  1.
</event>
<event>
12    1  0.8135779E-002  0.2244847E+03  0.7818608E-02  0.1130720E+00
         21   -1    0    0  503  502  0.00000000000E+00  0.00000000000E+00  0.73823801281E+02  0.73823801281E+02  0.00000000000E+00 0.  1.
         21   -1    0    0  501  503 -0.00000000000E+00 -0.00000000000E+00 -0.84836442933E+03  0.84836442933E+03  0.00000000000E+00 0. -1.
          6    2    1    2  501    0 -0.16975070196E+02 -0.14283701777E+03 -0.59196004637E+03  0.63282847430E+03  0.17136106540E+03 0.  0.
         24    2    3    3    0    0  0.52637052870E+02 -0.10431420071E+03 -0.33477596183E+03  0.36357840753E+03  0.80387822480E+02 0.  0.
         -6    2    1    2    0  502  0.16975070196E+02  0.14283701777E+03 -0.18258058168E+03  0.28935975631E+03  0.17234509890E+03 0.  0.
        -24    2    5    5    0    0  0.49257415310E+02  0.92642103331E+02 -0.44683276385E+02  0.13902866821E+03  0.79520583020E+02 0.  0.
          5    1    3    3  501    0 -0.69612123066E+02 -0.38522817050E+02 -0.25718408454E+03  0.26925006677E+03  0.47000000000E+01 0. -1.
        -13    1    4    4    0    0  0.13859347745E+02 -0.68343459908E+02 -0.93890714398E+02  0.11695459068E+03  0.00000000000E+00 0.  1.
         14    1    4    4    0    0  0.38777705125E+02 -0.35970740807E+02 -0.24088524743E+03  0.24662381685E+03  0.00000000000E+00 0. -1.
         -5    1    5    5    0  502 -0.32282345114E+02  0.50194914435E+02 -0.13789730530E+03  0.15033108810E+03  0.47000000000E+01 0.  1.
         11    1    6    6    0    0  0.16942672142E+02 -0.11644572966E+02 -0.16258778528E+02  0.26210648563E+02  0.00000000000E+00 0. -1.
        -12    1    6    6    0    0  0.32314743169E+02  0.10428667630E+03 -0.28424497857E+02  0.11281801965E+03  0.00000000000E+00 0.  1.
</event>
<event>
12    1  0.8135779E-002  0.1750888E+03  0.7818608E-02  0.1173177E+00
         21   -1    0    0  501  502  0.00000000000E+00  0.00000000000E+00  0.16635895242E+03  0.16635895242E+03  0.00000000000E+00 0. -1.
         21   -1    0    0  502  503 -0.00000000000E+00 -0.00000000000E+00 -0.19022756500E+03  0.19022756500E+03  0.00000000000E+00 0. -1.
         -6    2    1    2    0  503  0.15523899775E+02 -0.68042523617E+01  0.25091973282E+02  0.17478105632E+03  0.17213808763E+03 0.  0.
        -24    2    3    3    0    0  0.38418606530E+02  0.24629622579E+02 -0.38973143110E+02  0.99689876885E+02  0.79602500171E+02 0.  0.
          6    2    1    2  501    0 -0.15523899775E+02  0.68042523617E+01 -0.48960585863E+02  0.18180546109E+03  0.17426645518E+03 0.  0.
         24    2    5    5    0    0  0.58218373241E+01 -0.67321887021E+01 -0.98277706678E+02  0.12618941903E+03  0.78651418877E+02 0.  0.
          5    1    5    5  501    0 -0.21345737099E+02  0.13536441064E+02  0.49317120816E+02  0.55616042061E+02  0.47000000000E+01 0. -1.
        -11    1    6    6    0    0  0.40258204334E+02 -0.42526889221E+01 -0.32548666320E+02  0.51944432411E+02  0.00000000000E+00 0.  1.
         12    1    6    6    0    0 -0.34436367010E+02 -0.24794997799E+01 -0.65729040358E+02  0.74244986622E+02  0.00000000000E+00 0. -1.
         -5    1    3    3    0  503 -0.22894706755E+02 -0.31433874941E+02  0.64065116392E+02  0.75091179439E+02  0.47000000000E+01 0.  1.
         13    1    4    4    0    0  0.41110859111E+02  0.76292678098E+01  0.13918151190E+02  0.44068394533E+02  0.00000000000E+00 0. -1.
        -14    1    4    4    0    0 -0.26922525813E+01  0.17000354770E+02 -0.52891294301E+02  0.55621482352E+02  0.00000000000E+00 0.  1.
</event>
<event>
12    1  0.8135779E-002  0.2137170E+03  0.7818608E-02  0.1139064E+00
         21   -1    0    0  503  502  0.00000000000E+00  0.00000000000E+00  0.55919094252E+03  0.55919094252E+03  0.00000000000E+00 0. -1.
         21   -1    0    0  501  503 -0.00000000000E+00 -0.00000000000E+00 -0.88587647307E+02  0.88587647307E+02  0.00000000000E+00 0.  1.
          6    2    1    2  501    0  0.32754852405E+01  0.12420936389E+03  0.13871439049E+03  0.25303157693E+03  0.17130266172E+03 0.  0.
         24    2    3    3    0    0 -0.66029593220E+02  0.70448059589E+02  0.85723980960E+02  0.15044724458E+03  0.77220050575E+02 0.  0.
         -6    2    1    2    0  502 -0.32754852405E+01 -0.12420936389E+03  0.33188890472E+03  0.39474701290E+03  0.17388577927E+03 0.  0.
        -24    2    5    5    0    0 -0.10246842347E+02 -0.62011336977E+02  0.31374466100E+03  0.32941327007E+03  0.78275069467E+02 0.  0.
          5    1    3    3  501    0  0.69305078460E+02  0.53761304298E+02  0.52990409530E+02  0.10258433234E+03  0.47000000000E+01 0. -1.
        -13    1    4    4    0    0 -0.72741197465E+02  0.80793265142E+02  0.85168273439E+02  0.13810310750E+03  0.00000000000E+00 0.  1.
         14    1    4    4    0    0  0.67116042454E+01 -0.10345205553E+02  0.55570752129E+00  0.12344137083E+02  0.00000000000E+00 0. -1.
         -5    1    5    5    0  502  0.69713571064E+01 -0.62198026910E+02  0.18144243719E+02  0.65333742825E+02  0.47000000000E+01 0.  1.
         13    1    6    6    0    0 -0.66175442687E+01 -0.73993809130E+02  0.17514011608E+03  0.19024441106E+03  0.00000000000E+00 0. -1.
        -14    1    6    6    0    0 -0.36292980782E+01  0.11982472153E+02  0.13860454493E+03  0.13916885901E+03  0.00000000000E+00 0.  1.
</event>
<event>
12    1  0.8135779E-002  0.1908587E+03  0.7818608E-02  0.1158019E+00
         21   -1    0    0  501  502  0.00000000000E+00  0.00000000000E+00  0.12115830015E+03  0.12115830015E+03  0.00000000000E+00 0. -1.
         21   -1    0    0  502  503 -0.00000000000E+00 -0.00000000000E+00 -0.33239462117E+03  0.33239462117E+03  0.00000000000E+00 0. -1.
         -6    2    1    2    0  503  0.26114469478E+02  0.80228368713E+02 -0.17855958540E+03  0.26136288195E+03  0.17119717831E+03 0.  0.
        -24    2    3    3    0    0  0.67605050418E+02  0.34277859068E+01 -0.11212693950E+03  0.15156677880E+03  0.76274801312E+02 0.  0.
          6    2    1    2  501    0 -0.26114469478E+02 -0.80228368713E+02 -0.32676735622E+02  0.19219003938E+03  0.16956027106E+03 0.  0.
         24    2    5    5    0    0 -0.73053520349E+02 -0.87327229749E+02 -0.96780387484E+01  0.13923063622E+03  0.79552773291E+02 0.  0.
          5    1    5    5  501    0  0.46939050871E+02  0.70988610359E+01 -0.22998696873E+02  0.52959403155E+02  0.47000000000E+01 0. -1.
        -13    1    6    6    0    0  0.16942925813E+02 -0.76205689003E+01 -0.30771780997E+01  0.18830954053E+02  0.00000000000E+00 0.  1.
         14    1    6    6    0    0 -0.89996446163E+02 -0.79706660849E+02 -0.66008606487E+01  0.12039968217E+03  0.00000000000E+00 0. -1.
         -5    1    3    3    0  503 -0.41490580940E+02  0.76800582806E+02 -0.66432645898E+02  0.10979610315E+03  0.47000000000E+01 0.  1.
         11    1    4    4    0    0  0.68014230506E+02  0.94133662716E+01 -0.12201098557E+03  0.14000438427E+03  0.00000000000E+00 0. -1.
        -12    1    4    4    0    0 -0.40918008761E+00 -0.59855803647E+01  0.98840460645E+01  0.11562394529E+02  0.00000000000E+00 0.  1.
</event>
<event>
12    1  0.8135779E-002  0.1764864E+03  0.7818608E-02  0.1171818E+00
         21   -1    0    0  503  502  0.00000000000E+00  0.00000000000E+00  0.22057700562E+03  0.22057700562E+03  0.00000000000E+00 0. -1.
         21   -1    0    0  501  503 -0.00000000000E+00 -0.00000000000E+00 -0.21871311693E+03  0.21871311693E+03  0.00000000000E+00 0. -1.
          6    2    1    2  501    0 -0.27497009077E+02  0.29604000981E+02 -0.13133896552E+03  0.21999406470E+03  0.17179924987E+03 0.  0.
         24    2    3    3    0    0  0.90249793753E+01  0.76801738132E+02 -0.11184359187E+03  0.15703660584E+03  0.78559208871E+02 0.  0.
         -6    2    1    2    0  502  0.27497009077E+02 -0.29604000981E+02  0.13320285421E+03  0.21929605784E+03  0.16945582974E+03 0.  0.
        -24    2    5    5    0    0  0.42340853131E+02  0.31023404431E+02  0.31839490020E+02  0.10016317576E+03  0.79143598519E+02 0.  0.
          5    1    3    3  501    0 -0.36521988452E+02 -0.47197737151E+02 -0.19495373658E+02  0.62957458865E+02  0.47000000000E+01 0. -1.
        -13    1    4    4    0    0  0.30414186843E+02  0.67240001809E+02 -0.45548219375E+02  0.86723012475E+02  0.00000000000E+00 0.  1.
         14    1    4    4    0    0 -0.21389207468E+02  0.95617363233E+01 -0.66295372492E+02  0.70313593362E+02  0.00000000000E+00 0. -1.
         -5    1    5    5    0  502 -0.14843844054E+02 -0.60627405412E+02  0.10136336419E+03  0.11913288208E+03  0.47000000000E+01 0.  1.
         13    1    6    6    0    0  0.45564477539E+02  0.11427943229E+02  0.53217415363E+02  0.70984595496E+02  0.00000000000E+00 0. -1.
        -14    1    6    6    0    0 -0.32236244079E+01  0.19595461202E+02 -0.21377925343E+02  0.29178580261E+02  0.00000000000E+00 0.  1.
</event>
<event>
12    1  0.8135779E-002  0.2501373E+03  0.7818608E-02  0.1113236E+00
         21   -1    0    0  503  502  0.00000000000E+00  0.00000000000E+00  0.45463909227E+03  0.45463909227E+03  0.00000000000E+00 0.  1.
         21   -1    0    0  501  503 -0.00000000000E+00 -0.00000000000E+00 -0.25839907704E+03  0.25839907704E+03  0.00000000000E+00 0.  1.
          6    2    1    2  501    0  0.15211361533E+03  0.97240227436E+02 -0.14569597701E+03  0.28937685042E+03  0.17296655758E+03 0.  0.
         24    2    3    3    0    0  0.10543941750E+03  0.57385174052E+02 -0.17045271531E+03  0.22303009380E+03  0.79232352097E+02 0.  0.
         -6    2    1    2    0  502 -0.15211361533E+03 -0.97240227436E+02  0.34193599224E+03  0.42366131889E+03  0.17313138518E+03 0.  0.
        -24    2    5    5    0    0 -0.10499888269E+03 -0.12353198417E+03  0.18775398624E+03  0.26024395298E+03  0.78679344412E+02 0.  0.
          5    1    3    3  501    0  0.46674197835E+02  0.39855053385E+02  0.24756738297E+02  0.66346756627E+02  0.47000000000E+01 0. -1.
        -11    1    4    4    0    0 -0.11589095641E+02  0.14925701785E+02 -0.28800204394E+02  0.34446124378E+02  0.00000000000E+00 0.  1.
         12    1    4    4    0    0  0.11702851314E+03  0.42459472266E+02 -0.14165251092E+03  0.18858396942E+03  0.00000000000E+00 0. -1.
         -5    1    5    5    0  502 -0.47114732641E+02  0.26291756737E+02  0.15418200601E+03  0.16341736591E+03  0.47000000000E+01 0.  1.
         13    1    6    6    0    0 -0.40381338206E+02 -0.10532989690E+03  0.12454192675E+03  0.16803491058E+03  0.00000000000E+00 0. -1.
        -14    1    6    6    0    0 -0.64617544483E+02 -0.18202087277E+02  0.63212059490E+02  0.92209042405E+02  0.00000000000E+00 0.  1.
</event>
<event>
12    1  0.8135779E-002  0.2486986E+03  0.7818608E-02  0.1114593E+00
         21   -1    0    0  503  502  0.00000000000E+00  0.00000000000E+00  0.19601689783E+03  0.19601689783E+03  0.00000000000E+00 0. -1.
         21   -1    0    0  501  503 -0.00000000000E+00 -0.00000000000E+00 -0.80262119276E+03  0.80262119276E+03  0.00000000000E+00 0.  1.
          6    2    1    2  501    0  0.13556693464E+03  0.11643298161E+03 -0.69304614624E+03  0.73534511434E+03  0.16877334917E+03 0.  0.
         24    2    3    3    0    0  0.87166610874E+02  0.54092396493E+02 -0.21219779064E+03  0.24804010618E+03  0.77278629079E+02 0.  0.
         -6    2    1    2    0  502 -0.13556693464E+03 -0.11643298161E+03  0.86441851306E+02  0.26329297625E+03  0.17296232165E+03 0.  0.
        -24    2    5    5    0    0 -0.11256313472E+03 -0.10224519487E+03  0.12562804655E+02  0.18448516168E+03  0.10369383611E+03 0.  0.
          5    1    3    3  501    0  0.48400323768E+02  0.62340585112E+02 -0.48084835560E+03  0.48730500815E+03  0.47000000000E+01 0. -1.
        -13    1    4    4    0    0  0.82748019334E+02  0.57877114389E+02 -0.21773303502E+03  0.24000972817E+03  0.00000000000E+00 0.  1.
         14    1    4    4    0    0  0.44185915403E+01 -0.37847178953E+01  0.55352443812E+01  0.80303780177E+01  0.00000000000E+00 0. -1.
         -5    1    5    5    0  502 -0.23003799927E+02 -0.14187786735E+02  0.73879046651E+02  0.78807814572E+02  0.47000000000E+01 0.  1.
         11    1    6    6    0    0 -0.47220234578E+02  0.17332513599E+01  0.36075278929E+02  0.59448973613E+02  0.00000000000E+00 0. -1.
        -12    1    6    6    0    0 -0.65342900137E+02 -0.10397844623E+03 -0.23512474274E+02  0.12503618806E+03  0.00000000000E+00 0.  1.
</event>
<event>
12    1  0.8135779E-002  0.2581850E+03  0.7818608E-02  0.1108334E+00
         21   -1    0    0  501  502  0.00000000000E+00  0.00000000000E+00  0.11328217630E+04  0.11328217630E+04  0.00000000000E+00 0. -1.
         21   -1    0    0  502  503 -0.00000000000E+00 -0.00000000000E+00 -0.23722255131E+03  0.23722255131E+03  0.00000000000E+00 0. -1.
         -6    2    1    2    0  503  0.16314875950E+03  0.10071400623E+03 -0.14632007250E+03  0.29676430381E+03  0.17291228881E+03 0.  0.
        -24    2    3    3    0    0  0.10362705142E+03  0.59223313660E+02 -0.12197734629E+02  0.14420217608E+03  0.79996976121E+02 0.  0.
          6    2    1    2  501    0 -0.16314875950E+03 -0.10071400623E+03  0.10419192842E+04  0.10732800105E+04  0.17196905942E+03 0.  0.
         24    2    5    5    0    0 -0.13144045108E+03 -0.35051489970E+02  0.45035333138E+03  0.47721847896E+03  0.80088416403E+02 0.  0.
          5    1    5    5  501    0 -0.31708308417E+02 -0.65662516264E+02  0.59156595278E+03  0.59606153151E+03  0.47000000000E+01 0. -1.
        -11    1    6    6    0    0 -0.68409188629E+02 -0.59019722020E+02  0.25062156846E+03  0.26641005096E+03  0.00000000000E+00 0.  1.
         12    1    6    6    0    0 -0.63031262454E+02  0.23968232050E+02  0.19973176292E+03  0.21080842800E+03  0.00000000000E+00 0. -1.
         -5    1    3    3    0  503  0.59521708078E+02  0.41490692575E+02 -0.13412233787E+03  0.15256212773E+03  0.47000000000E+01 0.  1.
         13    1    4    4    0    0  0.55040956034E+02 -0.45185257857E+01 -0.28902916366E+02  0.62332194658E+02  0.00000000000E+00 0. -1.
        -14    1    4    4    0    0  0.48586095388E+02  0.63741839446E+02  0.16705181737E+02  0.81869981421E+02  0.00000000000E+00 0.  1.
</event>
<event>
12    1  0.8135779E-002  0.1998746E+03  0.7818608E-02  0.1150141E+00
         21   -1    0    0  501  502  0.00000000000E+00  0.00000000000E+00  0.65838630940E+02  0.65838630940E+02  0.00000000000E+00 0. -1.
         21   -1    0    0  502  503 -0.00000000000E+00 -0.00000000000E+00 -0.10007586324E+04  0.10007586324E+04  0.00000000000E+00 0. -1.
         -6    2    1    2    0  503  0.43989573550E+02  0.89998120880E+02 -0.80485459141E+03  0.82930138500E+03  0.17295990724E+03 0.  0.
        -24    2    3    3    0    0  0.67582879709E+02  0.32265941244E+02 -0.27528524168E+03  0.29605150470E+03  0.79094832694E+02 0.  0.
          6    2    1    2  501    0 -0.43989573550E+02 -0.89998120880E+02 -0.13006541003E+03  0.23729587832E+03  0.17134053413E+03 0.  0.
         24    2    5    5    0    0  0.69152319797E+01 -0.11080925017E+03 -0.70646461372E+02  0.15619653314E+03  0.84142284882E+02 0.  0.
          5    1    5    5  501    0 -0.50904805529E+02  0.20811129286E+02 -0.59418948657E+02  0.81099345174E+02  0.47000000000E+01 0. -1.
        -11    1    6    6    0    0 -0.14194304384E+02 -0.18929495154E+02 -0.55998562990E+02  0.60791801426E+02  0.00000000000E+00 0.  1.
         12    1    6    6    0    0  0.21109536364E+02 -0.91879755012E+02 -0.14647898382E+02  0.95404731715E+02  0.00000000000E+00 0. -1.
         -5    1    3    3    0  503 -0.23593306159E+02  0.57732179636E+02 -0.52956934973E+03  0.53324988030E+03  0.47000000000E+01 0.  1.
         11    1    4    4    0    0  0.54824431649E+02  0.51600134772E+02 -0.25278428880E+03  0.26375782240E+03  0.00000000000E+00 0. -1.
        -12    1    4    4    0    0  0.12758448060E+02 -0.19334193528E+02 -0.22500952875E+02  0.32293682301E+02  0.00000000000E+00 0.  1.
</event>
<event>
12    1  0.8135779E-002  0.2085938E+03  0.7818608E-02  0.1142888E+00
         21   -1    0    0  503  502  0.00000000000E+00  0.00000000000E+00  0.52784358817E+03  0.52784358817E+03  0.00000000000E+00 0. -1.
         21   -1    0    0  501  503 -0.00000000000E+00 -0.00000000000E+00 -0.14788101781E+03  0.14788101781E+03  0.00000000000E+00 0. -1.
          6    2    1    2  501    0  0.65782610710E+01 -0.11663992832E+03 -0.35217070824E+02  0.21154580625E+03  0.17280983672E+03 0.  0.
         24    2    3    3    0    0  0.62416150260E+01 -0.30582314997E+02 -0.75477967029E+02  0.11641928048E+03  0.82959566133E+02 0.  0.
         -6    2    1    2    0  502 -0.65782610710E+01  0.11663992832E+03  0.41517964119E+03  0.46417879973E+03  0.17157994425E+03 0.  0.
        -24    2    5    5    0    0 -0.14117778439E+02  0.14840364179E+03  0.38108212521E+03  0.41673927601E+03  0.78899210707E+02 0.  0.
          5    1    3    3  501    0  0.33664604504E+00 -0.86057613324E+02  0.40260896205E+02  0.95126525769E+02  0.47000000000E+01 0. -1.
        -13    1    4    4    0    0  0.35983955266E+02 -0.24446094909E+02 -0.10584700693E+02  0.44771558848E+02  0.00000000000E+00 0.  1.
         14    1    4    4    0    0 -0.29742340241E+02 -0.61362200880E+01 -0.64893266335E+02  0.71647721636E+02  0.00000000000E+00 0. -1.
         -5    1    5    5    0  502  0.75395173676E+01 -0.31763713468E+02  0.34097515975E+02  0.47439523723E+02  0.47000000000E+01 0.  1.
         13    1    6    6    0    0  0.16654514679E+02  0.83962567752E+01  0.16184540763E+02  0.24694318106E+02  0.00000000000E+00 0. -1.
        -14    1    6    6    0    0 -0.30772293117E+02  0.14000738501E+03  0.36489758445E+03  0.39204495790E+03  0.00000000000E+00 0.  1.
</event>
<event>
12    1  0.8135779E-002  0.2035757E+03  0.7818608E-02  0.1146862E+00
         21   -1    0    0  501  502  0.00000000000E+00  0.00000000000E+00  0.45954192114E+02  0.45954192114E+02  0.00000000000E+00 0.  1.
         21   -1    0    0  502  503 -0.00000000000E+00 -0.00000000000E+00 -0.15237469613E+04  0.15237469613E+04  0.00000000000E+00 0. -1.
         -6    2    1    2    0  503  0.29647681154E+02  0.10392068189E+03 -0.12417593035E+04  0.12583359055E+04  0.17252417235E+03 0.  0.
        -24    2    3    3    0    0 -0.48805821803E+02  0.47050056027E+02 -0.62365846866E+03  0.63266830023E+03  0.81997418102E+02 0.  0.
          6    2    1    2  501    0 -0.29647681154E+02 -0.10392068189E+03 -0.23603346574E+03  0.31136524800E+03  0.17192448223E+03 0.  0.
         24    2    5    5    0    0  0.51963291636E+02 -0.77967819142E+02 -0.17271400179E+03  0.20475686897E+03  0.57585453682E+02 0.  0.
          5    1    5    5  501    0 -0.81610972790E+02 -0.25952862749E+02 -0.63319463951E+02  0.10660837903E+03  0.47000000000E+01 0. -1.
        -11    1    6    6    0    0  0.18848825765E+02 -0.37388507395E+02 -0.26765185455E+02  0.49694606049E+02  0.00000000000E+00 0.  1.
         12    1    6    6    0    0  0.33114465870E+02 -0.40579311747E+02 -0.14594881634E+03  0.15506226292E+03  0.00000000000E+00 0. -1.
         -5    1    3    3    0  503  0.78453502958E+02  0.56870625864E+02 -0.61810083484E+03  0.62566760523E+03  0.47000000000E+01 0.  1.
         11    1    4    4    0    0 -0.18296965627E+02  0.15643619873E+02 -0.51439861461E+03  0.51496158741E+03  0.00000000000E+00 0. -1.
        -12    1    4    4    0    0 -0.30508856176E+02  0.31406436154E+02 -0.10925985405E+03  0.11770671282E+03  0.00000000000E+00 0.  1.
</event>
<event>
12    1  0.8135779E-002  0.1785920E+03  0.7818608E-02  0.1169305E+00
         21   -1    0    0  503  502  0.00000000000E+00  0.00000000000E+00  0.10835848585E+03  0.10835848585E+03  0.00000000000E+00 0. -1.
         21   -1    0    0  501  503 -0.00000000000E+00 -0.00000000000E+00 -0.29432310685E+03  0.29432310685E+03  0.00000000000E+00 0. -1.
          6    2    1    2  501    0  0.47679290445E+02 -0.28128502895E+01 -0.81919665561E+02  0.19599229717E+03  0.17152528117E+03 0.  0.
         24    2    3    3    0    0 -0.64366504832E+01 -0.22836010189E+02 -0.10558424799E+03  0.13344979597E+03  0.78089056788E+02 0.  0.
         -6    2    1    2    0  502 -0.47679290445E+02  0.28128502895E+01 -0.10404495544E+03  0.20668929553E+03  0.17208685386E+03 0.  0.
        -24    2    5    5    0    0 -0.79636587340E+00  0.62262484800E+02 -0.47119566980E+02  0.11184807290E+03  0.80078003260E+02 0.  0.
          5    1    3    3  501    0  0.54115940928E+02  0.20023159900E+02  0.23664582431E+02  0.62542501201E+02  0.47000000000E+01 0. -1.
        -11    1    4    4    0    0 -0.77533268508E+01 -0.47090577902E+02 -0.36094063111E+02  0.59836594123E+02  0.00000000000E+00 0.  1.
         12    1    4    4    0    0  0.13166763676E+01  0.24254567713E+02 -0.69490184882E+02  0.73613201849E+02  0.00000000000E+00 0. -1.
         -5    1    5    5    0  502 -0.46882924571E+02 -0.59449634510E+02 -0.56925388459E+02  0.94841222636E+02  0.47000000000E+01 0.  1.
         13    1    6    6    0    0 -0.17523226608E+02 -0.83422801179E+01 -0.32465293480E+02  0.37823965803E+02  0.00000000000E+00 0. -1.
        -14    1    6    6    0    0  0.16726860734E+02  0.70604764918E+02 -0.14654273500E+02  0.74024107093E+02  0.00000000000E+00 0.  1.
</event>
<event>
12    1  0.8135779E-002  0.1802579E+03  0.7818608E-02  0.1167871E+00
         21   -1    0    0  501  502  0.00000000000E+00  0.00000000000E+00  0.42234801245E+02  0.42234801245E+02  0.00000000000E+00 0. -1.
         21   -1    0    0  502  503 -0.00000000000E+00 -0.00000000000E+00 -0.87230780149E+03  0.87230780149E+03  0.00000000000E+00 0. -1.
         -6    2    1    2    0  503 -0.11971158108E+02  0.52052326934E+02 -0.25240683179E+03  0.30940532666E+03  0.17079137585E+03 0.  0.
        -24    2    3    3    0    0 -0.31899808846E+02  0.59408852716E+01 -0.47744113625E+02  0.98615539480E+02  0.79953938733E+02 0.  0.
          6    2    1    2  501    0  0.11971158108E+02 -0.52052326934E+02 -0.57766616846E+03  0.60513727608E+03  0.17216319977E+03 0.  0.
         24    2    5    5    0    0  0.37788726394E+02  0.31345381283E+02 -0.29962173096E+03  0.31367111373E+03  0.78777313726E+02 0.  0.
          5    1    5    5  501    0 -0.25817568286E+02 -0.83397708217E+02 -0.27804443750E+03  0.29146616235E+03  0.47000000000E+01 0. -1.
        -11    1    6    6    0    0 -0.47888517929E+01  0.29864454098E+02 -0.37826699499E+02  0.48432199155E+02  0.00000000000E+00 0.  1.
         12    1    6    6    0    0  0.42577578186E+02  0.14809271853E+01 -0.26179503146E+03  0.26523891457E+03  0.00000000000E+00 0. -1.
         -5    1    3    3    0  503  0.19928650738E+02  0.46111441663E+02 -0.20466271816E+03  0.21078978718E+03  0.47000000000E+01 0.  1.
         11    1    4    4    0    0  0.14636236443E+02 -0.25070355864E+02 -0.24757339029E+02  0.38153217376E+02  0.00000000000E+00 0. -1.
        -12    1    4    4    0    0 -0.46536045288E+02  0.31011241136E+02 -0.22986774596E+02  0.60462322104E+02  0.00000000000E+00 0.  1.
</event>
<event>
12    1  0.8135779E-002  0.2229827E+03  0.7818608E-02  0.1131727E+00
         21   -1    0    0  501  502  0.00000000000E+00  0.00000000000E+00  0.44803498189E+03  0.44803498189E+03  0.00000000000E+00 0. -1.
         21   -1    0    0  502  503 -0.00000000000E+00 -0.00000000000E+00 -0.13943659706E+03  0.13943659706E+03  0.00000000000E+00 0.  1.
         -6    2    1    2    0  503  0.40138400578E+02 -0.13622006031E+03  0.21217760863E+02  0.22372867490E+03  0.17157310560E+03 0.  0.
        -24    2    3    3    0    0  0.58521870918E+02 -0.14691578467E+03 -0.18228204874E+02  0.17866844061E+03  0.81123899417E+02 0.  0.
          6    2    1    2  501    0 -0.40138400578E+02  0.13622006031E+03  0.28738062397E+03  0.36374290406E+03  0.17191358640E+03 0.  0.
         24    2    5    5    0    0  0.33534608610E+01  0.30045790659E+02  0.53048403766E+02  0.10278659168E+03  0.82685881808E+02 0.  0.
          5    1    5    5  501    0 -0.43491861439E+02  0.10617426965E+03  0.23433222020E+03  0.26095631238E+03  0.47000000000E+01 0. -1.
        -13    1    6    6    0    0 -0.14319845442E+02  0.37933785345E+02 -0.56881241189E+01  0.40943678390E+02  0.00000000000E+00 0.  1.
         14    1    6    6    0    0  0.17673306303E+02 -0.78879946862E+01  0.58736527885E+02  0.61842913287E+02  0.00000000000E+00 0. -1.
         -5    1    3    3    0  503 -0.18383470340E+02  0.10695724361E+02  0.39445965737E+02  0.45060234290E+02  0.47000000000E+01 0.  1.
         13    1    4    4    0    0  0.74823160031E+02 -0.10504646456E+03  0.29341533604E+01  0.12900338852E+03  0.00000000000E+00 0. -1.
        -14    1    4    4    0    0 -0.16301289113E+02 -0.41869320102E+02 -0.21162358235E+02  0.49665052085E+02  0.00000000000E+00 0.  1.
</event>
<event>
12    1  0.8135779E-002  0.2678133E+03  0.7818608E-02  0.1102626E+00
         21   -1    0    0  503  502  0.00000000000E+00  0.00000000000E+00  0.77039362941E+02  0.77039362941E+02  0.00000000000E+00 0.  1.
         21   -1    0    0  501  503 -0.00000000000E+00 -0.00000000000E+00 -0.11866699256E+04  0.11866699256E+04  0.00000000000E+00 0.  1.
          6    2    1    2  501    0  0.20446271187E+03 -0.36998187191E+02 -0.84980701981E+03  0.89100837861E+03  0.16896772896E+03 0.  0.
         24    2    3    3    0    0  0.14752466229E+03  0.39428843283E+02 -0.51940158741E+03  0.54710014631E+03  0.78882199703E+02 0.  0.
         -6    2    1    2    0  502 -0.20446271187E+03  0.36998187191E+02 -0.25982354286E+03  0.37270090995E+03  0.16799948943E+03 0.  0.
        -24    2    5    5    0    0 -0.21725163649E+03  0.41813069578E+02 -0.19416374131E+03  0.30546967297E+03  0.81642858349E+02 0.  0.
          5    1    3    3  501    0  0.56938049577E+02 -0.76427030474E+02 -0.33040543240E+03  0.34390823229E+03  0.47000000000E+01 0. -1.
        -11    1    4    4    0    0  0.13302630859E+03  0.29032692678E+02 -0.33177530317E+03  0.35862758931E+03  0.00000000000E+00 0.  1.
         12    1    4    4    0    0  0.14498353704E+02  0.10396150604E+02 -0.18762628423E+03  0.18847255700E+03  0.00000000000E+00 0. -1.
         -5    1    5    5    0  502  0.12788924622E+02 -0.48148823868E+01 -0.65659801554E+02  0.67231236978E+02  0.47000000000E+01 0.  1.
         13    1    6    6    0    0 -0.19276823404E+03  0.30696187283E+02 -0.12635470903E+03  0.23252389224E+03  0.00000000000E+00 0. -1.
        -14    1    6    6    0    0 -0.24483402452E+02  0.11116882295E+02 -0.67809032280E+02  0.72945780730E+02  0.00000000000E+00 0.  1.
</event>
<event>
12    1  0.8135779E-002  0.1855346E+03  0.7818608E-02  0.1162985E+00
         21   -1    0    0  503  502  0.00000000000E+00  0.00000000000E+00  0.11823559441E+03  0.11823559441E+03  0.00000000000E+00 0.  1.
         21   -1    0    0  501  503 -0.00000000000E+00 -0.00000000000E+00 -0.35605712744E+03  0.35605712744E+03  0.00000000000E+00 0.  1.
          6    2    1    2  501    0  0.35983797454E+02  0.53666679878E+02 -0.22289141135E+03  0.29000633554E+03  0.17391994477E+03 0.  0.
         24    2    3    3    0    0 -0.23846326837E+02 -0.11692909863E+02 -0.16137119491E+03  0.18203251105E+03  0.79936231376E+02 0.  0.
         -6    2    1    2    0  502 -0.35983797454E+02 -0.53666679878E+02 -0.14930121680E+02  0.18428638632E+03  0.17194073816E+03 0.  0.
        -24    2    5    5    0    0 -0.81115855195E+02 -0.55894204096E+01 -0.30923825088E+02  0.11627010839E+03  0.77145521991E+02 0.  0.
          5    1    3    3  501    0  0.59830124291E+02  0.65359589741E+02 -0.61520216438E+02  0.10797382449E+03  0.47000000000E+01 0. -1.
        -13    1    4    4    0    0 -0.15860457033E+02  0.28316478618E+02 -0.11844422992E+03  0.12281047456E+03  0.00000000000E+00 0.  1.
         14    1    4    4    0    0 -0.79858698044E+01 -0.40009388481E+02 -0.42926964989E+02  0.59222036492E+02  0.00000000000E+00 0. -1.
         -5    1    5    5    0  502  0.45132057741E+02 -0.48077259468E+02  0.15993703408E+02  0.68016277924E+02  0.47000000000E+01 0.  1.
         11    1    6    6    0    0 -0.34974161884E+02 -0.33829474778E+02 -0.37964088205E+02  0.61716264926E+02  0.00000000000E+00 0. -1.
        -12    1    6    6    0    0 -0.46141693311E+02  0.28240054368E+02  0.70402631165E+01  0.54553843468E+02  0.00000000000E+00 0.  1.
</event>
<event>
12    1  0.8135779E-002  0.1832215E+03  0.7818608E-02  0.1165315E+00
         21   -1    0    0  501  502  0.00000000000E+00  0.00000000000E+00  0.20412263451E+04  0.20412263451E+04  0.00000000000E+00 0.  1.
         21   -1    0    0  502  503 -0.00000000000E+00 -0.00000000000E+00 -0.33358344796E+02  0.33358344796E+02  0.00000000000E+00 0.  1.
         -6    2    1    2    0  503  0.51637609968E+01  0.61754606314E+02  0.25716118613E+03  0.31431639573E+03  0.16977227436E+03 0.  0.
        -24    2    3    3    0    0  0.13271217405E+02  0.69005342367E+02  0.69138697198E+02  0.12592093303E+03  0.78345768470E+02 0.  0.
          6    2    1    2  501    0 -0.51637609968E+01 -0.61754606314E+02  0.17507068141E+04  0.17602682941E+04  0.17242338133E+03 0.  0.
         24    2    5    5    0    0 -0.38375194567E+02  0.13408046063E+02  0.12275994579E+04  0.12307252650E+04  0.77664775981E+02 0.  0.
          5    1    5    5  501    0  0.33211433570E+02 -0.75162652376E+02  0.52310735620E+03  0.52954302917E+03  0.47000000000E+01 0. -1.
        -11    1    6    6    0    0 -0.44949771053E+01  0.37844509010E+02  0.33726862802E+03  0.33941499543E+03  0.00000000000E+00 0.  1.
         12    1    6    6    0    0 -0.33880217462E+02 -0.24436462948E+02  0.89033082993E+03  0.89131026954E+03  0.00000000000E+00 0. -1.
         -5    1    3    3    0  503 -0.81074564079E+01 -0.72507360539E+01  0.18802248893E+03  0.18839546270E+03  0.47000000000E+01 0.  1.
         13    1    4    4    0    0  0.10666265193E+00  0.68600531972E+02  0.82408139417E+02  0.10722474437E+03  0.00000000000E+00 0. -1.
        -14    1    4    4    0    0  0.13164554753E+02  0.40481039524E+00 -0.13269442219E+02  0.18696188652E+02  0.00000000000E+00 0.  1.
</event>
<event>
12    1  0.8135779E-002  0.2902313E+03  0.7818608E-02  0.1090435E+00
         21   -1    0    0  503  502  0.00000000000E+00  0.00000000000E+00  0.16079941209E+04  0.16079941209E+04  0.00000000000E+00 0. -1.
         21   -1    0    0  501  503 -0.00000000000E+00 -0.00000000000E+00 -0.52107183063E+02  0.52107183063E+02  0.00000000000E+00 0.  1.
          6    2    1    2  501    0 -0.77718775169E+02  0.21854150790E+03  0.78526620948E+03  0.83663878918E+03  0.17181631213E+03 0.  0.
         24    2    3    3    0    0 -0.11883495795E+03  0.14592887828E+03  0.58289271416E+03  0.61768615486E+03  0.79720040984E+02 0.  0.
         -6    2    1    2    0  502  0.77718775169E+02 -0.21854150790E+03  0.77062072838E+03  0.82346251481E+03  0.17445230752E+03 0.  0.
        -24    2    5    5    0    0 -0.25944091516E+02 -0.74469213187E+02  0.29712030455E+03  0.31776739183E+03  0.80479067714E+02 0.  0.
          5    1    3    3  501    0  0.41116182781E+02  0.72612629623E+02  0.20237349532E+03  0.21895263432E+03  0.47000000000E+01 0. -1.
        -11    1    4    4    0    0 -0.99129228144E+02  0.14745557941E+03  0.55964004862E+03  0.58716840497E+03  0.00000000000E+00 0.  1.
         12    1    4    4    0    0 -0.19705729806E+02 -0.15267011355E+01  0.23252665536E+02  0.30517749886E+02  0.00000000000E+00 0. -1.
         -5    1    5    5    0  502  0.10366286668E+03 -0.14407229471E+03  0.47350042383E+03  0.50569512298E+03  0.47000000000E+01 0.  1.
         13    1    6    6    0    0  0.24436677117E+02 -0.12710989067E+02  0.12629477131E+03  0.12926364413E+03  0.00000000000E+00 0. -1.
        -14    1    6    6    0    0 -0.50380768633E+02 -0.61758224120E+02  0.17082553323E+03  0.18850374770E+03  0.00000000000E+00 0.  1.
</event>
<event>
12    1  0.8135779E-002  0.2289281E+03  0.7818608E-02  0.1127490E+00
         21   -1    0    0  503  502  0.00000000000E+00  0.00000000000E+00  0.65693623084E+03  0.65693623084E+03  0.00000000000E+00 0.  1.
         21   -1    0    0  501  503 -0.00000000000E+00 -0.00000000000E+00 -0.15478585995E+03  0.15478585995E+03  0.00000000000E+00 0. -1.
          6    2    1    2  501    0  0.38237603934E+00 -0.15165529282E+03 -0.31951141548E+02  0.23062614532E+03  0.17078661953E+03 0.  0.
         24    2    3    3    0    0 -0.45433318782E+02 -0.13186685748E+03  0.15632920195E+02  0.16151035120E+03  0.79925908153E+02 0.  0.
         -6    2    1    2    0  502 -0.38237603934E+00  0.15165529282E+03  0.53410151244E+03  0.58109594547E+03  0.17148935303E+03 0.  0.
        -24    2    5    5    0    0  0.13059820446E+02  0.17820830480E+03  0.42642100346E+03  0.46927941223E+03  0.80371237053E+02 0.  0.
          5    1    3    3  501    0  0.45815694822E+02 -0.19788435337E+02 -0.47584061743E+02  0.69115794121E+02  0.47000000000E+01 0. -1.
        -11    1    4    4    0    0 -0.24733215442E+01 -0.97785202739E+02  0.34188068707E+02  0.10361895211E+03  0.00000000000E+00 0.  1.
         12    1    4    4    0    0 -0.42959997238E+02 -0.34081654740E+02 -0.18555148512E+02  0.57891399092E+02  0.00000000000E+00 0. -1.
         -5    1    5    5    0  502 -0.13442196486E+02 -0.26553011981E+02  0.10768050898E+03  0.11181653324E+03  0.47000000000E+01 0.  1.
         11    1    6    6    0    0  0.30824382163E+02  0.15045786164E+03  0.28161547695E+03  0.32077248560E+03  0.00000000000E+00 0. -1.
        -12    1    6    6    0    0 -0.17764561717E+02  0.27750443161E+02  0.14480552651E+03  0.14850692663E+03  0.00000000000E+00 0.  1.
</event>
<event>
12    1  0.8135779E-002  0.2034725E+03  0.7818608E-02  0.1146901E+00
         21   -1    0    0  503  502  0.00000000000E+00  0.00000000000E+00  0.58750877074E+02  0.58750877074E+02  0.00000000000E+00 0.  1.
         21   -1    0    0  501  503 -0.00000000000E+00 -0.00000000000E+00 -0.74786685931E+03  0.74786685931E+03  0.00000000000E+00 0.  1.
          6    2    1    2  501    0  0.13141933565E+02  0.10706547176E+03 -0.44233747723E+03  0.48677292387E+03  0.17219091146E+03 0.  0.
         24    2    3    3    0    0 -0.29939470877E+02 -0.17204277324E+01 -0.18383117421E+03  0.20298078508E+03  0.80671969810E+02 0.  0.
         -6    2    1    2    0  502 -0.13141933565E+02 -0.10706547176E+03 -0.24677850501E+03  0.31984481252E+03  0.17252636870E+03 0.  0.
        -24    2    5    5    0    0  0.51257842619E+02 -0.64252997807E+01 -0.10594043341E+03  0.13509301198E+03  0.66015873458E+02 0.  0.
          5    1    3    3  501    0  0.43081404442E+02  0.10878589949E+03 -0.25850630302E+03  0.28379213879E+03  0.47000000000E+01 0. -1.
        -13    1    4    4    0    0  0.96286095355E+01  0.20858958313E+01 -0.15128635058E+03  0.15160679719E+03  0.00000000000E+00 0.  1.
         14    1    4    4    0    0 -0.39568080413E+02 -0.38063235637E+01 -0.32544823631E+02  0.51373987891E+02  0.00000000000E+00 0. -1.
         -5    1    5    5    0  502 -0.64399776184E+02 -0.10064017198E+03 -0.14083807160E+03  0.18475180054E+03  0.47000000000E+01 0.  1.
         11    1    6    6    0    0  0.29728836196E+02 -0.31464998309E+02 -0.31132093786E+02  0.53320325240E+02  0.00000000000E+00 0. -1.
        -12    1    6    6    0    0  0.21529006423E+02  0.25039698529E+02 -0.74808339622E+02  0.81772686742E+02  0.00000000000E+00 0.  1.
</event>
<event>
12    1  0.8135779E-002  0.1949668E+03  0.7818608E-02  0.1154074E+00
         21   -1    0    0  501  502  0.00000000000E+00  0.00000000000E+00  0.92053888454E+03  0.92053888454E+03  0.00000000000E+00 0.  1.
         21   -1    0    0  502  503 -0.00000000000E+00 -0.00000000000E+00 -0.52850974313E+02  0.52850974313E+02  0.00000000000E+00 0. -1.
         -6    2    1    2    0  503  0.53925988802E+00  0.93445161643E+02  0.20614748659E+03  0.28374080740E+03  0.17111332655E+03 0.  0.
        -24    2    3    3    0    0  0.30671307006E+02  0.57387412501E+02  0.38826845586E+02  0.10988342780E+03  0.79578889036E+02 0.  0.
          6    2    1    2  501    0 -0.53925988802E+00 -0.93445161643E+02  0.66154042364E+03  0.68964905145E+03  0.17101986149E+03 0.  0.
         24    2    5    5    0    0 -0.50656967140E+02 -0.82114695013E+02  0.58006364253E+03  0.59320881133E+03  0.78191514894E+02 0.  0.
          5    1    5    5  501    0  0.50117707252E+02 -0.11330466630E+02  0.81476781115E+02  0.96440240124E+02  0.47000000000E+01 0. -1.
        -11    1    6    6    0    0  0.28786380225E+01  0.13923901108E+02  0.69733436337E+02  0.71168207244E+02  0.00000000000E+00 0.  1.
         12    1    6    6    0    0 -0.53535605162E+02 -0.96038596122E+02  0.51033020619E+03  0.52204060409E+03  0.00000000000E+00 0. -1.
         -5    1    3    3    0  503 -0.30132047118E+02  0.36057749142E+02  0.16732064100E+03  0.17385737960E+03  0.47000000000E+01 0.  1.
         11    1    4    4    0    0  0.12574434959E+02  0.66871104275E+02  0.51943910481E+02  0.85603918354E+02  0.00000000000E+00 0. -1.
        -12    1    4    4    0    0  0.18096872046E+02 -0.94836917738E+01 -0.13117064895E+02  0.24279509447E+02  0.00000000000E+00 0.  1.
</event>
<event>
12    1  0.8135779E-002  0.2449852E+03  0.7818608E-02  0.1116560E+00
         21   -1    0    0  503  502  0.00000000000E+00  0.00000000000E+00  0.42428735836E+03  0.42428735836E+03  0.00000000000E+00 0.  1.
         21   -1    0    0  501  503 -0.00000000000E+00 -0.00000000000E+00 -0.16515021003E+03  0.16515021003E+03  0.00000000000E+00 0.  1.
          6    2    1    2  501    0  0.27769415203E+02 -0.17255509235E+03  0.17628622330E+02  0.24561866008E+03  0.17167223869E+03 0.  0.
         24    2    3    3    0    0  0.43182402874E+02 -0.18300340235E+03  0.48389823301E+02  0.20935478197E+03  0.78312735514E+02 0.  0.
         -6    2    1    2    0  502 -0.27769415203E+02  0.17255509235E+03  0.24150852600E+03  0.34381890830E+03  0.17128535623E+03 0.  0.
        -24    2    5    5    0    0  0.39234169290E+02  0.75880259359E+02  0.70223453054E+02  0.13598202543E+03  0.79136869290E+02 0.  0.
          5    1    3    3  501    0 -0.15412987671E+02  0.10448309999E+02 -0.30761200970E+02  0.36263878115E+02  0.47000000000E+01 0. -1.
        -11    1    4    4    0    0  0.46118638514E+02 -0.15338656546E+03  0.95924687429E+01  0.16045679399E+03  0.00000000000E+00 0.  1.
         12    1    4    4    0    0 -0.29362356403E+01 -0.29616836888E+02  0.38797354558E+02  0.48897987972E+02  0.00000000000E+00 0. -1.
         -5    1    5    5    0  502 -0.67003584493E+02  0.96674832991E+02  0.17128507294E+03  0.20783688287E+03  0.47000000000E+01 0.  1.
         11    1    6    6    0    0  0.50806285919E+02  0.15234462430E+02  0.43951772124E+02  0.68884873573E+02  0.00000000000E+00 0. -1.
        -12    1    6    6    0    0 -0.11572116629E+02  0.60645796929E+02  0.26271680930E+02  0.67097151857E+02  0.00000000000E+00 0.  1.
</event>
<event>
12    1  0.8135779E-002  0.2144649E+03  0.7818608E-02  0.1138127E+00
         21   -1    0    0  501  502  0.00000000000E+00  0.00000000000E+00  0.35345012181E+03  0.35345012181E+03  0.00000000000E+00 0.  1.
         21   -1    0    0  502  503 -0.00000000000E+00 -0.00000000000E+00 -0.18294151731E+03  0.18294151731E+03  0.00000000000E+00 0. -1.
         -6    2    1    2    0  503  0.54795910917E+02 -0.11617889854E+03 -0.59013820725E+02  0.22243613925E+03  0.17174130746E+03 0.  0.
        -24    2    3    3    0    0  0.10312840048E+03 -0.91874833459E+02 -0.53365808624E+02  0.16784028622E+03  0.79031640125E+02 0.  0.
          6    2    1    2  501    0 -0.54795910917E+02  0.11617889854E+03  0.22952242522E+03  0.31395549987E+03  0.17142748876E+03 0.  0.
         24    2    5    5    0    0 -0.51308785890E+02  0.65081277186E+02  0.23562082616E+03  0.26216353676E+03  0.79651629824E+02 0.  0.
          5    1    5    5  501    0 -0.34871250270E+01  0.51097621356E+02 -0.60984009428E+01  0.51791963115E+02  0.47000000000E+01 0. -1.
        -11    1    6    6    0    0 -0.53181551249E+02  0.65305305646E+02  0.12043011310E+03  0.14695738321E+03  0.00000000000E+00 0.  1.
         12    1    6    6    0    0  0.18727653589E+01 -0.22402846017E+00  0.11519071307E+03  0.11520615355E+03  0.00000000000E+00 0. -1.
         -5    1    3    3    0  503 -0.48332489564E+02 -0.24304065083E+02 -0.56480121014E+01  0.54595853026E+02  0.47000000000E+01 0.  1.
         13    1    4    4    0    0  0.94195236516E+02 -0.36398348783E+02 -0.21513847227E+02  0.10324934866E+03  0.00000000000E+00 0. -1.
        -14    1    4    4    0    0  0.89331639652E+01 -0.55476484677E+02 -0.31851961397E+02  0.64590937564E+02  0.00000000000E+00 0.  1.
</event>
<event>
12    1  0.8135779E-002  0.1900688E+03  0.7818608E-02  0.1159143E+00
         21   -1    0    0  501  502  0.00000000000E+00  0.00000000000E+00  0.24902590254E+03  0.24902590254E+03  0.00000000000E+00 0. -1.
         21   -1    0    0  502  503 -0.00000000000E+00 -0.00000000000E+00 -0.16622801115E+03  0.16622801115E+03  0.00000000000E+00 0.  1.
         -6    2    1    2    0  503  0.26858765625E+01  0.80884152340E+02 -0.37211164998E+02  0.19046883728E+03  0.16835749802E+03 0.  0.
        -24    2    3    3    0    0 -0.34868652019E+02  0.89099107812E+00 -0.43555203979E+02  0.10174688229E+03  0.85080876253E+02 0.  0.
          6    2    1    2  501    0 -0.26858765625E+01 -0.80884152340E+02  0.12000905639E+03  0.22478507642E+03  0.17197876884E+03 0.  0.
         24    2    5    5    0    0  0.39747561654E+02 -0.53210230905E+02  0.13750300346E+03  0.17098386091E+03  0.76923386567E+02 0.  0.
          5    1    5    5  501    0 -0.42433438216E+02 -0.27673921435E+02 -0.17493947070E+02  0.53801215512E+02  0.47000000000E+01 0. -1.
        -11    1    6    6    0    0  0.21859224028E+02 -0.15339561163E+02 -0.55744916829E+00  0.26710270709E+02  0.00000000000E+00 0.  1.
         12    1    6    6    0    0  0.17888337626E+02 -0.37870669742E+02  0.13806045263E+03  0.14427359020E+03  0.00000000000E+00 0. -1.
         -5    1    3    3    0  503  0.37554528581E+02  0.79993161262E+02  0.63440389805E+01  0.88721954984E+02  0.47000000000E+01 0.  1.
         11    1    4    4    0    0 -0.26085719889E+02  0.41740195395E+02 -0.30788535943E+02  0.58057235890E+02  0.00000000000E+00 0. -1.
        -12    1    4    4    0    0 -0.87829321296E+01 -0.40849204316E+02 -0.12766668036E+02  0.43689646403E+02  0.00000000000E+00 0.  1.
</event>
<event>
12    1  0.8135779E-002  0.2141985E+03  0.7818608E-02  0.1138310E+00
         21   -1    0    0  503  502  0.00000000000E+00  0.00000000000E+00  0.11287835501E+03  0.11287835501E+03  0.00000000000E+00 0. -1.
         21   -1    0    0  501  503 -0.00000000000E+00 -0.00000000000E+00 -0.40954636683E+03  0.40954636683E+03  0.00000000000E+00 0. -1.
          6    2    1    2  501    0 -0.12417714157E+03 -0.29009822661E+02 -0.17188901316E+03  0.27453205063E+03  0.17193161920E+03 0.  0.
         24    2    3    3    0    0 -0.14764023272E+03 -0.52661309343E+02 -0.12341880740E+03  0.21552899719E+03  0.81545660785E+02 0.  0.
         -6    2    1    2    0  502  0.12417714157E+03  0.29009822661E+02 -0.12477899866E+03  0.24789267120E+03  0.17210300878E+03 0.  0.
        -24    2    5    5    0    0  0.34854040065E+02  0.24717340262E+02 -0.13008102889E+03  0.15818624227E+03  0.79221601528E+02 0.  0.
          5    1    3    3  501    0  0.23463091148E+02  0.23651486682E+02 -0.48470205764E+02  0.59003053440E+02  0.47000000000E+01 0. -1.
        -13    1    4    4    0    0 -0.10912623420E+03 -0.48664739454E+01 -0.10482003014E+03  0.15139173121E+03  0.00000000000E+00 0.  1.
         14    1    4    4    0    0 -0.38513998518E+02 -0.47794835398E+02 -0.18598777254E+02  0.64137265984E+02  0.00000000000E+00 0. -1.
         -5    1    5    5    0  502  0.89323101503E+02  0.42924823991E+01  0.53020302247E+01  0.89706428932E+02  0.47000000000E+01 0.  1.
         11    1    6    6    0    0 -0.18130222647E+02  0.26617975616E+02 -0.26043949813E+02  0.41418702551E+02  0.00000000000E+00 0. -1.
        -12    1    6    6    0    0  0.52984262712E+02 -0.19006353543E+01 -0.10403707907E+03  0.11676753972E+03  0.00000000000E+00 0.  1.
</event>
<event>
12    1  0.8135779E-002  0.1820251E+03  0.7818608E-02  0.1166007E+00
         21   -1    0    0  501  502  0.00000000000E+00  0.00000000000E+00  0.84713090407E+02  0.84713090407E+02  0.00000000000E+00 0. -1.
         21   -1    0    0  502  503 -0.00000000000E+00 -0.00000000000E+00 -0.81028451144E+03  0.81028451144E+03  0.00000000000E+00 0. -1.
         -6    2    1    2    0  503  0.55544713768E+02 -0.20844605212E+02 -0.68546026910E+03  0.70921711216E+03  0.17208549875E+03 0.  0.
        -24    2    3    3    0    0  0.88925203762E+02 -0.33772569134E+01 -0.33894040326E+03  0.36062354826E+03  0.85144869925E+02 0.  0.
          6    2    1    2  501    0 -0.55544713768E+02  0.20844605212E+02 -0.40111151933E+02  0.18578048968E+03  0.17142279033E+03 0.  0.
         24    2    5    5    0    0 -0.28412603284E+02 -0.59017567192E+02 -0.32169653523E+02  0.10093194581E+03  0.69728199562E+02 0.  0.
          5    1    5    5  501    0 -0.27132110484E+02  0.79862172404E+02 -0.79414984095E+01  0.84848543873E+02  0.47000000000E+01 0. -1.
        -11    1    6    6    0    0  0.95774592719E+01  0.71129781345E+01  0.83581818987E+01  0.14566447360E+02  0.00000000000E+00 0.  1.
         12    1    6    6    0    0 -0.37990062556E+02 -0.66130545327E+02 -0.40527835422E+02  0.86365498448E+02  0.00000000000E+00 0. -1.
         -5    1    3    3    0  503 -0.33380489994E+02 -0.17467348298E+02 -0.34651986584E+03  0.34859356390E+03  0.47000000000E+01 0.  1.
         13    1    4    4    0    0  0.21399846163E+02 -0.25722703797E+01 -0.23921971082E+03  0.24018875918E+03  0.00000000000E+00 0. -1.
        -14    1    4    4    0    0  0.67525357599E+02 -0.80498653366E+00 -0.99720692437E+02  0.12043478909E+03  0.00000000000E+00 0.  1.
</event>
<event>
12    1  0.8135779E-002  0.1884660E+03  0.7818608E-02  0.1159894E+00
         21   -1    0    0  503  502  0.00000000000E+00  0.00000000000E+00  0.14410462189E+03  0.14410462189E+03  0.00000000000E+00 0.  1.
         21   -1    0    0  501  503 -0.00000000000E+00 -0.00000000000E+00 -0.26430539557E+03  0.26430539557E+03  0.00000000000E+00 0.  1.
          6    2    1    2  501    0 -0.62987150602E+02  0.42384980033E+02 -0.11345650398E+03  0.21982342211E+03  0.17229652039E+03 0.  0.
         24    2    3    3    0    0 -0.80486954118E+02 -0.10384801424E+01 -0.71148567252E+00  0.97653993975E+02  0.55286237919E+02 0.  0.
         -6    2    1    2    0  502  0.62987150602E+02 -0.42384980033E+02 -0.67442697007E+01  0.18858659536E+03  0.17249797420E+03 0.  0.
        -24    2    5    5    0    0  0.17040947047E+02  0.34289452322E+01 -0.63479104912E+02  0.10226799426E+03  0.78275119602E+02 0.  0.
          5    1    3    3  501    0  0.17499803516E+02  0.43423460175E+02 -0.11274501831E+03  0.12216942813E+03  0.47000000000E+01 0. -1.
        -13    1    4    4    0    0 -0.63803032665E+02 -0.21300296437E+02 -0.13264132145E+02  0.68559950460E+02  0.00000000000E+00 0.  1.
         14    1    4    4    0    0 -0.16683921452E+02  0.20261816294E+02  0.12552646472E+02  0.29094043515E+02  0.00000000000E+00 0. -1.
         -5    1    5    5    0  502  0.45946203555E+02 -0.45813925265E+02  0.56734835211E+02  0.86318601100E+02  0.47000000000E+01 0.  1.
         11    1    6    6    0    0 -0.58106230438E+01  0.14180457615E+02  0.14012297696E+02  0.20765192151E+02  0.00000000000E+00 0. -1.
        -12    1    6    6    0    0  0.22851570091E+02 -0.10751512382E+02 -0.77491402608E+02  0.81502802113E+02  0.00000000000E+00 0.  1.
</event>
<event>
12    1  0.8135779E-002  0.2065139E+03  0.7818608E-02  0.1147613E+00
         21   -1    0    0  503  502  0.00000000000E+00  0.00000000000E+00  0.13318903493E+03  0.13318903493E+03  0.00000000000E+00 0.  1.
         21   -1    0    0  501  503 -0.00000000000E+00 -0.00000000000E+00 -0.32941064499E+03  0.32941064499E+03  0.00000000000E+00 0. -1.
          6    2    1    2  501    0  0.44466578609E+02 -0.67900643407E+02 -0.16749897835E+03  0.25409789968E+03  0.17297994359E+03 0.  0.
         24    2    3    3    0    0  0.27186486155E+02 -0.93552016320E+02 -0.18105767775E+03  0.22000211025E+03  0.78281294409E+02 0.  0.
         -6    2    1    2    0  502 -0.44466578609E+02  0.67900643407E+02 -0.28722631708E+02  0.20850178023E+03  0.18989531010E+03 0.  0.
        -24    2    5    5    0    0 -0.49698740266E+02  0.16295727960E+02  0.54980471026E+02  0.10991809892E+03  0.79521196805E+02 0.  0.
          5    1    3    3  501    0  0.17280092454E+02  0.25651372912E+02  0.13558699401E+02  0.34095789432E+02  0.47000000000E+01 0. -1.
        -11    1    4    4    0    0  0.19645992891E+02 -0.21063499689E+02 -0.47070585124E+01  0.29185483646E+02  0.00000000000E+00 0.  1.
         12    1    4    4    0    0  0.75404932633E+01 -0.72488516631E+02 -0.17635061924E+03  0.19081662661E+03  0.00000000000E+00 0. -1.
         -5    1    5    5    0  502  0.52321616572E+01  0.51604915447E+02 -0.83703102734E+02  0.98583681313E+02  0.47000000000E+01 0.  1.
         11    1    6    6    0    0 -0.35245700835E+02  0.10930780527E+02 -0.13825107624E+02  0.39406534878E+02  0.00000000000E+00 0. -1.
        -12    1    6    6    0    0 -0.14453039431E+02  0.53649474332E+01  0.68805578650E+02  0.70511564038E+02  0.00000000000E+00 0.  1.
</event>
<event>
12    1  0.8135779E-002  0.2505284E+03  0.7818608E-02  0.1113125E+00
         21   -1    0    0  503  502  0.00000000000E+00  0.00000000000E+00  0.45688203032E+03  0.45688203032E+03  0.00000000000E+00 0. -1.
         21   -1    0    0  501  503 -0.00000000000E+00 -0.00000000000E+00 -0.13685417536E+03  0.13685417536E+03  0.00000000000E+00 0. -1.
          6    2    1    2  501    0  0.17992264108E+03 -0.21749105253E+02  0.15760985818E+03  0.29598199536E+03  0.17297194520E+03 0.  0.
         24    2    3    3    0    0  0.11887115243E+03 -0.82235902826E+02  0.96305379249E+02  0.19031144088E+03  0.77785756173E+02 0.  0.
         -6    2    1    2    0  502 -0.17992264108E+03  0.21749105253E+02  0.16241799679E+03  0.29775421032E+03  0.17155985466E+03 0.  0.
        -24    2    5    5    0    0 -0.15108873009E+03 -0.44537530705E+02  0.10785507153E+03  0.20706509663E+03  0.80198764247E+02 0.  0.
          5    1    3    3  501    0  0.61051488652E+02  0.60486797573E+02  0.61304478930E+02  0.10567055448E+03  0.47000000000E+01 0. -1.
        -11    1    4    4    0    0  0.50306118951E+01 -0.40697867131E+02  0.37693061831E+02  0.55699105516E+02  0.00000000000E+00 0.  1.
         12    1    4    4    0    0  0.11384054053E+03 -0.41538035694E+02  0.58612317418E+02  0.13461233536E+03  0.00000000000E+00 0. -1.
         -5    1    5    5    0  502 -0.28833910989E+02  0.66286635958E+02  0.54562925254E+02  0.90689113690E+02  0.47000000000E+01 0.  1.
         11    1    6    6    0    0 -0.61367523075E+02 -0.17704165832E+02 -0.47009062937E+00  0.63871991994E+02  0.00000000000E+00 0. -1.
        -12    1    6    6    0    0 -0.89721207018E+02 -0.26833364873E+02  0.10832516216E+03  0.14319310464E+03  0.00000000000E+00 0.  1.
</event>
<event>
12    1  0.8135779E-002  0.1939622E+03  0.7818608E-02  0.1155273E+00
         21   -1    0    0  503  502  0.00000000000E+00  0.00000000000E+00  0.21598439009E+03  0.21598439009E+03  0.00000000000E+00 0. -1.
         21   -1    0    0  501  503 -0.00000000000E+00 -0.00000000000E+00 -0.22154842297E+03  0.22154842297E+03  0.00000000000E+00 0. -1.
          6    2    1    2  501    0  0.25520951014E+02 -0.87651560871E+02 -0.10537646696E+03  0.21939558881E+03  0.16939926073E+03 0.  0.
         24    2    3    3    0    0  0.27469445221E+02 -0.38087920143E+02  0.86176773904E+01  0.94988571082E+02  0.82117624120E+02 0.  0.
         -6    2    1    2    0  502 -0.25520951014E+02  0.87651560871E+02  0.99812434085E+02  0.21813722426E+03  0.17113506814E+03 0.  0.
        -24    2    5    5    0    0  0.35100375096E+02  0.65136501178E+02  0.10768704847E+03  0.15282281051E+03  0.79268599617E+02 0.  0.
          5    1    3    3  501    0 -0.19484942070E+01 -0.49563640727E+02 -0.11399414435E+03  0.12440701772E+03  0.47000000000E+01 0. -1.
        -13    1    4    4    0    0  0.50110739181E+02 -0.66257557846E+01  0.20350532964E+02  0.54489733096E+02  0.00000000000E+00 0.  1.
         14    1    4    4    0    0 -0.22641293960E+02 -0.31462164359E+02 -0.11732855574E+02  0.40498837986E+02  0.00000000000E+00 0. -1.
         -5    1    5    5    0  502 -0.60621326110E+02  0.22515059692E+02 -0.78746143868E+01  0.65314413753E+02  0.47000000000E+01 0.  1.
         11    1    6    6    0    0 -0.41438308963E+01 -0.43299840665E+01  0.59109445315E+02  0.59412512335E+02  0.00000000000E+00 0. -1.
        -12    1    6    6    0    0  0.39244205992E+02  0.69466485245E+02  0.48577603157E+02  0.93410298173E+02  0.00000000000E+00 0.  1.
</event>
<event>
12    1  0.8135779E-002  0.2301261E+03  0.7818608E-02  0.1126963E+00
         21   -1    0    0  501  502  0.00000000000E+00  0.00000000000E+00  0.19633291111E+03  0.19633291111E+03  0.00000000000E+00 0. -1.
         21   -1    0    0  502  503 -0.00000000000E+00 -0.00000000000E+00 -0.51554748799E+03  0.51554748799E+03  0.00000000000E+00 0. -1.
         -6    2    1    2    0  503  0.35383292650E+02  0.14790029786E+03 -0.40716192377E+03  0.46769525046E+03  0.17271809295E+03 0.  0.
        -24    2    3    3    0    0  0.37733346434E+02  0.17252198444E+03 -0.29601397485E+03  0.35373163017E+03  0.79461640600E+02 0.  0.
          6    2    1    2  501    0 -0.35383292650E+02 -0.14790029786E+03  0.87947346887E+02  0.24418514864E+03  0.16960299374E+03 0.  0.
         24    2    5    5    0    0 -0.12733763265E+02 -0.15472122580E+03  0.11229124084E+03  0.20991794257E+03  0.85763706792E+02 0.  0.
          5    1    5    5  501    0 -0.22649529385E+02  0.68209279450E+01 -0.24343893949E+02  0.34267206073E+02  0.47000000000E+01 0. -1.
        -13    1    6    6    0    0  0.21097314522E+02 -0.68487131125E+02  0.10738396333E+02  0.72463073117E+02  0.00000000000E+00 0.  1.
         14    1    6    6    0    0 -0.33831077787E+02 -0.86234094680E+02  0.10155284450E+03  0.13745486945E+03  0.00000000000E+00 0. -1.
         -5    1    3    3    0  503 -0.23500537839E+01 -0.24621686575E+02 -0.11114794892E+03  0.11396362030E+03  0.47000000000E+01 0.  1.
         11    1    4    4    0    0  0.13648480427E+02  0.10466533985E+02 -0.84257500291E+02  0.85995091179E+02  0.00000000000E+00 0. -1.
        -12    1    4    4    0    0  0.24084866007E+02  0.16205545045E+03 -0.21175647456E+03  0.26773653899E+03  0.00000000000E+00 0.  1.
</event>
<event>
12    1  0.8135779E-002  0.2956999E+03  0.7818608E-02  0.1087663E+00
         21   -1    0    0  501  502  0.00000000000E+00  0.00000000000E+00  0.15821726237E+03  0.15821726237E+03  0.00000000000E+00 0. -1.
         21   -1    0    0  502  503 -0.00000000000E+00 -0.00000000000E+00 -0.70020254905E+03  0.70020254905E+03  0.00000000000E+00 0.  1.
         -6    2    1    2    0  503  0.22971647254E+03 -0.68969262190E+02 -0.47118326454E+03  0.55628421194E+03  0.17295097220E+03 0.  0.
        -24    2    3    3    0    0  0.36718670745E+02 -0.75790138530E+01 -0.96856346382E+02  0.13065568171E+03  0.79272019626E+02 0.  0.
          6    2    1    2  501    0 -0.22971647254E+03  0.68969262190E+02 -0.70802022137E+02  0.30213559947E+03  0.16954815613E+03 0.  0.
         24    2    5    5    0    0 -0.11284787436E+03  0.10425115632E+02 -0.96752459255E+02  0.16878942771E+03  0.79281187875E+02 0.  0.
          5    1    5    5  501    0 -0.11686859818E+03  0.58544146558E+02  0.25950437118E+02  0.13334617176E+03  0.47000000000E+01 0. -1.
        -13    1    6    6    0    0 -0.60340019913E+02 -0.76452398053E+01 -0.43410094690E+01  0.60977143734E+02  0.00000000000E+00 0.  1.
         14    1    6    6    0    0 -0.52507854446E+02  0.18070355438E+02 -0.92411449786E+02  0.10781228397E+03  0.00000000000E+00 0. -1.
         -5    1    3    3    0  503  0.19299780180E+03 -0.61390248337E+02 -0.37432691816E+03  0.42562853023E+03  0.47000000000E+01 0.  1.
         11    1    4    4    0    0 -0.39261829688E+01 -0.36629703328E+02 -0.50447310112E+02  0.62466640506E+02  0.00000000000E+00 0. -1.
        -12    1    4    4    0    0  0.40644853714E+02  0.29050689475E+02 -0.46409036270E+02  0.68189041201E+02  0.00000000000E+00 0.  1.
</event>
<event>
12    1  0.8135779E-002  0.2657894E+03  0.7818608E-02  0.1103986E+00
         21   -1    0    0  501  502  0.00000000000E+00  0.00000000000E+00  0.44923280336E+03  0.44923280336E+03  0.00000000000E+00 0.  1.
         21   -1    0    0  502  503 -0.00000000000E+00 -0.00000000000E+00 -0.22763715875E+03  0.22763715875E+03  0.00000000000E+00 0. -1.
         -6    2    1    2    0  503 -0.20037581879E+03  0.27410645587E+02 -0.79112316720E+02  0.27553556640E+03  0.16958560506E+03 0.  0.
        -24    2    3    3    0    0 -0.10939696837E+03 -0.49701495390E+02 -0.48045438767E+02  0.15220400346E+03  0.80123399519E+02 0.  0.
          6    2    1    2  501    0  0.20037581879E+03 -0.27410645587E+02  0.30070796133E+03  0.40133439571E+03  0.17245929063E+03 0.  0.
         24    2    5    5    0    0  0.74007573804E+02 -0.50531126531E+02  0.21463064078E+03  0.24662536206E+03  0.82019762983E+02 0.  0.
          5    1    5    5  501    0  0.12636824499E+03  0.23120480944E+02  0.86077320553E+02  0.15470903365E+03  0.47000000000E+01 0. -1.
        -13    1    6    6    0    0  0.57616054517E+02 -0.24572108334E+02  0.52840976342E+02  0.81948563300E+02  0.00000000000E+00 0.  1.
         14    1    6    6    0    0  0.16391519286E+02 -0.25959018197E+02  0.16178966444E+03  0.16467679876E+03  0.00000000000E+00 0. -1.
         -5    1    3    3    0  503 -0.90978850417E+02  0.77112140977E+02 -0.31066877952E+02  0.12333156293E+03  0.47000000000E+01 0.  1.
         11    1    4    4    0    0 -0.10595473542E+03 -0.25088027128E+02 -0.60329643546E+02  0.12448084573E+03  0.00000000000E+00 0. -1.
        -12    1    4    4    0    0 -0.34422329513E+01 -0.24613468262E+02  0.12284204778E+02  0.27723157732E+02  0.00000000000E+00 0.  1.
</event>
<event>
12    1  0.8135779E-002  0.1983057E+03  0.7818608E-02  0.1151621E+00
         21   -1    0    0  501  502  0.00000000000E+00  0.00000000000E+00  0.45013845909E+03  0.45013845909E+03  0.00000000000E+00 0. -1.
         21   -1    0    0  502  503 -0.00000000000E+00 -0.00000000000E+00 -0.93697135163E+02  0.93697135163E+02  0.00000000000E+00 0. -1.
         -6    2    1    2    0  503  0.88874317618E+02 -0.43889421198E+02  0.10346684309E+03  0.22367506131E+03  0.17175628025E+03 0.  0.
        -24    2    3    3    0    0  0.92230281418E+02 -0.80028599557E+02  0.41578402212E+02  0.15177532682E+03  0.79974900702E+02 0.  0.
          6    2    1    2  501    0 -0.88874317618E+02  0.43889421198E+02  0.25297448084E+03  0.32016053295E+03  0.16935688140E+03 0.  0.
         24    2    5    5    0    0 -0.40893640614E+02  0.91574625931E+02  0.18402759616E+03  0.22345589488E+03  0.77512443208E+02 0.  0.
          5    1    5    5  501    0 -0.47980677005E+02 -0.47685204733E+02  0.68946884678E+02  0.96704638064E+02  0.47000000000E+01 0. -1.
        -13    1    6    6    0    0  0.20818877163E+02  0.10722375882E+02  0.21891301660E+02  0.32056576225E+02  0.00000000000E+00 0.  1.
         14    1    6    6    0    0 -0.61712517777E+02  0.80852250048E+02  0.16213629450E+03  0.19139931866E+03  0.00000000000E+00 0. -1.
         -5    1    3    3    0  503 -0.33559638000E+01  0.36139178359E+02  0.61888440877E+02  0.71899734490E+02  0.47000000000E+01 0.  1.
         13    1    4    4    0    0  0.51708743874E+02 -0.62156051831E+02 -0.12567763982E+02  0.81823698668E+02  0.00000000000E+00 0. -1.
        -14    1    4    4    0    0  0.40521537544E+02 -0.17872547726E+02  0.54146166193E+02  0.69951628148E+02  0.00000000000E+00 0.  1.
</event>
<event>
12    1  0.8135779E-002  0.2109618E+03  0.7818608E-02  0.1140980E+00
         21   -1    0    0  501  502  0.00000000000E+00  0.00000000000E+00  0.80854775352E+02  0.80854775352E+02  0.00000000000E+00 0.  1.
         21   -1    0    0  502  503 -0.00000000000E+00 -0.00000000000E+00 -0.55503771643E+03  0.55503771643E+03  0.00000000000E+00 0.  1.
         -6    2    1    2    0  503  0.12164829500E+03 -0.78375942292E+01 -0.27303937585E+03  0.34504404585E+03  0.17217769091E+03 0.  0.
        -24    2    3    3    0    0  0.77945472890E+02  0.51666453268E+02 -0.11681891224E+03  0.17219268895E+03  0.85198267203E+02 0.  0.
          6    2    1    2  501    0 -0.12164829500E+03  0.78375942292E+01 -0.20114356523E+03  0.29084844593E+03  0.17109748423E+03 0.  0.
         24    2    5    5    0    0 -0.11764425975E+03 -0.44092232120E+02 -0.19178302409E+03  0.23772172108E+03  0.62821903507E+02 0.  0.
          5    1    5    5  501    0 -0.40040352536E+01  0.51929826349E+02 -0.93605411356E+01  0.53126724850E+02  0.47000000000E+01 0. -1.
        -13    1    6    6    0    0 -0.53025390110E+02  0.17197086950E+01 -0.11840068082E+03  0.12974348004E+03  0.00000000000E+00 0.  1.
         14    1    6    6    0    0 -0.64618869640E+02 -0.45811940815E+02 -0.73382343265E+02  0.10797824104E+03  0.00000000000E+00 0. -1.
         -5    1    3    3    0  503  0.43702822114E+02 -0.59504047497E+02 -0.15622046361E+03  0.17285135690E+03  0.47000000000E+01 0.  1.
         13    1    4    4    0    0  0.10349338488E+02  0.46330524020E+02 -0.14856937038E+02  0.49742887344E+02  0.00000000000E+00 0. -1.
        -14    1    4    4    0    0  0.67596134402E+02  0.53359292479E+01 -0.10196197520E+03  0.12244980161E+03  0.00000000000E+00 0.  1.
</event>
<event>
12    1  0.8135779E-002  0.2543457E+03  0.7818608E-02  0.1110598E+00
         21   -1    0    0  503  502  0.00000000000E+00  0.00000000000E+00  0.21863506468E+03  0.21863506468E+03  0.00000000000E+00 0. -1.
         21   -1    0    0  501  503 -0.00000000000E+00 -0.00000000000E+00 -0.44178339749E+03  0.44178339749E+03  0.00000000000E+00 0.  1.
          6    2    1    2  501    0  0.11132606303E+03 -0.15130105686E+03  0.78219886116E+02  0.26610164466E+03  0.17148245563E+03 0.  0.
         24    2    3    3    0    0  0.45142815183E+02 -0.15197103521E+03  0.91723812945E+02  0.19838815113E+03  0.76233400432E+02 0.  0.
         -6    2    1    2    0  502 -0.11132606303E+03  0.15130105686E+03 -0.30136821892E+03  0.39431681751E+03  0.17139850374E+03 0.  0.
        -24    2    5    5    0    0 -0.90426805291E+02  0.11278494464E+03 -0.11087548404E+03  0.19879228730E+03  0.79545896656E+02 0.  0.
          5    1    3    3  501    0  0.66183247845E+02  0.66997835351E+00 -0.13503926828E+02  0.67713493530E+02  0.47000000000E+01 0. -1.
        -11    1    4    4    0    0  0.32507012676E+02 -0.12933530359E+03  0.37887549395E+02  0.13863546814E+03  0.00000000000E+00 0.  1.
         12    1    4    4    0    0  0.12635802507E+02 -0.22635731619E+02  0.53836263550E+02  0.59752682985E+02  0.00000000000E+00 0. -1.
         -5    1    5    5    0  502 -0.20899257736E+02  0.38516112211E+02 -0.19049273488E+03  0.19552453021E+03  0.47000000000E+01 0.  1.
         11    1    6    6    0    0  0.11561829270E+02  0.34566170548E+02 -0.25846441809E+02  0.44682598364E+02  0.00000000000E+00 0. -1.
        -12    1    6    6    0    0 -0.10198863456E+03  0.78218774097E+02 -0.85029042233E+02  0.15410968894E+03  0.00000000000E+00 0.  1.
</event>
<event>
12    1  0.8135779E-002  0.2323543E+03  0.7818608E-02  0.1125248E+00
         21   -1    0    0  501  502  0.00000000000E+00  0.00000000000E+00  0.24478763060E+02  0.24478763060E+02  0.00000000000E+00 0.  1.
         21   -1    0    0  502  503 -0.00000000000E+00 -0.00000000000E+00 -0.26102443756E+04  0.26102443756E+04  0.00000000000E+00 0. -1.
         -6    2    1    2    0  503 -0.12257854342E+03 -0.95455871445E+02 -0.76196329700E+03  0.79617930901E+03  0.17081013850E+03 0.  0.
        -24    2    3    3    0    0 -0.39859838592E+02  0.16744496887E+02 -0.26558104292E+03  0.28057409283E+03  0.79494316156E+02 0.  0.
          6    2    1    2  501    0  0.12257854342E+03  0.95455871445E+02 -0.18238023156E+04  0.18385438297E+04  0.17277501174E+03 0.  0.
         24    2    5    5    0    0  0.14372871940E+03  0.37200299015E+02 -0.14188437958E+04  0.14288432874E+04  0.80209823978E+02 0.  0.
          5    1    5    5  501    0 -0.21150175974E+02  0.58255572430E+02 -0.40495851975E+03  0.40970054232E+03  0.47000000000E+01 0. -1.
        -11    1    6    6    0    0  0.13799194579E+03  0.47413192653E+02 -0.10817564831E+04  0.10915525075E+04  0.00000000000E+00 0.  1.
         12    1    6    6    0    0  0.57367736088E+01 -0.10212893639E+02 -0.33708731270E+03  0.33729077982E+03  0.00000000000E+00 0. -1.
         -5    1    3    3    0  503 -0.82718704829E+02 -0.11220036833E+03 -0.49638225408E+03  0.51560521618E+03  0.47000000000E+01 0.  1.
         11    1    4    4    0    0 -0.51058137823E+02  0.68542421638E+01 -0.25929839135E+03  0.26436635533E+03  0.00000000000E+00 0. -1.
        -12    1    4    4    0    0  0.11198299231E+02  0.98902547231E+01 -0.62826515688E+01  0.16207737501E+02  0.00000000000E+00 0.  1.
</event>
<event>
12    1  0.8135779E-002  0.1837348E+03  0.7818608E-02  0.1164788E+00
         21   -1    0    0  501  502  0.00000000000E+00  0.00000000000E+00  0.62965258305E+03  0.62965258305E+03  0.00000000000E+00 0.  1.
         21   -1    0    0  502  503 -0.00000000000E+00 -0.00000000000E+00 -0.52940622066E+02  0.52940622066E+02  0.00000000000E+00 0.  1.
         -6    2    1    2    0  503  0.39417854771E+02  0.53592906959E+02  0.29250613259E+03  0.34542480552E+03  0.17126731071E+03 0.  0.
        -24    2    3    3    0    0 -0.10565673379E+02  0.87680361496E+02  0.15792497834E+03  0.19779525319E+03  0.79894831841E+02 0.  0.
          6    2    1    2  501    0 -0.39417854771E+02 -0.53592906959E+02  0.28420582839E+03  0.33716839959E+03  0.16877087971E+03 0.  0.
         24    2    5    5    0    0  0.35600247589E+02 -0.33107975845E+02  0.21055957721E+03  0.22996201733E+03  0.78636366689E+02 0.  0.
          5    1    5    5  501    0 -0.75018102360E+02 -0.20484931115E+02  0.73646251184E+02  0.10720638226E+03  0.47000000000E+01 0. -1.
        -11    1    6    6    0    0  0.56299504739E+01 -0.36586678747E+02  0.18970916826E+03  0.19328696264E+03  0.00000000000E+00 0.  1.
         12    1    6    6    0    0  0.29970297115E+02  0.34787029023E+01  0.20850408946E+02  0.36675054686E+02  0.00000000000E+00 0. -1.
         -5    1    3    3    0  503  0.49983528151E+02 -0.34087454536E+02  0.13458115425E+03  0.14762955233E+03  0.47000000000E+01 0.  1.
         11    1    4    4    0    0 -0.18511886719E+02  0.21539870413E+02  0.11521355294E+03  0.11866262574E+03  0.00000000000E+00 0. -1.
        -12    1    4    4    0    0  0.79462133397E+01  0.66140491083E+02  0.42711425404E+02  0.79132627450E+02  0.00000000000E+00 0.  1.
</event>
<event>
12    1  0.8135779E-002  0.1819433E+03  0.7818608E-02  0.1166089E+00
         21   -1    0    0  503  502  0.00000000000E+00  0.00000000000E+00  0.27989203475E+03  0.27989203475E+03  0.00000000000E+00 0.  1.
         21   -1    0    0  501  503 -0.00000000000E+00 -0.00000000000E+00 -0.40704892009E+03  0.40704892009E+03  0.00000000000E+00 0.  1.
          6    2    1    2  501    0 -0.49147522937E+02 -0.27949976214E+02 -0.35311896848E+03  0.39723593540E+03  0.17293554374E+03 0.  0.
         24    2    3    3    0    0 -0.57204103812E+02  0.16149775838E+02 -0.33379385196E+03  0.34819262031E+03  0.79288337596E+02 0.  0.
         -6    2    1    2    0  502  0.49147522937E+02  0.27949976214E+02  0.22596208313E+03  0.28970501944E+03  0.17225984760E+03 0.  0.
        -24    2    5    5    0    0  0.54370360886E+00  0.17964815864E+02  0.27926446356E+02  0.85493760905E+02  0.78779861164E+02 0.  0.
          5    1    3    3  501    0  0.80565808750E+01 -0.44099752052E+02 -0.19325116522E+02  0.49043315090E+02  0.47000000000E+01 0. -1.
        -13    1    4    4    0    0 -0.47548650399E+02 -0.26709268302E+02 -0.20404975405E+03  0.21121212393E+03  0.00000000000E+00 0.  1.
         14    1    4    4    0    0 -0.96554534128E+01  0.42859044139E+02 -0.12974409790E+03  0.13698049637E+03  0.00000000000E+00 0. -1.
         -5    1    5    5    0  502  0.48603819328E+02  0.99851603501E+01  0.19803563678E+03  0.20421125854E+03  0.47000000000E+01 0.  1.
         11    1    6    6    0    0 -0.30862368250E+02 -0.15149532461E+02  0.17923031352E+02  0.38771499334E+02  0.00000000000E+00 0. -1.
        -12    1    6    6    0    0  0.31406071858E+02  0.33114348325E+02  0.10003415005E+02  0.46722261571E+02  0.00000000000E+00 0.  1.
</event>
<event>
12    1  0.8135779E-002  0.2003600E+03  0.7818608E-02  0.1149985E+00
         21   -1    0    0  501  502  0.00000000000E+00  0.00000000000E+00  0.13886922212E+03  0.13886922212E+03  0.00000000000E+00 0. -1.
         21   -1    0    0  502  503 -0.00000000000E+00 -0.00000000000E+00 -0.30121905920E+03  0.30121905920E+03  0.00000000000E+00 0. -1.
         -6    2    1    2    0  503 -0.94263083160E+02 -0.14649877100E+02 -0.13117536258E+03  0.23731749146E+03  0.17324106978E+03 0.  0.
        -24    2    3    3    0    0 -0.59212762678E+02  0.90490795150E+00  0.21241396695E+01  0.98532320765E+02  0.78721891133E+02 0.  0.
          6    2    1    2  501    0  0.94263083160E+02  0.14649877100E+02 -0.31174474495E+02  0.20277078986E+03  0.17619306915E+03 0.  0.
         24    2    5    5    0    0  0.12935292230E+03 -0.16336847842E+02 -0.21992971938E+02  0.15483474995E+03  0.80566977539E+02 0.  0.
          5    1    5    5  501    0 -0.35089839145E+02  0.30986724942E+02 -0.91815025577E+01  0.47936039918E+02  0.47000000000E+01 0. -1.
        -11    1    6    6    0    0  0.82648154898E+02 -0.49026635917E+02 -0.10367485776E+02  0.96653056334E+02  0.00000000000E+00 0.  1.
         12    1    6    6    0    0  0.46704767407E+02  0.32689788075E+02 -0.11625486162E+02  0.58181693611E+02  0.00000000000E+00 0. -1.
         -5    1    3    3    0  503 -0.35050320483E+02 -0.15554785051E+02 -0.13329950225E+03  0.13878517069E+03  0.47000000000E+01 0.  1.
         11    1    4    4    0    0 -0.63885775743E+02 -0.26606737899E+02 -0.60099289833E+01  0.69465315736E+02  0.00000000000E+00 0. -1.
        -12    1    4    4    0    0  0.46730130653E+01  0.27511645850E+02  0.81340686528E+01  0.29067005029E+02  0.00000000000E+00 0.  1.
</event>
<event>
12    1  0.8135779E-002  0.1716344E+03  0.7818608E-02  0.1176857E+00
         21   -1    0    0  503  502  0.00000000000E+00  0.00000000000E+00  0.61778152264E+02  0.61778152264E+02  0.00000000000E+00 0. -1.
         21   -1    0    0  501  503 -0.00000000000E+00 -0.00000000000E+00 -0.55883044210E+03  0.55883044210E+03  0.00000000000E+00 0. -1.
          6    2    1    2  501    0  0.73321951291E+01 -0.61266106729E+01 -0.12602199553E+03  0.21293170567E+03  0.17136823358E+03 0.  0.
         24    2    3    3    0    0 -0.45307670872E+02  0.27893825025E+02 -0.34338016626E+02  0.10177241670E+03  0.79672296944E+02 0.  0.
         -6    2    1    2    0  502 -0.73321951291E+01  0.61266106729E+01 -0.37103029431E+03  0.40767688869E+03  0.16865844134E+03 0.  0.
        -24    2    5    5    0    0 -0.32007748129E+02  0.30012251752E+02 -0.10752344371E+03  0.14189999527E+03  0.81541931020E+02 0.  0.
          5    1    3    3  501    0  0.52639866001E+02 -0.34020435698E+02 -0.91683978903E+02  0.11115928897E+03  0.47000000000E+01 0. -1.
        -13    1    4    4    0    0 -0.26129094644E+02 -0.24903216154E+02 -0.30993071476E+00  0.36097033379E+02  0.00000000000E+00 0.  1.
         14    1    4    4    0    0 -0.19178576227E+02  0.52797041178E+02 -0.34028085911E+02  0.65675383319E+02  0.00000000000E+00 0. -1.
         -5    1    5    5    0  502  0.24675553000E+02 -0.23885641079E+02 -0.26350685060E+03  0.26577689342E+03  0.47000000000E+01 0.  1.
         13    1    6    6    0    0  0.32098549984E+01 -0.16369635010E+02 -0.71503945903E+02  0.73423990624E+02  0.00000000000E+00 0. -1.
        -14    1    6    6    0    0 -0.35217603128E+02  0.46381886763E+02 -0.36019497805E+02  0.68476004643E+02  0.00000000000E+00 0.  1.
</event>
<event>
12    1  0.8135779E-002  0.1805966E+03  0.7818608E-02  0.1167364E+00
         21   -1    0    0  501  502  0.00000000000E+00  0.00000000000E+00  0.79138798395E+02  0.79138798395E+02  0.00000000000E+00 0.  1.
         21   -1    0    0  502  503 -0.00000000000E+00 -0.00000000000E+00 -0.60182907824E+03  0.60182907824E+03  0.00000000000E+00 0.  1.
         -6    2    1    2    0  503  0.13375365688E+02  0.53184010829E+02 -0.45343683690E+03  0.48807796971E+03  0.17206888171E+03 0.  0.
        -24    2    3    3    0    0  0.26926474265E+02  0.94763558864E+02 -0.39475355018E+03  0.41474101110E+03  0.80464736422E+02 0.  0.
          6    2    1    2  501    0 -0.13375365688E+02 -0.53184010829E+02 -0.69253442948E+02  0.19288990692E+03  0.17147313905E+03 0.  0.
         24    2    5    5    0    0  0.45554692113E+02 -0.53219821386E+02 -0.63762926900E+01  0.10658591501E+03  0.80076968025E+02 0.  0.
          5    1    5    5  501    0 -0.58930057801E+02  0.35810556862E-01 -0.62877150258E+02  0.86303991909E+02  0.47000000000E+01 0. -1.
        -11    1    6    6    0    0 -0.11537957995E+02 -0.34529912921E+02  0.19356657231E+02  0.41232505869E+02  0.00000000000E+00 0.  1.
         12    1    6    6    0    0  0.57092650107E+02 -0.18689908465E+02 -0.25732949921E+02  0.65353409141E+02  0.00000000000E+00 0. -1.
         -5    1    3    3    0  503 -0.13551108577E+02 -0.41579548034E+02 -0.58683286717E+02  0.73336958611E+02  0.47000000000E+01 0.  1.
         11    1    4    4    0    0  0.17553834958E+01 -0.63668531292E+01 -0.13068382537E+03  0.13085060337E+03  0.00000000000E+00 0. -1.
        -12    1    4    4    0    0  0.25171090770E+02  0.10113041199E+03 -0.26406972481E+03  0.28389040774E+03  0.00000000000E+00 0.  1.
</event>
<event>
12    1  0.8135779E-002  0.3052363E+03  0.7818608E-02  0.1082848E+00
         21   -1    0    0  503  502  0.00000000000E+00  0.00000000000E+00  0.26098218297E+03  0.26098218297E+03  0.00000000000E+00 0. -1.
         21   -1    0    0  501  503 -0.00000000000E+00 -0.00000000000E+00 -0.35637150204E+03  0.35637150204E+03  0.00000000000E+00 0. -1.
          6    2    1    2  501    0 -0.17196374305E+03 -0.18179207264E+03 -0.66065190979E+02  0.31230398996E+03  0.17478354067E+03 0.  0.
         24    2    3    3    0    0 -0.57400687398E+02 -0.10237893327E+02 -0.13322242475E+02  0.99326435330E+02  0.79300726587E+02 0.  0.
         -6    2    1    2    0  502  0.17196374305E+03  0.18179207264E+03 -0.29324128087E+02  0.30504969505E+03  0.17197536267E+03 0.  0.
        -24    2    5    5    0    0  0.19751719074E+03  0.15873418214E+03 -0.41696968415E+02  0.26817392820E+03  0.77259545537E+02 0.  0.
          5    1    3    3  501    0 -0.11456305565E+03 -0.17155417931E+03 -0.52742948504E+02  0.21297755463E+03  0.47000000000E+01 0. -1.
        -11    1    4    4    0    0 -0.76074213114E+02 -0.10141039092E+02 -0.20308356955E+02  0.79388638588E+02  0.00000000000E+00 0.  1.
         12    1    4    4    0    0  0.18673525715E+02 -0.96854235306E-01  0.69861144800E+01  0.19937796742E+02  0.00000000000E+00 0. -1.
         -5    1    5    5    0  502 -0.25553447685E+02  0.23057890496E+02  0.12372840328E+02  0.36875766846E+02  0.47000000000E+01 0.  1.
         11    1    6    6    0    0  0.13974873544E+03  0.13358501616E+03 -0.60245648452E+02  0.20249494749E+03  0.00000000000E+00 0. -1.
        -12    1    6    6    0    0  0.57768455300E+02  0.25149165979E+02  0.18548680037E+02  0.65678980719E+02  0.00000000000E+00 0.  1.
</event>
<event>
12    1  0.8135779E-002  0.2614437E+03  0.7818608E-02  0.1106361E+00
         21   -1    0    0  501  502  0.00000000000E+00  0.00000000000E+00  0.66688177444E+02  0.66688177444E+02  0.00000000000E+00 0.  1.
         21   -1    0    0  502  503 -0.00000000000E+00 -0.00000000000E+00 -0.10245350811E+04  0.10245350811E+04  0.00000000000E+00 0.  1.
         -6    2    1    2    0  503  0.12705733567E+03 -0.14964780742E+03 -0.50178471110E+03  0.56580979649E+03  0.17266961717E+03 0.  0.
        -24    2    3    3    0    0  0.11005779704E+03 -0.86254477061E+02 -0.45996803166E+03  0.48784555259E+03  0.82886304785E+02 0.  0.
          6    2    1    2  501    0 -0.12705733567E+03  0.14964780742E+03 -0.45606219258E+03  0.52541346208E+03  0.17183873201E+03 0.  0.
         24    2    5    5    0    0 -0.85568154966E+02  0.17578892836E+03 -0.36927233177E+03  0.42561726847E+03  0.81020662366E+02 0.  0.
          5    1    5    5  501    0 -0.41489180709E+02 -0.26141120937E+02 -0.86789860818E+02  0.99796193617E+02  0.47000000000E+01 0. -1.
        -13    1    6    6    0    0 -0.53508689466E+02  0.52189210090E+02 -0.80374226017E+02  0.10975841519E+03  0.00000000000E+00 0.  1.
         14    1    6    6    0    0 -0.32059465500E+02  0.12359971827E+03 -0.28889810575E+03  0.31585885327E+03  0.00000000000E+00 0. -1.
         -5    1    3    3    0  503  0.16999538631E+02 -0.63393330363E+02 -0.41816679433E+02  0.77964243901E+02  0.47000000000E+01 0.  1.
         13    1    4    4    0    0  0.40905796810E+02 -0.82967316768E+01 -0.51478366705E+02  0.66273239002E+02  0.00000000000E+00 0. -1.
        -14    1    4    4    0    0  0.69152000234E+02 -0.77957745384E+02 -0.40848966496E+03  0.42157231358E+03  0.00000000000E+00 0.  1.
</event>
<event>
12    1  0.8135779E-002  0.4108159E+03  0.7818608E-02  0.1040442E+00
         21   -1    0    0  501  502  0.00000000000E+00  0.00000000000E+00  0.19923886615E+03  0.19923886615E+03  0.00000000000E+00 0. -1.
         21   -1    0    0  502  503 -0.00000000000E+00 -0.00000000000E+00 -0.19117804356E+04  0.19117804356E+04  0.00000000000E+00 0.  1.
         -6    2    1    2    0  503  0.31429127531E+03  0.19931853676E+03 -0.16489572121E+04  0.16993615329E+04  0.17396220074E+03 0.  0.
        -24    2    3    3    0    0  0.13471903650E+03  0.12742868622E+03 -0.60808983504E+03  0.64066359381E+03  0.79305132859E+02 0.  0.
          6    2    1    2  501    0 -0.31429127531E+03 -0.19931853676E+03 -0.63584357355E+02  0.41165776886E+03  0.16404957582E+03 0.  0.
         24    2    5    5    0    0 -0.23662389600E+03 -0.19811073202E+03 -0.13463726267E+02  0.31909509678E+03  0.80010490355E+02 0.  0.
          5    1    5    5  501    0 -0.77667379312E+02 -0.12078047488E+01 -0.50120631089E+02  0.92562672078E+02  0.47000000000E+01 0. -1.
        -13    1    6    6    0    0 -0.12335290428E+03 -0.13359423255E+03  0.24127624596E+02  0.18342709787E+03  0.00000000000E+00 0.  1.
         14    1    6    6    0    0 -0.11327099172E+03 -0.64516499465E+02 -0.37591350862E+02  0.13566799891E+03  0.00000000000E+00 0. -1.
         -5    1    3    3    0  503  0.17957223881E+03  0.71889850543E+02 -0.10408673770E+04  0.10586979391E+04  0.47000000000E+01 0.  1.
         11    1    4    4    0    0  0.89794698500E+02  0.30497556648E+02 -0.29002778210E+03  0.30513817072E+03  0.00000000000E+00 0. -1.
        -12    1    4    4    0    0  0.44924337998E+02  0.96931129574E+02 -0.31806205294E+03  0.33552542309E+03  0.00000000000E+00 0.  1.
</event>
<event>
12    1  0.8135779E-002  0.2092590E+03  0.7818608E-02  0.1142277E+00
         21   -1    0    0  501  502  0.00000000000E+00  0.00000000000E+00  0.55344548769E+03  0.55344548769E+03  0.00000000000E+00 0.  1.
         21   -1    0    0  502  503 -0.00000000000E+00 -0.00000000000E+00 -0.13360475499E+03  0.13360475499E+03  0.00000000000E+00 0.  1.
         -6    2    1    2    0  503 -0.11325840367E+03  0.36095638486E+02 -0.97374922431E+01  0.20948542365E+03  0.17221777739E+03 0.  0.
        -24    2    3    3    0    0 -0.10874750331E+03 -0.28077064344E+02 -0.30852453521E+02  0.14161484387E+03  0.80551530701E+02 0.  0.
          6    2    1    2  501    0  0.11325840367E+03 -0.36095638486E+02  0.42957822495E+03  0.47756481902E+03  0.17146528482E+03 0.  0.
         24    2    5    5    0    0  0.13618936541E+03 -0.25604428281E+02  0.25350749054E+03  0.29963537229E+03  0.79449220075E+02 0.  0.
          5    1    5    5  501    0 -0.22930961741E+02 -0.10491210205E+02  0.17607073441E+03  0.17792944673E+03  0.47000000000E+01 0. -1.
        -13    1    6    6    0    0  0.12713999903E+03 -0.47750193546E+02  0.21523053333E+03  0.25449723538E+03  0.00000000000E+00 0.  1.
         14    1    6    6    0    0  0.90493663842E+01  0.22145765265E+02  0.38276957202E+02  0.45138136911E+02  0.00000000000E+00 0. -1.
         -5    1    3    3    0  503 -0.45109003679E+01  0.64172702831E+02  0.21114961278E+02  0.67870579786E+02  0.47000000000E+01 0.  1.
         13    1    4    4    0    0 -0.22151111862E+02 -0.39780060041E+02  0.75709262006E+01  0.46156731439E+02  0.00000000000E+00 0. -1.
        -14    1    4    4    0    0 -0.86596391445E+02  0.11702995697E+02 -0.38423379721E+02  0.95458112430E+02  0.00000000000E+00 0.  1.
</event>
<event>
12    1  0.8135779E-002  0.2560537E+03  0.7818608E-02  0.1109566E+00
         21   -1    0    0  501  502  0.00000000000E+00  0.00000000000E+00  0.99948256488E+02  0.99948256488E+02  0.00000000000E+00 0.  1.
         21   -1    0    0  502  503 -0.00000000000E+00 -0.00000000000E+00 -0.65551237792E+03  0.65551237792E+03  0.00000000000E+00 0. -1.
         -6    2    1    2    0  503  0.17944990610E+03  0.60579459521E+02 -0.27628677811E+03  0.37656841689E+03  0.17203851057E+03 0.  0.
        -24    2    3    3    0    0  0.31973198514E+02 -0.50008344953E+01 -0.14647161808E+03  0.16938680569E+03  0.78680755394E+02 0.  0.
          6    2    1    2  501    0 -0.17944990610E+03 -0.60579459521E+02 -0.27927734332E+03  0.37889221753E+03  0.17231174740E+03 0.  0.
         24    2    5    5    0    0 -0.45883637201E+02 -0.33800621439E+01 -0.47216271932E+02  0.10505622628E+03  0.81796707521E+02 0.  0.
          5    1    5    5  501    0 -0.13356626890E+03 -0.57199397377E+02 -0.23206107139E+03  0.27383599125E+03  0.47000000000E+01 0. -1.
        -13    1    6    6    0    0 -0.22113174808E+02  0.39196699891E+02 -0.24842659496E+02  0.51405559167E+02  0.00000000000E+00 0.  1.
         14    1    6    6    0    0 -0.23770462394E+02 -0.42576762035E+02 -0.22373612436E+02  0.53650667109E+02  0.00000000000E+00 0. -1.
         -5    1    3    3    0  503  0.14747670759E+03  0.65580294016E+02 -0.12981516003E+03  0.20718161120E+03  0.47000000000E+01 0.  1.
         11    1    4    4    0    0 -0.23650584703E+02  0.11661771727E+02 -0.55784921021E+02  0.61703358822E+02  0.00000000000E+00 0. -1.
        -12    1    4    4    0    0  0.55623783217E+02 -0.16662606222E+02 -0.90686697061E+02  0.10768344687E+03  0.00000000000E+00 0.  1.
</event>
<event>
12    1  0.8135779E-002  0.1822931E+03  0.7818608E-02  0.1165744E+00
         21   -1    0    0  503  502  0.00000000000E+00  0.00000000000E+00  0.79630036791E+02  0.79630036791E+02  0.00000000000E+00 0. -1.
         21   -1    0    0  501  503 -0.00000000000E+00 -0.00000000000E+00 -0.98776360649E+03  0.98776360649E+03  0.00000000000E+00 0.  1.
          6    2    1    2  501    0 -0.58032159508E+02 -0.10493782543E+02 -0.85981798595E+03  0.87880632125E+03  0.17185962378E+03 0.  0.
         24    2    3    3    0    0 -0.10485155372E+03  0.11679574944E+01 -0.60705888040E+03  0.62144022539E+03  0.81683884710E+02 0.  0.
         -6    2    1    2    0  502  0.58032159508E+02  0.10493782543E+02 -0.48315583752E+02  0.18858732204E+03  0.17249038058E+03 0.  0.
        -24    2    5    5    0    0 -0.18821880400E+02  0.42126152285E+02 -0.51287708600E+02  0.10529222139E+03  0.79543365182E+02 0.  0.
          5    1    3    3  501    0  0.46819394212E+02 -0.11661740037E+02 -0.25275910555E+03  0.25736609585E+03  0.47000000000E+01 0. -1.
        -11    1    4    4    0    0 -0.48368894015E+02  0.25214852469E+01 -0.47936308362E+03  0.48180377099E+03  0.00000000000E+00 0.  1.
         12    1    4    4    0    0 -0.56482659704E+02 -0.13535277525E+01 -0.12769579678E+03  0.13963645441E+03  0.00000000000E+00 0. -1.
         -5    1    5    5    0  502  0.76854039908E+02 -0.31632369742E+02  0.29721248484E+01  0.83295100647E+02  0.47000000000E+01 0.  1.
         13    1    6    6    0    0 -0.25103371349E+02 -0.14409820290E+02 -0.36873221607E+00  0.28947506582E+02  0.00000000000E+00 0. -1.
        -14    1    6    6    0    0  0.62814909490E+01  0.56535972575E+02 -0.50918976384E+02  0.76344714811E+02  0.00000000000E+00 0.  1.
</event>
<event>
12    1  0.8135779E-002  0.1871569E+03  0.7818608E-02  0.1161426E+00
         21   -1    0    0  503  502  0.00000000000E+00  0.00000000000E+00  0.71020640158E+03  0.71020640158E+03  0.00000000000E+00 0. -1.
         21   -1    0    0  501  503 -0.00000000000E+00 -0.00000000000E+00 -0.52169854820E+02  0.52169854820E+02  0.00000000000E+00 0.  1.
          6    2    1    2  501    0  0.24350611330E+02  0.66647702053E+02  0.42319910645E+03  0.46208254616E+03  0.17142907367E+03 0.  0.
         24    2    3    3    0    0  0.98381938843E+01  0.23019201966E+02  0.77676141017E+02  0.11348210737E+03  0.78853865421E+02 0.  0.
         -6    2    1    2    0  502 -0.24350611330E+02 -0.66647702053E+02  0.23483744031E+03  0.30029371025E+03  0.17318435432E+03 0.  0.
        -24    2    5    5    0    0  0.56094926127E+01  0.16445859071E+02  0.17612061373E+03  0.19412448941E+03  0.79774144442E+02 0.  0.
          5    1    3    3  501    0  0.14512417445E+02  0.43628500087E+02  0.34552296543E+03  0.34860043879E+03  0.47000000000E+01 0. -1.
        -13    1    4    4    0    0  0.36276533679E+02  0.36426630788E+02  0.37874039468E+02  0.63853967707E+02  0.00000000000E+00 0.  1.
         14    1    4    4    0    0 -0.26438339795E+02 -0.13407428822E+02  0.39802101549E+02  0.49628139663E+02  0.00000000000E+00 0. -1.
         -5    1    5    5    0  502 -0.29960103942E+02 -0.83093561124E+02  0.58716826582E+02  0.10616922083E+03  0.47000000000E+01 0.  1.
         11    1    6    6    0    0 -0.32586710753E+01  0.43212886114E+02  0.56390031599E+02  0.71118268590E+02  0.00000000000E+00 0. -1.
        -12    1    6    6    0    0  0.88681636880E+01 -0.26767027043E+02  0.11973058213E+03  0.12300622082E+03  0.00000000000E+00 0.  1.
</event>
<event>
12    1  0.8135779E-002  0.2523632E+03  0.7818608E-02  0.1111884E+00
         21   -1    0    0  503  502  0.00000000000E+00  0.00000000000E+00  0.74815748217E+03  0.74815748217E+03  0.00000000000E+00 0.  1.
         21   -1    0    0  501  503 -0.00000000000E+00 -0.00000000000E+00 -0.18046266458E+03  0.18046266458E+03  0.00000000000E+00 0.  1.
          6    2    1    2  501    0 -0.11549925030E+03  0.14368230985E+03 -0.53765343146E+02  0.25802695095E+03  0.17234416819E+03 0.  0.
         24    2    3    3    0    0  0.22807610623E+02  0.58968744668E+02 -0.34521059944E+02  0.94632923088E+02  0.61369264314E+02 0.  0.
         -6    2    1    2    0  502  0.11549925030E+03 -0.14368230985E+03  0.62146016074E+03  0.67059319580E+03  0.17174929369E+03 0.  0.
        -24    2    5    5    0    0  0.30036772298E+02 -0.46920700806E+02  0.13158668033E+03  0.16397227150E+03  0.80424446071E+02 0.  0.
          5    1    3    3  501    0 -0.13830686092E+03  0.84713565185E+02 -0.19244283203E+02  0.16339402786E+03  0.47000000000E+01 0. -1.
        -11    1    4    4    0    0 -0.19289846543E+02  0.55107111849E+01 -0.83415002926E+01  0.21726636752E+02  0.00000000000E+00 0.  1.
         12    1    4    4    0    0  0.42097457167E+02  0.53458033483E+02 -0.26179559651E+02  0.72906286336E+02  0.00000000000E+00 0. -1.
         -5    1    5    5    0  502  0.85462478004E+02 -0.96761609047E+02  0.48987348041E+03  0.50662092430E+03  0.47000000000E+01 0.  1.
         13    1    6    6    0    0  0.20470809190E+01 -0.99482225182E+01  0.11388378912E+03  0.11433579971E+03  0.00000000000E+00 0. -1.
        -14    1    6    6    0    0  0.27989691379E+02 -0.36972478287E+02  0.17702891210E+02  0.49636471786E+02  0.00000000000E+00 0.  1.
</event>
<event>
12    1  0.8135779E-002  0.1796062E+03  0.7818608E-02  0.1168513E+00
         21   -1    0    0  501  502  0.00000000000E+00  0.00000000000E+00  0.42509949334E+02  0.42509949334E+02  0.00000000000E+00 0.  1.
         21   -1    0    0  502  503 -0.00000000000E+00 -0.00000000000E+00 -0.89113115464E+03  0.89113115464E+03  0.00000000000E+00 0.  1.
         -6    2    1    2    0  503 -0.49243161058E+02  0.19310071128E+01 -0.60933982322E+03  0.63525853816E+03  0.17271297707E+03 0.  0.
        -24    2    3    3    0    0 -0.33176954015E+02 -0.62169417209E+02 -0.28256140828E+03  0.30183206969E+03  0.79346720986E+02 0.  0.
          6    2    1    2  501    0  0.49243161058E+02 -0.19310071128E+01 -0.23928138209E+03  0.29838256581E+03  0.17131245742E+03 0.  0.
         24    2    5    5    0    0  0.20798553455E+02 -0.51752005821E+02 -0.21499235426E+03  0.23590637445E+03  0.79493743054E+02 0.  0.
          5    1    5    5  501    0  0.28444607603E+02  0.49820998708E+02 -0.24289027826E+02  0.62476191358E+02  0.47000000000E+01 0. -1.
        -13    1    6    6    0    0 -0.28837434075E+02 -0.27451088481E+02 -0.67067693411E+02  0.77995098322E+02  0.00000000000E+00 0.  1.
         14    1    6    6    0    0  0.49635987531E+02 -0.24300917340E+02 -0.14792466085E+03  0.15791127613E+03  0.00000000000E+00 0. -1.
         -5    1    3    3    0  503 -0.16066207043E+02  0.64100424322E+02 -0.32677841494E+03  0.33342646847E+03  0.47000000000E+01 0.  1.
         11    1    4    4    0    0  0.80415045793E+01 -0.12762065192E+02 -0.35483636466E+01  0.15496031377E+02  0.00000000000E+00 0. -1.
        -12    1    4    4    0    0 -0.41218458594E+02 -0.49407352017E+02 -0.27901304463E+03  0.28633603831E+03  0.00000000000E+00 0.  1.
</event>
<event>
12    1  0.8135779E-002  0.2025328E+03  0.7818608E-02  0.1148171E+00
         21   -1    0    0  503  502  0.00000000000E+00  0.00000000000E+00  0.63742339333E+03  0.63742339333E+03  0.00000000000E+00 0.  1.
         21   -1    0    0  501  503 -0.00000000000E+00 -0.00000000000E+00 -0.11035613698E+03  0.11035613698E+03  0.00000000000E+00 0. -1.
          6    2    1    2  501    0  0.84368114812E+02 -0.34642041171E+02  0.20945904558E+02  0.20361306583E+03  0.18083556024E+03 0.  0.
         24    2    3    3    0    0  0.85237446782E+02  0.37787915739E+02 -0.12952929674E+02  0.12350017450E+03  0.79944767206E+02 0.  0.
         -6    2    1    2    0  502 -0.84368114812E+02  0.34642041171E+02  0.50612135179E+03  0.54416646448E+03  0.17787711632E+03 0.  0.
        -24    2    5    5    0    0  0.46772341405E+01  0.61713233838E+02  0.19464981458E+03  0.21905335779E+03  0.79154428150E+02 0.  0.
          5    1    3    3  501    0 -0.86933196974E+00 -0.72429956910E+02  0.33898834233E+02  0.80112891337E+02  0.47000000000E+01 0. -1.
        -13    1    4    4    0    0 -0.61580923101E+01  0.24899916407E+02 -0.17560716952E+02  0.31085474387E+02  0.00000000000E+00 0.  1.
         14    1    4    4    0    0  0.91395539092E+02  0.12887999332E+02  0.46077872776E+01  0.92414700109E+02  0.00000000000E+00 0. -1.
         -5    1    5    5    0  502 -0.89045348953E+02 -0.27071192668E+02  0.31147153722E+03  0.32511310669E+03  0.47000000000E+01 0.  1.
         11    1    6    6    0    0  0.14875606852E+02  0.72162699112E+01  0.14078667489E+03  0.14175417474E+03  0.00000000000E+00 0. -1.
        -12    1    6    6    0    0 -0.10198372711E+02  0.54496963927E+02  0.53863139686E+02  0.77299183049E+02  0.00000000000E+00 0.  1.
</event>
<event>
12    1  0.8135779E-002  0.1985714E+03  0.7818608E-02  0.1151237E+00
         21   -1    0    0  503  502  0.00000000000E+00  0.00000000000E+00  0.10441279218E+04  0.10441279218E+04  0.00000000000E+00 0. -1.
         21   -1    0    0  501  503 -0.00000000000E+00 -0.00000000000E+00 -0.37157635419E+03  0.37157635419E+03  0.00000000000E+00 0. -1.
          6    2    1    2  501    0 -0.59477509297E+02  0.78007676703E+02 -0.33501414668E+03  0.38875770453E+03  0.17110027064E+03 0.  0.
         24    2    3    3    0    0 -0.81011722312E+02 -0.24061734751E+01 -0.18954789376E+03  0.22108948938E+03  0.79896617347E+02 0.  0.
         -6    2    1    2    0  502  0.59477509297E+02 -0.78007676703E+02  0.10075657143E+04  0.10269465715E+04  0.17264941432E+03 0.  0.
        -24    2    5    5    0    0  0.28145060695E+02  0.16149908202E+02  0.66729594168E+03  0.67247092873E+03  0.76683193906E+02 0.  0.
          5    1    3    3  501    0  0.21534213015E+02  0.80413850178E+02 -0.14546625292E+03  0.16766821514E+03  0.47000000000E+01 0. -1.
        -11    1    4    4    0    0 -0.12400098481E+02  0.17121186753E+02 -0.29805375952E+01  0.21349030014E+02  0.00000000000E+00 0.  1.
         12    1    4    4    0    0 -0.68611623831E+02 -0.19527360228E+02 -0.18656735617E+03  0.19974045937E+03  0.00000000000E+00 0. -1.
         -5    1    5    5    0  502  0.31332448602E+02 -0.94157584904E+02  0.34026977263E+03  0.35447564274E+03  0.47000000000E+01 0.  1.
         13    1    6    6    0    0  0.16028642316E+02 -0.24696711341E+02  0.45444384872E+03  0.45539659262E+03  0.00000000000E+00 0. -1.
        -14    1    6    6    0    0  0.12116418379E+02  0.40846619542E+02  0.21285209296E+03  0.21707433612E+03  0.00000000000E+00 0.  1.
</event>
<event>
12    1  0.8135779E-002  0.2078012E+03  0.7818608E-02  0.1143994E+00
         21   -1    0    0  501  502  0.00000000000E+00  0.00000000000E+00  0.10886000852E+04  0.10886000852E+04  0.00000000000E+00 0. -1.
         21   -1    0    0  502  503 -0.00000000000E+00 -0.00000000000E+00 -0.43720845425E+02  0.43720845425E+02  0.00000000000E+00 0.  1.
         -6    2    1    2    0  503  0.85099782570E+02 -0.67819473677E+02  0.71158453985E+03  0.74130553515E+03  0.17703074616E+03 0.  0.
        -24    2    3    3    0    0  0.52249349036E+02  0.32654175324E+02  0.38026553382E+03  0.39350030390E+03  0.80276542766E+02 0.  0.
          6    2    1    2  501    0 -0.85099782570E+02  0.67819473677E+02  0.33329469993E+03  0.39101539547E+03  0.17310756337E+03 0.  0.
         24    2    5    5    0    0 -0.41007451941E+02 -0.18186127905E+02  0.86887099685E+02  0.12628932464E+03  0.79920454599E+02 0.  0.
          5    1    5    5  501    0 -0.44092330630E+02  0.86005601582E+02  0.24640760024E+03  0.26472607083E+03  0.47000000000E+01 0. -1.
        -11    1    6    6    0    0  0.96015836904E-01 -0.24229261651E+02  0.80733237321E+02  0.84290699057E+02  0.00000000000E+00 0.  1.
         12    1    6    6    0    0 -0.41103467778E+02  0.60431337460E+01  0.61538623644E+01  0.41998625582E+02  0.00000000000E+00 0. -1.
         -5    1    3    3    0  503  0.32850433535E+02 -0.10047364900E+03  0.33131900603E+03  0.34780523125E+03  0.47000000000E+01 0.  1.
         13    1    4    4    0    0  0.50382075014E+02  0.47561271378E+02  0.36692319714E+03  0.37340736551E+03  0.00000000000E+00 0. -1.
        -14    1    4    4    0    0  0.18672740216E+01 -0.14907096054E+02  0.13342336673E+02  0.20092938384E+02  0.00000000000E+00 0.  1.
</event>
<event>
12    1  0.8135779E-002  0.2046901E+03  0.7818608E-02  0.1146118E+00
         21   -1    0    0  501  502  0.00000000000E+00  0.00000000000E+00  0.19598983084E+03  0.19598983084E+03  0.00000000000E+00 0. -1.
         21   -1    0    0  502  503 -0.00000000000E+00 -0.00000000000E+00 -0.37024826814E+03  0.37024826814E+03  0.00000000000E+00 0. -1.
         -6    2    1    2    0  503 -0.38990301418E+02  0.10144452640E+03 -0.27216979937E+03  0.34055017993E+03  0.17345544044E+03 0.  0.
        -24    2    3    3    0    0  0.21975862779E+02  0.10729807362E+03 -0.14010070264E+03  0.19489485561E+03  0.79749499775E+02 0.  0.
          6    2    1    2  501    0  0.38990301418E+02 -0.10144452640E+03  0.97911362061E+02  0.22568791905E+03  0.17186380202E+03 0.  0.
         24    2    5    5    0    0  0.72075500656E+02 -0.11371827153E+03  0.10543065452E+03  0.18930241387E+03  0.81197647200E+02 0.  0.
          5    1    5    5  501    0 -0.33085199237E+02  0.12273745132E+02 -0.75192924589E+01  0.36385505180E+02  0.47000000000E+01 0. -1.
        -11    1    6    6    0    0  0.47454885881E+02 -0.44057968142E+02  0.54472897858E+01  0.64982641658E+02  0.00000000000E+00 0.  1.
         12    1    6    6    0    0  0.24620614775E+02 -0.69660303389E+02  0.99983364734E+02  0.12431977222E+03  0.00000000000E+00 0. -1.
         -5    1    3    3    0  503 -0.60966164197E+02 -0.58535472256E+01 -0.13206909672E+03  0.14565532431E+03  0.47000000000E+01 0.  1.
         11    1    4    4    0    0  0.35652839276E+01  0.10806564777E+03 -0.13944926175E+03  0.17645677114E+03  0.00000000000E+00 0. -1.
        -12    1    4    4    0    0  0.18410578851E+02 -0.76757414759E+00 -0.65144088998E+00  0.18438084471E+02  0.00000000000E+00 0.  1.
</event>
<event>
12    1  0.8135779E-002  0.1983025E+03  0.7818608E-02  0.1154448E+00
         21   -1    0    0  503  502  0.00000000000E+00  0.00000000000E+00  0.31802614529E+02  0.31802614529E+02  0.00000000000E+00 0. -1.
         21   -1    0    0  501  503 -0.00000000000E+00 -0.00000000000E+00 -0.11468188026E+04  0.11468188026E+04  0.00000000000E+00 0. -1.
          6    2    1    2  501    0 -0.76933572854E+02  0.58775981807E+02 -0.56888433228E+03  0.60245602359E+03  0.17306208762E+03 0.  0.
         24    2    3    3    0    0 -0.66378362906E+02  0.72486564276E+01 -0.16314177789E+03  0.19329152346E+03  0.79295291581E+02 0.  0.
         -6    2    1    2    0  502  0.76933572854E+02 -0.58775981807E+02 -0.54613185582E+03  0.57616539357E+03  0.15599091685E+03 0.  0.
        -24    2    5    5    0    0  0.11208057633E+03 -0.50674109568E+02 -0.40471655291E+03  0.43014714100E+03  0.78109882477E+02 0.  0.
          5    1    3    3  501    0 -0.10555209948E+02  0.51527325380E+02 -0.40574255439E+03  0.40916450012E+03  0.47000000000E+01 0. -1.
        -13    1    4    4    0    0 -0.74132923889E+02  0.16317604181E+02 -0.83842747877E+02  0.11309978330E+03  0.00000000000E+00 0.  1.
         14    1    4    4    0    0  0.77545609826E+01 -0.90689477537E+01 -0.79299030015E+02  0.80191740165E+02  0.00000000000E+00 0. -1.
         -5    1    5    5    0  502 -0.35147003477E+02 -0.81018722390E+01 -0.14141530291E+03  0.14601825257E+03  0.47000000000E+01 0.  1.
         11    1    6    6    0    0  0.11361947474E+03 -0.52755973248E+02 -0.29621271952E+03  0.32161242663E+03  0.00000000000E+00 0. -1.
        -12    1    6    6    0    0 -0.15388984078E+01  0.20818636795E+01 -0.10850383339E+03  0.10853471437E+03  0.00000000000E+00 0.  1.
</event>
<event>
12    1  0.8135779E-002  0.2937943E+03  0.7818608E-02  0.1088497E+00
         21   -1    0    0  501  502  0.00000000000E+00  0.00000000000E+00  0.34571242660E+03  0.34571242660E+03  0.00000000000E+00 0.  1.
         21   -1    0    0  502  503 -0.00000000000E+00 -0.00000000000E+00 -0.37402702650E+03  0.37402702650E+03  0.00000000000E+00 0.  1.
         -6    2    1    2    0  503  0.15417904462E+02  0.23719476946E+03 -0.22226356889E+03  0.36770065439E+03  0.17118296279E+03 0.  0.
        -24    2    3    3    0    0  0.63451974068E+02  0.19930255932E+03 -0.20526946154E+03  0.30402977316E+03  0.80937555943E+02 0.  0.
          6    2    1    2  501    0 -0.15417904462E+02 -0.23719476946E+03  0.19394896899E+03  0.35203879872E+03  0.17267322546E+03 0.  0.
         24    2    5    5    0    0 -0.82773045438E+01 -0.16704819056E+03  0.20946015149E+03  0.27969090669E+03  0.79873878587E+02 0.  0.
          5    1    5    5  501    0 -0.71405999185E+01 -0.70146578898E+02 -0.15511182503E+02  0.72347892028E+02  0.47000000000E+01 0. -1.
        -11    1    6    6    0    0  0.40517207762E+01 -0.13270230271E+03  0.10570396382E+03  0.16970458318E+03  0.00000000000E+00 0.  1.
         12    1    6    6    0    0 -0.12329025320E+02 -0.34345887850E+02  0.10375618768E+03  0.10998632351E+03  0.00000000000E+00 0. -1.
         -5    1    3    3    0  503 -0.48034069606E+02  0.37892210141E+02 -0.16994107347E+02  0.63670881231E+02  0.47000000000E+01 0.  1.
         13    1    4    4    0    0  0.61173604580E+01  0.40167212104E+02 -0.35621197208E+01  0.40786219781E+02  0.00000000000E+00 0. -1.
        -14    1    4    4    0    0  0.57334613610E+02  0.15913534722E+03 -0.20170734182E+03  0.26324355338E+03  0.00000000000E+00 0.  1.
</event>
<event>
12    1  0.8135779E-002  0.1761783E+03  0.7818608E-02  0.1172503E+00
         21   -1    0    0  503  502  0.00000000000E+00  0.00000000000E+00  0.19517623995E+03  0.19517623995E+03  0.00000000000E+00 0.  1.
         21   -1    0    0  501  503 -0.00000000000E+00 -0.00000000000E+00 -0.16113506798E+03  0.16113506798E+03  0.00000000000E+00 0.  1.
          6    2    1    2  501    0  0.28740092016E+01 -0.94475234513E+01 -0.16045326713E+02  0.17315171604E+03  0.17212364343E+03 0.  0.
         24    2    3    3    0    0  0.10417220032E+01 -0.35045778290E+02  0.50101483114E+02  0.10204532830E+03  0.81693320757E+02 0.  0.
         -6    2    1    2    0  502 -0.28740092016E+01  0.94475234513E+01  0.50086498678E+02  0.18315959189E+03  0.17590128801E+03 0.  0.
        -24    2    5    5    0    0  0.19750704659E+02  0.20097310696E+02 -0.37550117147E+02  0.91904114913E+02  0.79008624900E+02 0.  0.
          5    1    3    3  501    0  0.18322871984E+01  0.25598254838E+02 -0.66146809826E+02  0.71106387739E+02  0.47000000000E+01 0. -1.
        -13    1    4    4    0    0 -0.35433858046E+02 -0.32613126851E+02  0.12827881303E+02  0.49837023163E+02  0.00000000000E+00 0.  1.
         14    1    4    4    0    0  0.36475580049E+02 -0.24326514382E+01  0.37273601811E+02  0.52208305133E+02  0.00000000000E+00 0. -1.
         -5    1    5    5    0  502 -0.22624713861E+02 -0.10649787245E+02  0.87636615825E+02  0.91255476980E+02  0.47000000000E+01 0.  1.
         13    1    6    6    0    0 -0.20675554912E+02 -0.18028277185E+02 -0.62792176724E+01  0.28141178436E+02  0.00000000000E+00 0. -1.
        -14    1    6    6    0    0  0.40426259572E+02  0.38125587881E+02 -0.31270899474E+02  0.63762936477E+02  0.00000000000E+00 0.  1.
</event>
<event>
12    1  0.8135779E-002  0.2001005E+03  0.7818608E-02  0.1149742E+00
         21   -1    0    0  503  502  0.00000000000E+00  0.00000000000E+00  0.16778756908E+03  0.16778756908E+03  0.00000000000E+00 0. -1.
         21   -1    0    0  501  503 -0.00000000000E+00 -0.00000000000E+00 -0.33245904169E+03  0.33245904169E+03  0.00000000000E+00 0.  1.
          6    2    1    2  501    0  0.79200551878E+02  0.64624662865E+02 -0.21561912602E+03  0.29416289774E+03  0.17202072093E+03 0.  0.
         24    2    3    3    0    0  0.99822623168E+02 -0.24363298205E+01 -0.12441721628E+03  0.17900072988E+03  0.81185748702E+02 0.  0.
         -6    2    1    2    0  502 -0.79200551878E+02 -0.64624662865E+02  0.50947653407E+02  0.20608371303E+03  0.17153938009E+03 0.  0.
        -24    2    5    5    0    0 -0.11434124758E+02 -0.96380100571E+02  0.41460552351E+02  0.13050070201E+03  0.76756711949E+02 0.  0.
          5    1    3    3  501    0 -0.20622071290E+02  0.67060992685E+02 -0.91201909742E+02  0.11516216785E+03  0.47000000000E+01 0. -1.
        -13    1    4    4    0    0  0.41493702263E+02  0.39045756315E+02 -0.51007709690E+02  0.76472772027E+02  0.00000000000E+00 0.  1.
         14    1    4    4    0    0  0.58328920905E+02 -0.41482086135E+02 -0.73409506591E+02  0.10252795786E+03  0.00000000000E+00 0. -1.
         -5    1    5    5    0  502 -0.67766427120E+02  0.31755437706E+02  0.94871010560E+01  0.75583011021E+02  0.47000000000E+01 0.  1.
         11    1    6    6    0    0 -0.26036086201E+02 -0.28273847210E+01  0.21146338508E+02  0.33660652420E+02  0.00000000000E+00 0. -1.
        -12    1    6    6    0    0  0.14601961442E+02 -0.93552715850E+02  0.20314213843E+02  0.96840049592E+02  0.00000000000E+00 0.  1.
</event>
<event>
12    1  0.8135779E-002  0.2713220E+03  0.7818608E-02  0.1101449E+00
         21   -1    0    0  501  502  0.00000000000E+00  0.00000000000E+00  0.16009831261E+03  0.16009831261E+03  0.00000000000E+00 0. -1.
         21   -1    0    0  502  503 -0.00000000000E+00 -0.00000000000E+00 -0.75883349923E+03  0.75883349923E+03  0.00000000000E+00 0. -1.
         -6    2    1    2    0  503 -0.20054976792E+03  0.35123317757E+01 -0.79100928480E+01  0.27143729211E+03  0.18271039404E+03 0.  0.
        -24    2    3    3    0    0 -0.16657548578E+03 -0.30466909800E+02  0.45369328780E+02  0.19953717059E+03  0.95294708137E+02 0.  0.
          6    2    1    2  501    0  0.20054976792E+03 -0.35123317757E+01 -0.59082509378E+03  0.64749451974E+03  0.17303848059E+03 0.  0.
         24    2    5    5    0    0  0.20856294080E+03  0.34585773081E+02 -0.50616235184E+03  0.55419100208E+03  0.78947225408E+02 0.  0.
          5    1    5    5  501    0 -0.80131728815E+01 -0.38098104857E+02 -0.84662741940E+02  0.93303517651E+02  0.47000000000E+01 0. -1.
        -13    1    6    6    0    0  0.14648768338E+03 -0.13345325971E+02 -0.33965966959E+03  0.37014244589E+03  0.00000000000E+00 0.  1.
         14    1    6    6    0    0  0.62075257424E+02  0.47931099052E+02 -0.16650268225E+03  0.18404855619E+03  0.00000000000E+00 0. -1.
         -5    1    3    3    0  503 -0.33974282140E+02  0.33979241575E+02 -0.53279421628E+02  0.71900121516E+02  0.47000000000E+01 0.  1.
         13    1    4    4    0    0 -0.90540976297E+02  0.28775919274E+02  0.53021409119E+01  0.95151640118E+02  0.00000000000E+00 0. -1.
        -14    1    4    4    0    0 -0.76034509483E+02 -0.59242829074E+02  0.40067187868E+02  0.10438553048E+03  0.00000000000E+00 0.  1.
</event>
<event>
12    1  0.8135779E-002  0.1799549E+03  0.7818608E-02  0.1168980E+00
         21   -1    0    0  501  502  0.00000000000E+00  0.00000000000E+00  0.25410842198E+02  0.25410842198E+02  0.00000000000E+00 0.  1.
         21   -1    0    0  502  503 -0.00000000000E+00 -0.00000000000E+00 -0.18324418196E+04  0.18324418196E+04  0.00000000000E+00 0. -1.
         -6    2    1    2    0  503  0.23813186973E+02 -0.27656973458E+02 -0.14228621483E+04  0.14336245725E+04  0.17149561444E+03 0.  0.
        -24    2    3    3    0    0  0.33903290214E+02 -0.73618085162E+02 -0.12214795942E+04  0.12267640952E+04  0.79804076918E+02 0.  0.
          6    2    1    2  501    0 -0.23813186973E+02  0.27656973458E+02 -0.38416882903E+03  0.42422808922E+03  0.17621522758E+03 0.  0.
         24    2    5    5    0    0 -0.59980072913E+02  0.34245860365E+02 -0.37000362623E+03  0.38455189939E+03  0.78785098877E+02 0.  0.
          5    1    5    5  501    0  0.36166885940E+02 -0.65888869063E+01 -0.14165202809E+02  0.39676189836E+02  0.47000000000E+01 0. -1.
        -13    1    6    6    0    0  0.19249836381E+02  0.11149524864E+02 -0.78293405553E+02  0.81392416468E+02  0.00000000000E+00 0.  1.
         14    1    6    6    0    0 -0.79229909294E+02  0.23096335501E+02 -0.29171022067E+03  0.30315948292E+03  0.00000000000E+00 0. -1.
         -5    1    3    3    0  503 -0.10090103241E+02  0.45961111703E+02 -0.20138255410E+03  0.20686047730E+03  0.47000000000E+01 0.  1.
         13    1    4    4    0    0  0.47673476090E+02 -0.27009813945E+02 -0.89624899824E+03  0.89792235590E+03  0.00000000000E+00 0. -1.
        -14    1    4    4    0    0 -0.13770185876E+02 -0.46608271216E+02 -0.32523059598E+03  0.32884173933E+03  0.00000000000E+00 0.  1.
</event>
<event>
12    1  0.8135779E-002  0.2439670E+03  0.7818608E-02  0.1117233E+00
         21   -1    0    0  503  502  0.00000000000E+00  0.00000000000E+00  0.10738034141E+03  0.10738034141E+03  0.00000000000E+00 0.  1.
         21   -1    0    0  501  503 -0.00000000000E+00 -0.00000000000E+00 -0.60816190145E+03  0.60816190145E+03  0.00000000000E+00 0. -1.
          6    2    1    2  501    0 -0.14220178281E+03 -0.99602196091E+02 -0.35746458502E+03  0.43259412300E+03  0.17092337819E+03 0.  0.
         24    2    3    3    0    0 -0.54591019429E+02 -0.40349490615E+02 -0.28737025852E+03  0.30562234041E+03  0.78835833743E+02 0.  0.
         -6    2    1    2    0  502  0.14220178281E+03  0.99602196091E+02 -0.14331697501E+03  0.28294811986E+03  0.17139993787E+03 0.  0.
        -24    2    5    5    0    0  0.11967619372E+03  0.13728277801E+03 -0.10718252991E+03  0.22589536759E+03  0.79822740496E+02 0.  0.
          5    1    3    3  501    0 -0.87610763386E+02 -0.59252705476E+02 -0.70094326506E+02  0.12697178260E+03  0.47000000000E+01 0. -1.
        -13    1    4    4    0    0 -0.55686888392E+00  0.11145109813E+02 -0.29100292005E+01  0.11532209053E+02  0.00000000000E+00 0.  1.
         14    1    4    4    0    0 -0.54034150545E+02 -0.51494600428E+02 -0.28446022932E+03  0.29409013135E+03  0.00000000000E+00 0. -1.
         -5    1    5    5    0  502  0.22525589095E+02 -0.37680581922E+02 -0.36134445106E+02  0.57052752266E+02  0.47000000000E+01 0.  1.
         11    1    6    6    0    0  0.72440268215E+02  0.25177635436E+02 -0.49356660858E+02  0.91200799099E+02  0.00000000000E+00 0. -1.
        -12    1    6    6    0    0  0.47235925505E+02  0.11210514258E+03 -0.57825869048E+02  0.13469456849E+03  0.00000000000E+00 0.  1.
</event>
<event>
12    1  0.8135779E-002  0.1994292E+03  0.7818608E-02  0.1150939E+00
         21   -1    0    0  503  502  0.00000000000E+00  0.00000000000E+00  0.29260422606E+03  0.29260422606E+03  0.00000000000E+00 0. -1.
         21   -1    0    0  501  503 -0.00000000000E+00 -0.00000000000E+00 -0.15405865437E+03  0.15405865437E+03  0.00000000000E+00 0. -1.
          6    2    1    2  501    0 -0.30298523987E+02 -0.96211870554E+02  0.15107557445E+03  0.25019159464E+03  0.17203860102E+03 0.  0.
         24    2    3    3    0    0  0.38997623503E+02 -0.32173748954E+02  0.31720112600E+02  0.97972498111E+02  0.77694787998E+02 0.  0.
         -6    2    1    2    0  502  0.30298523987E+02  0.96211870554E+02 -0.12530002763E+02  0.19647128578E+03  0.16813459066E+03 0.  0.
        -24    2    5    5    0    0  0.81009713901E+01  0.28241319240E+02  0.53052196645E+02  0.99333023156E+02  0.78672206468E+02 0.  0.
          5    1    3    3  501    0 -0.69296147490E+02 -0.64038121600E+02  0.11935546185E+03  0.15221909653E+03  0.47000000000E+01 0. -1.
        -13    1    4    4    0    0 -0.20720839096E+01 -0.41281035938E+02  0.37126772243E+02  0.55559109757E+02  0.00000000000E+00 0.  1.
         14    1    4    4    0    0  0.41069707412E+02  0.91072869841E+01 -0.54066596422E+01  0.42413388354E+02  0.00000000000E+00 0. -1.
         -5    1    5    5    0  502  0.22197552597E+02  0.67970551314E+02 -0.65582199409E+02  0.97138262628E+02  0.47000000000E+01 0.  1.
         13    1    6    6    0    0 -0.42608385370E+01 -0.15962734852E+02 -0.11496961764E+02  0.20128183694E+02  0.00000000000E+00 0. -1.
        -14    1    6    6    0    0  0.12361809927E+02  0.44204054092E+02  0.64549158410E+02  0.79204839462E+02  0.00000000000E+00 0.  1.
</event>
<event>
12    1  0.8135779E-002  0.2012038E+03  0.7818608E-02  0.1151002E+00
         21   -1    0    0  501  502  0.00000000000E+00  0.00000000000E+00  0.25403555805E+03  0.25403555805E+03  0.00000000000E+00 0.  1.
         21   -1    0    0  502  503 -0.00000000000E+00 -0.00000000000E+00 -0.16948198697E+03  0.16948198697E+03  0.00000000000E+00 0.  1.
         -6    2    1    2    0  503 -0.94489016836E+02 -0.48143844474E+02 -0.28442123520E+02  0.19275577523E+03  0.15842926002E+03 0.  0.
        -24    2    3    3    0    0 -0.61494516848E+02 -0.41489389929E+02  0.39415865044E+02  0.11686298633E+03  0.81242858624E+02 0.  0.
          6    2    1    2  501    0  0.94489016836E+02  0.48143844474E+02  0.11299569460E+03  0.23076176979E+03  0.17098819648E+03 0.  0.
         24    2    5    5    0    0 -0.31665033522E+01  0.47049935685E+02  0.87809664838E+02  0.12979532311E+03  0.83141839480E+02 0.  0.
          5    1    5    5  501    0  0.97655520188E+02  0.10939087890E+01  0.25186029761E+02  0.10096644668E+03  0.47000000000E+01 0. -1.
        -13    1    6    6    0    0 -0.40753089536E+02  0.11277616258E+02  0.50611287810E+02  0.65950749722E+02  0.00000000000E+00 0.  1.
         14    1    6    6    0    0  0.37586586184E+02  0.35772319426E+02  0.37198377028E+02  0.63844573392E+02  0.00000000000E+00 0. -1.
         -5    1    3    3    0  503 -0.32994499988E+02 -0.66544545451E+01 -0.67857988565E+02  0.75892788899E+02  0.47000000000E+01 0.  1.
         11    1    4    4    0    0 -0.44553433224E+02 -0.50029282238E+02 -0.63777781315E+01  0.67294974160E+02  0.00000000000E+00 0. -1.
        -12    1    4    4    0    0 -0.16941083623E+02  0.85398923091E+01  0.45793643176E+02  0.49568012168E+02  0.00000000000E+00 0.  1.
</event>
<event>
12    1  0.8135779E-002  0.1923494E+03  0.7818608E-02  0.1156681E+00
         21   -1    0    0  503  502  0.00000000000E+00  0.00000000000E+00  0.36745989894E+02  0.36745989894E+02  0.00000000000E+00 0.  1.
         21   -1    0    0  501  503 -0.00000000000E+00 -0.00000000000E+00 -0.99993466456E+03  0.99993466456E+03  0.00000000000E+00 0. -1.
          6    2    1    2  501    0  0.80431643840E+02  0.24183143323E+02 -0.49253425799E+03  0.52823806072E+03  0.17143914300E+03 0.  0.
         24    2    3    3    0    0  0.10895605657E+03  0.11932348156E+02 -0.47192029580E+03  0.49067811475E+03  0.77733155827E+02 0.  0.
         -6    2    1    2    0  502 -0.80431643840E+02 -0.24183143323E+02 -0.47065441668E+03  0.50844259373E+03  0.17304397543E+03 0.  0.
        -24    2    5    5    0    0 -0.13839232558E+02  0.37509773158E+02 -0.35840506185E+03  0.36400377331E+03  0.49457569581E+02 0.  0.
          5    1    3    3  501    0 -0.28524412731E+02  0.12250795167E+02 -0.20613962185E+02  0.37559945965E+02  0.47000000000E+01 0. -1.
        -13    1    4    4    0    0  0.94709359789E+02 -0.13573999404E+02 -0.26575868112E+03  0.28245670975E+03  0.00000000000E+00 0.  1.
         14    1    4    4    0    0  0.14246696782E+02  0.25506347560E+02 -0.20616161468E+03  0.20822140500E+03  0.00000000000E+00 0. -1.
         -5    1    5    5    0  502 -0.66592411282E+02 -0.61692916481E+02 -0.11224935483E+03  0.14443882042E+03  0.47000000000E+01 0.  1.
         13    1    6    6    0    0 -0.20403503201E+02  0.10188118248E+02 -0.58545512827E+02  0.62830548052E+02  0.00000000000E+00 0. -1.
        -14    1    6    6    0    0  0.65642706435E+01  0.27321654910E+02 -0.29985954902E+03  0.30117322526E+03  0.00000000000E+00 0.  1.
</event>
<event>
12    1  0.8135779E-002  0.1920302E+03  0.7818608E-02  0.1156701E+00
         21   -1    0    0  503  502  0.00000000000E+00  0.00000000000E+00  0.71708108507E+02  0.71708108507E+02  0.00000000000E+00 0.  1.
         21   -1    0    0  501  503 -0.00000000000E+00 -0.00000000000E+00 -0.51537268241E+03  0.51537268241E+03  0.00000000000E+00 0. -1.
          6    2    1    2  501    0 -0.45584437952E+02  0.71682667405E+02 -0.20451292864E+03  0.28053719667E+03  0.17221856736E+03 0.  0.
         24    2    3    3    0    0 -0.37026687506E+01 -0.26308332071E+02 -0.94498190376E+02  0.12729995836E+03  0.81052657708E+02 0.  0.
         -6    2    1    2    0  502  0.45584437952E+02 -0.71682667405E+02 -0.23915164527E+03  0.30654359425E+03  0.17192765907E+03 0.  0.
        -24    2    5    5    0    0  0.18257703166E+02  0.17738504508E+02 -0.55346553326E+02  0.10026878182E+03  0.79640375282E+02 0.  0.
          5    1    3    3  501    0 -0.41881769202E+02  0.97990999477E+02 -0.11001473826E+03  0.15323723831E+03  0.47000000000E+01 0. -1.
        -13    1    4    4    0    0 -0.18382220327E+01  0.26394316871E+02 -0.11242685005E+02  0.28747817125E+02  0.00000000000E+00 0.  1.
         14    1    4    4    0    0 -0.18644467178E+01 -0.52702648943E+02 -0.83255505371E+02  0.98552141234E+02  0.00000000000E+00 0. -1.
         -5    1    5    5    0  502  0.27326734786E+02 -0.89421171914E+02 -0.18380509194E+03  0.20627481243E+03  0.47000000000E+01 0.  1.
         11    1    6    6    0    0 -0.16827839124E+02 -0.40709540239E+01 -0.56345171716E+02  0.58945120340E+02  0.00000000000E+00 0. -1.
        -12    1    6    6    0    0  0.35085542290E+02  0.21809458532E+02  0.99861838983E+00  0.41323661478E+02  0.00000000000E+00 0.  1.
</event>
<event>
12    1  0.8135779E-002  0.2255446E+03  0.7818608E-02  0.1130031E+00
         21   -1    0    0  503  502  0.00000000000E+00  0.00000000000E+00  0.33322730917E+03  0.33322730917E+03  0.00000000000E+00 0. -1.
         21   -1    0    0  501  503 -0.00000000000E+00 -0.00000000000E+00 -0.15628080069E+03  0.15628080069E+03  0.00000000000E+00 0. -1.
          6    2    1    2  501    0  0.90798088668E+02  0.11169721845E+03  0.47520051554E+02  0.23049622784E+03  0.17363696102E+03 0.  0.
         24    2    3    3    0    0 -0.10147712262E+02  0.40881552858E+02 -0.20813724477E+02  0.89441245067E+02  0.76106818120E+02 0.  0.
         -6    2    1    2    0  502 -0.90798088668E+02 -0.11169721845E+03  0.12942645693E+03  0.25901188202E+03  0.17209121349E+03 0.  0.
        -24    2    5    5    0    0  0.36821661616E+01 -0.15875102649E+02  0.16518936027E+02  0.83288819494E+02  0.79991093088E+02 0.  0.
          5    1    3    3  501    0  0.10094580093E+03  0.70815665587E+02  0.68333776031E+02  0.14105498277E+03  0.47000000000E+01 0. -1.
        -11    1    4    4    0    0  0.70705539586E+01 -0.20047886848E+02  0.36398013599E+01  0.21567537047E+02  0.00000000000E+00 0.  1.
         12    1    4    4    0    0 -0.17218266220E+02  0.60929439706E+02 -0.24453525837E+02  0.67873708020E+02  0.00000000000E+00 0. -1.
         -5    1    5    5    0  502 -0.94480254830E+02 -0.95822115796E+02  0.11290752090E+03  0.17572306253E+03  0.47000000000E+01 0.  1.
         13    1    6    6    0    0  0.97988754603E+01  0.11001833550E+02  0.42762648110E+02  0.45229441464E+02  0.00000000000E+00 0. -1.
        -14    1    6    6    0    0 -0.61167092988E+01 -0.26876936199E+02 -0.26243712083E+02  0.38059378030E+02  0.00000000000E+00 0.  1.
</event>
<event>
12    1  0.8135779E-002  0.2254262E+03  0.7818608E-02  0.1129916E+00
         21   -1    0    0  503  502  0.00000000000E+00  0.00000000000E+00  0.48941742971E+02  0.48941742971E+02  0.00000000000E+00 0. -1.
         21   -1    0    0  501  503 -0.00000000000E+00 -0.00000000000E+00 -0.19342765986E+04  0.19342765986E+04  0.00000000000E+00 0. -1.
          6    2    1    2  501    0  0.13812333333E+03 -0.44350570898E+02 -0.16177789393E+04  0.16334092191E+04  0.17254550694E+03 0.  0.
         24    2    3    3    0    0  0.12243246418E+03 -0.41417889170E+02 -0.74014374225E+03  0.75561628608E+03  0.80237539699E+02 0.  0.
         -6    2    1    2    0  502 -0.13812333333E+03  0.44350570898E+02 -0.26755591628E+03  0.34980912251E+03  0.17243904867E+03 0.  0.
        -24    2    5    5    0    0 -0.11311388051E+03 -0.32351271163E+02 -0.14574434998E+03  0.20362843640E+03  0.79885980321E+02 0.  0.
          5    1    3    3  501    0  0.15690869155E+02 -0.29326817274E+01 -0.87763519710E+03  0.87779293298E+03  0.47000000000E+01 0. -1.
        -13    1    4    4    0    0  0.85573050557E+02 -0.45090388546E+02 -0.66324520809E+03  0.67026121489E+03  0.00000000000E+00 0.  1.
         14    1    4    4    0    0  0.36859413618E+02  0.36724993760E+01 -0.76898534156E+02  0.85355071198E+02  0.00000000000E+00 0. -1.
         -5    1    5    5    0  502 -0.25009452824E+02  0.76701842061E+02 -0.12181156630E+03  0.14618068610E+03  0.47000000000E+01 0.  1.
         11    1    6    6    0    0  0.10025155676E+02 -0.53690772881E+01 -0.60677536654E+00  0.11388543085E+02  0.00000000000E+00 0. -1.
        -12    1    6    6    0    0 -0.12313903618E+03 -0.26982193875E+02 -0.14513757461E+03  0.19223989332E+03  0.00000000000E+00 0.  1.
</event>
<event>
12    1  0.8135779E-002  0.1833173E+03  0.7818608E-02  0.1164673E+00
         21   -1    0    0  503  502  0.00000000000E+00  0.00000000000E+00  0.29071991609E+03  0.29071991609E+03  0.00000000000E+00 0.  1.
         21   -1    0    0  501  503 -0.00000000000E+00 -0.00000000000E+00 -0.12122147003E+03  0.12122147003E+03  0.00000000000E+00 0.  1.
          6    2    1    2  501    0  0.32167752908E+02 -0.55521658843E+02  0.39888256933E+02  0.18743296927E+03  0.17153024807E+03 0.  0.
         24    2    3    3    0    0 -0.20729815341E+02 -0.87849818631E+02  0.27964059620E+02  0.12412784212E+03  0.80488612127E+02 0.  0.
         -6    2    1    2    0  502 -0.32167752908E+02  0.55521658843E+02  0.12961018913E+03  0.22450841685E+03  0.17172014786E+03 0.  0.
        -24    2    5    5    0    0  0.20732505809E+02  0.50056937390E+02  0.14009329958E+03  0.17009990504E+03  0.79826758224E+02 0.  0.
          5    1    3    3  501    0  0.52897568248E+02  0.32328159788E+02  0.11924197313E+02  0.63305127149E+02  0.47000000000E+01 0. -1.
        -11    1    4    4    0    0  0.11063424131E+02 -0.31383940235E+02 -0.24029844192E+02  0.41046126127E+02  0.00000000000E+00 0.  1.
         12    1    4    4    0    0 -0.31793239472E+02 -0.56465878396E+02  0.51993903812E+02  0.83081715996E+02  0.00000000000E+00 0. -1.
         -5    1    5    5    0  502 -0.52900258717E+02  0.54647214536E+01 -0.10483110447E+02  0.54408511811E+02  0.47000000000E+01 0.  1.
         13    1    6    6    0    0  0.18747249233E+01  0.17317321099E+02 -0.65940750039E+01  0.18624876610E+02  0.00000000000E+00 0. -1.
        -14    1    6    6    0    0  0.18857780886E+02  0.32739616291E+02  0.14668737459E+03  0.15147502843E+03  0.00000000000E+00 0.  1.
</event>
<event>
12    1  0.8135779E-002  0.2328254E+03  0.7818608E-02  0.1124718E+00
         21   -1    0    0  503  502  0.00000000000E+00  0.00000000000E+00  0.22928828912E+03  0.22928828912E+03  0.00000000000E+00 0.  1.
         21   -1    0    0  501  503 -0.00000000000E+00 -0.00000000000E+00 -0.23874803663E+03  0.23874803663E+03  0.00000000000E+00 0. -1.
          6    2    1    2  501    0  0.12917000874E+03 -0.89258655468E+02  0.19826478149E+02  0.23337628675E+03  0.17152085369E+03 0.  0.
         24    2    3    3    0    0  0.52177787983E+02 -0.78908131627E+02  0.65581368551E+02  0.14309597109E+03  0.85008977442E+02 0.  0.
         -6    2    1    2    0  502 -0.12917000874E+03  0.89258655468E+02 -0.29286225658E+02  0.23466003900E+03  0.17191757372E+03 0.  0.
        -24    2    5    5    0    0 -0.67244726811E+02  0.93902435661E+02 -0.73749867108E+02  0.15813938396E+03  0.78927188941E+02 0.  0.
          5    1    3    3  501    0  0.76992220755E+02 -0.10350523841E+02 -0.45754890402E+02  0.90280315664E+02  0.47000000000E+01 0. -1.
        -13    1    4    4    0    0  0.10981868902E+02 -0.60018920904E+02  0.75125585312E+02  0.96781846849E+02  0.00000000000E+00 0.  1.
         14    1    4    4    0    0  0.41195919081E+02 -0.18889210723E+02 -0.95442167613E+01  0.46314124241E+02  0.00000000000E+00 0. -1.
         -5    1    5    5    0  502 -0.61925281927E+02 -0.46437801928E+01  0.44463641450E+02  0.76520655037E+02  0.47000000000E+01 0.  1.
         13    1    6    6    0    0 -0.24456690839E+02  0.21344563126E+01 -0.47609723550E+02  0.53566513859E+02  0.00000000000E+00 0. -1.
        -14    1    6    6    0    0 -0.42788035972E+02  0.91767979348E+02 -0.26140143558E+02  0.10457287010E+03  0.00000000000E+00 0.  1.
</event>
<event>
12    1  0.8135779E-002  0.1932238E+03  0.7818608E-02  0.1155710E+00
         21   -1    0    0  501  502  0.00000000000E+00  0.00000000000E+00  0.46882360401E+03  0.46882360401E+03  0.00000000000E+00 0.  1.
         21   -1    0    0  502  503 -0.00000000000E+00 -0.00000000000E+00 -0.79639163007E+02  0.79639163007E+02  0.00000000000E+00 0.  1.
         -6    2    1    2    0  503 -0.32996656311E+02  0.77700862070E+02  0.20921932619E+03  0.28441186270E+03  0.17317961167E+03 0.  0.
        -24    2    3    3    0    0 -0.30534922243E+02 -0.12655721005E+02  0.15535997434E+03  0.17908716464E+03  0.82722077841E+02 0.  0.
          6    2    1    2  501    0  0.32996656311E+02 -0.77700862070E+02  0.17996511481E+03  0.26405090431E+03  0.17380803844E+03 0.  0.
         24    2    5    5    0    0  0.50463440900E+02 -0.11576546712E+03  0.12517719540E+03  0.19492920848E+03  0.79874049759E+02 0.  0.
          5    1    5    5  501    0 -0.17466784589E+02  0.38064605053E+02  0.54787919407E+02  0.69121695832E+02  0.47000000000E+01 0. -1.
        -13    1    6    6    0    0 -0.29781191236E+01 -0.27897512240E+02  0.75841156333E+02  0.80864215675E+02  0.00000000000E+00 0.  1.
         14    1    6    6    0    0  0.53441560023E+02 -0.87867954882E+02  0.49336039067E+02  0.11406499281E+03  0.00000000000E+00 0. -1.
         -5    1    3    3    0  503 -0.24617340678E+01  0.90356583074E+02  0.53859351853E+02  0.10532469806E+03  0.47000000000E+01 0.  1.
         11    1    4    4    0    0  0.19566355276E+00 -0.44546199189E+02  0.71236973377E+02  0.84018501071E+02  0.00000000000E+00 0. -1.
        -12    1    4    4    0    0 -0.30730585796E+02  0.31890478184E+02  0.84123000964E+02  0.95068663572E+02  0.00000000000E+00 0.  1.
</event>
<event>
12    1  0.8135779E-002  0.1741856E+03  0.7818608E-02  0.1173684E+00
         21   -1    0    0  503  502  0.00000000000E+00  0.00000000000E+00  0.24486973836E+03  0.24486973836E+03  0.00000000000E+00 0. -1.
         21   -1    0    0  501  503 -0.00000000000E+00 -0.00000000000E+00 -0.12947908238E+03  0.12947908238E+03  0.00000000000E+00 0. -1.
          6    2    1    2  501    0 -0.24273909684E+02  0.12532681757E+02  0.17673299698E+02  0.17507993630E+03  0.17203007810E+03 0.  0.
         24    2    3    3    0    0 -0.20817867038E+02  0.75988963566E+02  0.72130368275E+01  0.11050322973E+03  0.77144213714E+02 0.  0.
         -6    2    1    2    0  502  0.24273909684E+02 -0.12532681757E+02  0.97717356280E+02  0.19926888443E+03  0.17150252413E+03 0.  0.
        -24    2    5    5    0    0  0.71243883206E+02  0.10217523029E+02  0.25168184718E+02  0.10977462470E+03  0.78974312507E+02 0.  0.
          5    1    3    3  501    0 -0.34560426465E+01 -0.63456281809E+02  0.10460262871E+02  0.64576706568E+02  0.47000000000E+01 0. -1.
        -13    1    4    4    0    0 -0.33406501340E+02  0.77614533914E+00 -0.30600542834E+01  0.33555337364E+02  0.00000000000E+00 0.  1.
         14    1    4    4    0    0  0.12588634303E+02  0.75212818227E+02  0.10273091111E+02  0.76947892370E+02  0.00000000000E+00 0. -1.
         -5    1    5    5    0  502 -0.46969973521E+02 -0.22750204786E+02  0.72549171562E+02  0.89494259730E+02  0.47000000000E+01 0.  1.
         13    1    6    6    0    0  0.37869982584E+02  0.96886980912E+01 -0.27236611942E+02  0.47642832427E+02  0.00000000000E+00 0. -1.
        -14    1    6    6    0    0  0.33373900621E+02  0.52882493771E+00  0.52404796660E+02  0.62131792277E+02  0.00000000000E+00 0.  1.
</event>
<event>
12    1  0.8135779E-002  0.1886669E+03  0.7818608E-02  0.1159687E+00
         21   -1    0    0  501  502  0.00000000000E+00  0.00000000000E+00  0.18507255212E+03  0.18507255212E+03  0.00000000000E+00 0.  1.
         21   -1    0    0  502  503 -0.00000000000E+00 -0.00000000000E+00 -0.19924773108E+03  0.19924773108E+03  0.00000000000E+00 0.  1.
         -6    2    1    2    0  503 -0.70916829709E+02 -0.31448067398E+02 -0.43093166865E+02  0.19352576466E+03  0.17197971647E+03 0.  0.
        -24    2    3    3    0    0 -0.19809317915E+02  0.13807872543E+02  0.34195607066E+02  0.90299205878E+02  0.80009628291E+02 0.  0.
          6    2    1    2  501    0  0.70916829709E+02  0.31448067398E+02  0.28917987896E+02  0.19079451854E+03  0.17189566778E+03 0.  0.
         24    2    5    5    0    0  0.80099622804E+02  0.55021252099E+02  0.69022047365E+02  0.14314533899E+03  0.79267000048E+02 0.  0.
          5    1    5    5  501    0 -0.91827930949E+01 -0.23573184701E+02 -0.40104059469E+02  0.47649179551E+02  0.47000000000E+01 0. -1.
        -11    1    6    6    0    0  0.92082909833E+02  0.62448336646E+02  0.60013738553E+02  0.12641481657E+03  0.00000000000E+00 0.  1.
         12    1    6    6    0    0 -0.11983287029E+02 -0.74270845463E+01  0.90083088116E+01  0.16730522422E+02  0.00000000000E+00 0. -1.
         -5    1    3    3    0  503 -0.51107511794E+02 -0.45255939941E+02 -0.77288773931E+02  0.10322655878E+03  0.47000000000E+01 0.  1.
         13    1    4    4    0    0 -0.37226187142E+02 -0.19182731395E+02  0.32403230005E+02  0.52950311686E+02  0.00000000000E+00 0. -1.
        -14    1    4    4    0    0  0.17416869227E+02  0.32990603938E+02  0.17923770608E+01  0.37348894192E+02  0.00000000000E+00 0.  1.
</event>
<event>
12    1  0.8135779E-002  0.2268583E+03  0.7818608E-02  0.1128934E+00
         21   -1    0    0  501  502  0.00000000000E+00  0.00000000000E+00  0.10631266551E+04  0.10631266551E+04  0.00000000000E+00 0.  1.
         21   -1    0    0  502  503 -0.00000000000E+00 -0.00000000000E+00 -0.50715153867E+02  0.50715153867E+02  0.00000000000E+00 0.  1.
         -6    2    1    2    0  503  0.14700137315E+03 -0.10943571838E+02  0.62652007111E+03  0.66620705693E+03  0.17197464271E+03 0.  0.
        -24    2    3    3    0    0  0.13569883875E+03  0.36137011893E+02  0.54557333186E+03  0.57176769415E+03  0.97713751178E+02 0.  0.
          6    2    1    2  501    0 -0.14700137315E+03  0.10943571838E+02  0.38589143012E+03  0.44763475203E+03  0.17243987332E+03 0.  0.
         24    2    5    5    0    0 -0.16572115953E+03 -0.19335743242E+02  0.27890611883E+03  0.33478434593E+03  0.80340285515E+02 0.  0.
          5    1    5    5  501    0  0.18719786388E+02  0.30279315080E+02  0.10698531129E+03  0.11285040609E+03  0.47000000000E+01 0. -1.
        -11    1    6    6    0    0 -0.46256290682E+02 -0.36482316756E+02  0.55886923779E+02  0.81203153344E+02  0.00000000000E+00 0.  1.
         12    1    6    6    0    0 -0.11946486885E+03  0.17146573515E+02  0.22301919505E+03  0.25358119259E+03  0.00000000000E+00 0. -1.
         -5    1    3    3    0  503  0.11302534394E+02 -0.47080583731E+02  0.80946739244E+02  0.94439362780E+02  0.47000000000E+01 0.  1.
         13    1    4    4    0    0  0.81339748558E+02 -0.28155194895E+02  0.24796110902E+03  0.26247586800E+03  0.00000000000E+00 0. -1.
        -14    1    4    4    0    0  0.54359090195E+02  0.64292206787E+02  0.29761222284E+03  0.30929182615E+03  0.00000000000E+00 0.  1.
</event>
<event>
12    1  0.8135779E-002  0.3128566E+03  0.7818608E-02  0.1078998E+00
         21   -1    0    0  501  502  0.00000000000E+00  0.00000000000E+00  0.84688458811E+02  0.84688458811E+02  0.00000000000E+00 0. -1.
         21   -1    0    0  502  503 -0.00000000000E+00 -0.00000000000E+00 -0.24778217101E+04  0.24778217101E+04  0.00000000000E+00 0.  1.
         -6    2    1    2    0  503 -0.20475151989E+03 -0.16115934775E+03 -0.21325082352E+04  0.21553189994E+04  0.17295402839E+03 0.  0.
        -24    2    3    3    0    0 -0.21621422851E+03 -0.11158394118E+03 -0.16469658258E+04  0.16670950386E+04  0.86659493571E+02 0.  0.
          6    2    1    2  501    0  0.20475151989E+03  0.16115934775E+03 -0.26062501606E+03  0.40719116943E+03  0.17315810464E+03 0.  0.
         24    2    5    5    0    0  0.41646250048E+02  0.86134984385E+02 -0.74078967103E+02  0.14824425879E+03  0.85644738422E+02 0.  0.
          5    1    5    5  501    0  0.16310526984E+03  0.75024363363E+02 -0.18654604896E+03  0.25894691064E+03  0.47000000000E+01 0. -1.
        -11    1    6    6    0    0 -0.10736444535E+02  0.28519641604E+02  0.11472277167E+02  0.32561546982E+02  0.00000000000E+00 0.  1.
         12    1    6    6    0    0  0.52382694583E+02  0.57615342782E+02 -0.85551244269E+02  0.11568271181E+03  0.00000000000E+00 0. -1.
         -5    1    3    3    0  503  0.11462708621E+02 -0.49575406570E+02 -0.48554240942E+03  0.48822396088E+03  0.47000000000E+01 0.  1.
         13    1    4    4    0    0 -0.13092274904E+03 -0.69482045573E+02 -0.70950967590E+03  0.72482584189E+03  0.00000000000E+00 0. -1.
        -14    1    4    4    0    0 -0.85291479474E+02 -0.42101895605E+02 -0.93745614987E+03  0.94226919668E+03  0.00000000000E+00 0.  1.
</event>
<event>
12    1  0.8135779E-002  0.2573980E+03  0.7818608E-02  0.1108923E+00
         21   -1    0    0  501  502  0.00000000000E+00  0.00000000000E+00  0.53655352687E+03  0.53655352687E+03  0.00000000000E+00 0.  1.
         21   -1    0    0  502  503 -0.00000000000E+00 -0.00000000000E+00 -0.13269247546E+03  0.13269247546E+03  0.00000000000E+00 0.  1.
         -6    2    1    2    0  503  0.35802240211E+02  0.18755205571E+03  0.11021884171E+03  0.27875977723E+03  0.17059087411E+03 0.  0.
        -24    2    3    3    0    0 -0.30241968803E+02  0.54443148340E+02  0.41724181700E+02  0.11507279786E+03  0.87305259809E+02 0.  0.
          6    2    1    2  501    0 -0.35802240211E+02 -0.18755205571E+03  0.29364220970E+03  0.39048622509E+03  0.17261567328E+03 0.  0.
         24    2    5    5    0    0 -0.62010694877E+02 -0.14119579472E+03  0.28852379278E+03  0.33678264774E+03  0.79968706936E+02 0.  0.
          5    1    5    5  501    0  0.26208454666E+02 -0.46356260991E+02  0.51184169213E+01  0.53703577356E+02  0.47000000000E+01 0. -1.
        -13    1    6    6    0    0 -0.11916977204E+02 -0.11464719189E+03  0.16993220257E+03  0.20533617904E+03  0.00000000000E+00 0.  1.
         14    1    6    6    0    0 -0.50093717673E+02 -0.26548602830E+02  0.11859159021E+03  0.13144646869E+03  0.00000000000E+00 0. -1.
         -5    1    3    3    0  503  0.66044209014E+02  0.13310890737E+03  0.68494660013E+02  0.16368697938E+03  0.47000000000E+01 0.  1.
         13    1    4    4    0    0 -0.26959537410E+01 -0.22939406597E+02  0.18836860413E+02  0.29804560923E+02  0.00000000000E+00 0. -1.
        -14    1    4    4    0    0 -0.27546015062E+02  0.77382554938E+02  0.22887321287E+02  0.85268236936E+02  0.00000000000E+00 0.  1.
</event>
<event>
12    1  0.8135779E-002  0.1812333E+03  0.7818608E-02  0.1166644E+00
         21   -1    0    0  503  502  0.00000000000E+00  0.00000000000E+00  0.74234386596E+02  0.74234386596E+02  0.00000000000E+00 0. -1.
         21   -1    0    0  501  503 -0.00000000000E+00 -0.00000000000E+00 -0.65518055034E+03  0.65518055034E+03  0.00000000000E+00 0. -1.
          6    2    1    2  501    0  0.24256719101E+01 -0.55825794397E+02 -0.49849632386E+03  0.53041880616E+03  0.17240394953E+03 0.  0.
         24    2    3    3    0    0 -0.48908650430E+02 -0.62483281622E+02 -0.42512878803E+03  0.44050540282E+03  0.83751459253E+02 0.  0.
         -6    2    1    2    0  502 -0.24256719101E+01  0.55825794397E+02 -0.82449839882E+02  0.19899613078E+03  0.17227617585E+03 0.  0.
        -24    2    5    5    0    0 -0.53261099656E+02  0.52123434148E+02 -0.94565261816E+02  0.14639554491E+03  0.83279467473E+02 0.  0.
          5    1    3    3  501    0  0.51334322340E+02  0.66574872249E+01 -0.73367535830E+02  0.89913403339E+02  0.47000000000E+01 0. -1.
        -11    1    4    4    0    0 -0.51605468958E+02 -0.15202613393E+02 -0.32871956810E+03  0.33309277737E+03  0.00000000000E+00 0.  1.
         12    1    4    4    0    0  0.26968185278E+01 -0.47280668230E+02 -0.96409219929E+02  0.10741262545E+03  0.00000000000E+00 0. -1.
         -5    1    5    5    0  502  0.50835427746E+02  0.37023602496E+01  0.12115421934E+02  0.52600585873E+02  0.47000000000E+01 0.  1.
         13    1    6    6    0    0  0.13819634216E+02  0.73817436782E+01 -0.53817306551E+02  0.56051538017E+02  0.00000000000E+00 0. -1.
        -14    1    6    6    0    0 -0.67080733872E+02  0.44741690470E+02 -0.40747955264E+02  0.90344006891E+02  0.00000000000E+00 0.  1.
</event>
<event>
12    1  0.8135779E-002  0.2762268E+03  0.7818608E-02  0.1097961E+00
         21   -1    0    0  503  502  0.00000000000E+00  0.00000000000E+00  0.12279900930E+03  0.12279900930E+03  0.00000000000E+00 0.  1.
         21   -1    0    0  501  503 -0.00000000000E+00 -0.00000000000E+00 -0.13992768786E+04  0.13992768786E+04  0.00000000000E+00 0.  1.
          6    2    1    2  501    0  0.19676270770E+03  0.89011446365E+02 -0.12061078643E+04  0.12370264385E+04  0.16999890736E+03 0.  0.
         24    2    3    3    0    0  0.14786783557E+03  0.12819097692E+03 -0.89127859492E+03  0.91598858560E+03  0.79747926843E+02 0.  0.
         -6    2    1    2    0  502 -0.19676270770E+03 -0.89011446365E+02 -0.70370004988E+02  0.28504944938E+03  0.17222848273E+03 0.  0.
        -24    2    5    5    0    0 -0.13537885518E+03 -0.94098291765E+01  0.64560082489E+01  0.15844486368E+03  0.81529844044E+02 0.  0.
          5    1    3    3  501    0  0.48894872127E+02 -0.39179530557E+02 -0.31482926935E+03  0.32103785287E+03  0.47000000000E+01 0. -1.
        -13    1    4    4    0    0  0.11003559305E+03  0.55522970961E+02 -0.63779039292E+03  0.64959003790E+03  0.00000000000E+00 0.  1.
         14    1    4    4    0    0  0.37832242524E+02  0.72668005961E+02 -0.25348820200E+03  0.26639854770E+03  0.00000000000E+00 0. -1.
         -5    1    5    5    0  502 -0.61383852516E+02 -0.79601617189E+02 -0.76826013237E+02  0.12660458569E+03  0.47000000000E+01 0.  1.
         13    1    6    6    0    0 -0.15143781926E-01 -0.21017383898E+02 -0.64188062133E+01  0.21975707689E+02  0.00000000000E+00 0. -1.
        -14    1    6    6    0    0 -0.13536371140E+03  0.11607554721E+02  0.12874814462E+02  0.13646915599E+03  0.00000000000E+00 0.  1.
</event>
<event>
12    1  0.8135779E-002  0.2368175E+03  0.7818608E-02  0.1121957E+00
         21   -1    0    0  503  502  0.00000000000E+00  0.00000000000E+00  0.22625659875E+03  0.22625659875E+03  0.00000000000E+00 0.  1.
         21   -1    0    0  501  503 -0.00000000000E+00 -0.00000000000E+00 -0.28123722215E+03  0.28123722215E+03  0.00000000000E+00 0. -1.
          6    2    1    2  501    0 -0.13488986553E+03 -0.89429862116E+02 -0.11510803268E+03  0.26331046625E+03  0.17288599247E+03 0.  0.
         24    2    3    3    0    0 -0.50285003557E+02 -0.75635917045E+02 -0.36676589030E+01  0.12263601051E+03  0.82321114077E+02 0.  0.
         -6    2    1    2    0  502  0.13488986553E+03  0.89429862116E+02  0.60127409288E+02  0.24418335465E+03  0.17267666108E+03 0.  0.
        -24    2    5    5    0    0  0.64742615960E+02  0.12116868936E+03  0.33022818242E+02  0.16242310372E+03  0.80108055125E+02 0.  0.
          5    1    3    3  501    0 -0.84604861968E+02 -0.13793945071E+02 -0.11144037378E+03  0.14067445574E+03  0.47000000000E+01 0. -1.
        -13    1    4    4    0    0  0.22337911895E+02 -0.95359347648E+01  0.11729056790E+01  0.24316497844E+02  0.00000000000E+00 0.  1.
         14    1    4    4    0    0 -0.72622915452E+02 -0.66099982280E+02 -0.48405645820E+01  0.98319512670E+02  0.00000000000E+00 0. -1.
         -5    1    5    5    0  502  0.70147249566E+02 -0.31738827240E+02  0.27104591046E+02  0.81760250929E+02  0.47000000000E+01 0.  1.
         11    1    6    6    0    0  0.32777102797E+02  0.50870732383E+02 -0.25358439951E+02  0.65614178024E+02  0.00000000000E+00 0. -1.
        -12    1    6    6    0    0  0.31965513163E+02  0.70297956973E+02  0.58381258194E+02  0.96808925697E+02  0.00000000000E+00 0.  1.
</event>
<event>
12    1  0.8135779E-002  0.1726847E+03  0.7818608E-02  0.1175306E+00
         21   -1    0    0  501  502  0.00000000000E+00  0.00000000000E+00  0.54125831457E+02  0.54125831457E+02  0.00000000000E+00 0. -1.
         21   -1    0    0  502  503 -0.00000000000E+00 -0.00000000000E+00 -0.94276643102E+03  0.94276643102E+03  0.00000000000E+00 0. -1.
         -6    2    1    2    0  503 -0.24766648221E+00  0.12033903247E+01 -0.76615548521E+03  0.78517874386E+03  0.17178452438E+03 0.  0.
        -24    2    3    3    0    0  0.21671460947E+02  0.32673593222E+02 -0.72563239647E+03  0.72918738258E+03  0.60288043531E+02 0.  0.
          6    2    1    2  501    0  0.24766648221E+00 -0.12033903247E+01 -0.12248511436E+03  0.21171351862E+03  0.17268034410E+03 0.  0.
         24    2    5    5    0    0  0.11180846288E+02 -0.28997020025E+02 -0.14881735109E+03  0.17161991609E+03  0.79630101845E+02 0.  0.
          5    1    5    5  501    0 -0.10933179806E+02  0.27793629700E+02  0.26332236728E+02  0.40093602528E+02  0.47000000000E+01 0. -1.
        -11    1    6    6    0    0 -0.20115980936E+01 -0.54079382512E+02 -0.11761836071E+03  0.12947086513E+03  0.00000000000E+00 0.  1.
         12    1    6    6    0    0  0.13192444382E+02  0.25082362488E+02 -0.31198990375E+02  0.42149050964E+02  0.00000000000E+00 0. -1.
         -5    1    3    3    0  503 -0.21919127429E+02 -0.31470202897E+02 -0.40523088734E+02  0.55991361282E+02  0.47000000000E+01 0.  1.
         13    1    4    4    0    0  0.40608044871E+02  0.28604983331E+02 -0.41701945751E+03  0.41996724434E+03  0.00000000000E+00 0. -1.
        -14    1    4    4    0    0 -0.18936583924E+02  0.40686098906E+01 -0.30861293897E+03  0.30922013824E+03  0.00000000000E+00 0.  1.
</event>
<event>
12    1  0.8135779E-002  0.3216816E+03  0.7818608E-02  0.1074934E+00
         21   -1    0    0  501  502  0.00000000000E+00  0.00000000000E+00  0.27546737506E+03  0.27546737506E+03  0.00000000000E+00 0.  1.
         21   -1    0    0  502  503 -0.00000000000E+00 -0.00000000000E+00 -0.45184418216E+03  0.45184418216E+03  0.00000000000E+00 0. -1.
         -6    2    1    2    0  503 -0.23199244702E+03 -0.14039291531E+03 -0.23802249268E+03  0.39977648285E+03  0.17215069874E+03 0.  0.
        -24    2    3    3    0    0 -0.17747264459E+03 -0.10936631159E+03 -0.93697134776E+02  0.24233773943E+03  0.80566104523E+02 0.  0.
          6    2    1    2  501    0  0.23199244702E+03  0.14039291531E+03  0.61645685582E+02  0.32753507437E+03  0.17305596853E+03 0.  0.
         24    2    5    5    0    0  0.10933005610E+03  0.84744767164E+02 -0.32519823618E+02  0.16312092758E+03  0.80100944803E+02 0.  0.
          5    1    5    5  501    0  0.12266239093E+03  0.55648148149E+02  0.94165509200E+02  0.16441414679E+03  0.47000000000E+01 0. -1.
        -13    1    6    6    0    0  0.80916739699E+02  0.32645690997E+02  0.13149014541E+02  0.88239200402E+02  0.00000000000E+00 0.  1.
         14    1    6    6    0    0  0.28413316397E+02  0.52099076167E+02 -0.45668838159E+02  0.74881727177E+02  0.00000000000E+00 0. -1.
         -5    1    3    3    0  503 -0.54519802430E+02 -0.31026603719E+02 -0.14432535790E+03  0.15743874342E+03  0.47000000000E+01 0.  1.
         13    1    4    4    0    0 -0.10039627473E+03 -0.70258976173E+02 -0.96327569717E+02  0.15586768876E+03  0.00000000000E+00 0. -1.
        -14    1    4    4    0    0 -0.77076369866E+02 -0.39107335422E+02  0.26304349411E+01  0.86470050673E+02  0.00000000000E+00 0.  1.
</event>
<event>
12    1  0.8135779E-002  0.2049854E+03  0.7818608E-02  0.1146505E+00
         21   -1    0    0  501  502  0.00000000000E+00  0.00000000000E+00  0.19254364482E+03  0.19254364482E+03  0.00000000000E+00 0.  1.
         21   -1    0    0  502  503 -0.00000000000E+00 -0.00000000000E+00 -0.23836036349E+03  0.23836036349E+03  0.00000000000E+00 0.  1.
         -6    2    1    2    0  503 -0.19343956580E+01  0.97748614281E+02 -0.92576080557E+02  0.22492079181E+03  0.18016797278E+03 0.  0.
        -24    2    3    3    0    0 -0.66094150087E+02  0.87927198334E+02 -0.85506741992E+02  0.15946088158E+03  0.77567653989E+02 0.  0.
          6    2    1    2  501    0  0.19343956580E+01 -0.97748614281E+02  0.46759361889E+02  0.20598321649E+03  0.17516881592E+03 0.  0.
         24    2    5    5    0    0 -0.85757984573E+01  0.17524343179E+01  0.66873613281E+02  0.10381866314E+03  0.78927937501E+02 0.  0.
          5    1    5    5  501    0  0.10510194115E+02 -0.99501048599E+02 -0.20114251392E+02  0.10216455335E+03  0.47000000000E+01 0. -1.
        -13    1    6    6    0    0 -0.87003604582E+01 -0.22593236995E+02  0.74476755809E+02  0.78313075446E+02  0.00000000000E+00 0.  1.
         14    1    6    6    0    0  0.12456200090E+00  0.24345671313E+02 -0.76031425283E+01  0.25505587695E+02  0.00000000000E+00 0. -1.
         -5    1    3    3    0  503  0.64159754429E+02  0.98214159471E+01 -0.70693385651E+01  0.65459910230E+02  0.47000000000E+01 0.  1.
         13    1    4    4    0    0  0.15685818075E+02  0.17350493981E+01 -0.99027374875E+01  0.18631143143E+02  0.00000000000E+00 0. -1.
        -14    1    4    4    0    0 -0.81779968162E+02  0.86192148936E+02 -0.75604004504E+02  0.14082973844E+03  0.00000000000E+00 0.  1.
</event>
<event>
12    1  0.8135779E-002  0.1827902E+03  0.7818608E-02  0.1165282E+00
         21   -1    0    0  503  502  0.00000000000E+00  0.00000000000E+00  0.63970521374E+03  0.63970521374E+03  0.00000000000E+00 0. -1.
         21   -1    0    0  501  503 -0.00000000000E+00 -0.00000000000E+00 -0.41059481970E+03  0.41059481970E+03  0.00000000000E+00 0. -1.
          6    2    1    2  501    0  0.60361306578E+02  0.73282000783E+01 -0.37615756516E+03  0.41821855757E+03  0.17238056219E+03 0.  0.
         24    2    3    3    0    0  0.34029030469E+02  0.46965985007E+02 -0.10775956086E+03  0.14559405120E+03  0.78877919132E+02 0.  0.
         -6    2    1    2    0  502 -0.60361306578E+02 -0.73282000783E+01  0.60526795921E+03  0.63208147587E+03  0.17169886385E+03 0.  0.
        -24    2    5    5    0    0 -0.84378083254E+02 -0.41573076668E+02  0.54366311560E+03  0.55747072671E+03  0.79724815699E+02 0.  0.
          5    1    3    3  501    0  0.26332276109E+02 -0.39637784928E+02 -0.26839800430E+03  0.27262450637E+03  0.47000000000E+01 0. -1.
        -11    1    4    4    0    0 -0.23230775006E+02 -0.41991588917E+00 -0.31084662929E+02  0.38808523628E+02  0.00000000000E+00 0.  1.
         12    1    4    4    0    0  0.57259805475E+02  0.47385900896E+02 -0.76674897931E+02  0.10678552758E+03  0.00000000000E+00 0. -1.
         -5    1    5    5    0  502  0.24016776676E+02  0.34244876590E+02  0.61604843612E+02  0.74610749166E+02  0.47000000000E+01 0.  1.
         13    1    6    6    0    0  0.14643154401E+02 -0.75881858400E+01  0.44762952289E+02  0.47704553586E+02  0.00000000000E+00 0. -1.
        -14    1    6    6    0    0 -0.99021237654E+02 -0.33984890828E+02  0.49890016331E+03  0.50976617312E+03  0.00000000000E+00 0.  1.
</event>
<event>
12    1  0.8135779E-002  0.2505394E+03  0.7818608E-02  0.1113005E+00
         21   -1    0    0  501  502  0.00000000000E+00  0.00000000000E+00  0.17633457047E+03  0.17633457047E+03  0.00000000000E+00 0.  1.
         21   -1    0    0  502  503 -0.00000000000E+00 -0.00000000000E+00 -0.35704732866E+03  0.35704732866E+03  0.00000000000E+00 0. -1.
         -6    2    1    2    0  503 -0.74093725060E+01 -0.18177724854E+03 -0.73469890159E+02  0.26108965285E+03  0.17225595832E+03 0.  0.
        -24    2    3    3    0    0  0.55504308499E+01 -0.27312366733E+02 -0.60439312770E+02  0.10546432663E+03  0.81811007840E+02 0.  0.
          6    2    1    2  501    0  0.74093725060E+01  0.18177724854E+03 -0.10724286803E+03  0.27229224627E+03  0.17188416957E+03 0.  0.
         24    2    5    5    0    0  0.54288469277E+02  0.59723605389E+02 -0.20658256753E+02  0.11540462270E+03  0.79858101849E+02 0.  0.
          5    1    5    5  501    0 -0.46879096771E+02  0.12205364315E+03 -0.86584611278E+02  0.15688762357E+03  0.47000000000E+01 0. -1.
        -11    1    6    6    0    0  0.46642432024E+02  0.79591868000E+02 -0.16851841293E+02  0.93778283583E+02  0.00000000000E+00 0.  1.
         12    1    6    6    0    0  0.76460372535E+01 -0.19868262611E+02 -0.38064154600E+01  0.21626339115E+02  0.00000000000E+00 0. -1.
         -5    1    3    3    0  503 -0.12959803356E+02 -0.15446488181E+03 -0.13030577389E+02  0.15562532622E+03  0.47000000000E+01 0.  1.
         13    1    4    4    0    0 -0.10406211456E+02 -0.52686124274E+02 -0.25563641743E+02  0.59477867371E+02  0.00000000000E+00 0. -1.
        -14    1    4    4    0    0  0.15956642306E+02  0.25373757540E+02 -0.34875671027E+02  0.45986459257E+02  0.00000000000E+00 0.  1.
</event>
<event>
12    1  0.8135779E-002  0.2040115E+03  0.7818608E-02  0.1146749E+00
         21   -1    0    0  503  502  0.00000000000E+00  0.00000000000E+00  0.36249789795E+03  0.36249789795E+03  0.00000000000E+00 0.  1.
         21   -1    0    0  501  503 -0.00000000000E+00 -0.00000000000E+00 -0.15573046075E+03  0.15573046075E+03  0.00000000000E+00 0.  1.
          6    2    1    2  501    0 -0.10618183740E+03 -0.20843541076E+02 -0.30651759838E+02  0.20630125598E+03  0.17294982521E+03 0.  0.
         24    2    3    3    0    0 -0.59032649094E+02 -0.78949938631E+02 -0.41099987529E+01  0.12676538686E+03  0.79590355868E+02 0.  0.
         -6    2    1    2    0  502  0.10618183740E+03  0.20843541076E+02  0.23741919703E+03  0.31192710272E+03  0.17094328443E+03 0.  0.
        -24    2    5    5    0    0  0.27169356670E+01 -0.20819875546E+02  0.56401721069E+02  0.99253073322E+02  0.78925087692E+02 0.  0.
          5    1    3    3  501    0 -0.47149188311E+02  0.58106397555E+02 -0.26541761085E+02  0.79535869120E+02  0.47000000000E+01 0. -1.
        -13    1    4    4    0    0 -0.36266400112E+02  0.16173645617E+01 -0.20151249650E+02  0.41520362567E+02  0.00000000000E+00 0.  1.
         14    1    4    4    0    0 -0.22766248982E+02 -0.80567303193E+02  0.16041250897E+02  0.85245024294E+02  0.00000000000E+00 0. -1.
         -5    1    5    5    0  502  0.10346490174E+03  0.41663416622E+02  0.18101747596E+03  0.21267402940E+03  0.47000000000E+01 0.  1.
         13    1    6    6    0    0  0.16018834331E+02  0.26653620996E+02  0.13509479758E+02  0.33904639931E+02  0.00000000000E+00 0. -1.
        -14    1    6    6    0    0 -0.13301898664E+02 -0.47473496542E+02  0.42892241311E+02  0.65348433391E+02  0.00000000000E+00 0.  1.
</event>
<event>
12    1  0.8135779E-002  0.1864438E+03  0.7818608E-02  0.1162357E+00
         21   -1    0    0  503  502  0.00000000000E+00  0.00000000000E+00  0.19188674214E+03  0.19188674214E+03  0.00000000000E+00 0.  1.
         21   -1    0    0  501  503 -0.00000000000E+00 -0.00000000000E+00 -0.22123668320E+03  0.22123668320E+03  0.00000000000E+00 0. -1.
          6    2    1    2  501    0 -0.28706239308E+02 -0.66708782382E+02 -0.10541283803E+03  0.21176093278E+03  0.16869118652E+03 0.  0.
         24    2    3    3    0    0 -0.92937961986E+01 -0.10746587989E+03 -0.90648787112E+02  0.16403199874E+03  0.83988118317E+02 0.  0.
         -6    2    1    2    0  502  0.28706239308E+02  0.66708782382E+02  0.76062896967E+02  0.20136249255E+03  0.17171831379E+03 0.  0.
        -24    2    5    5    0    0 -0.33858204589E+02  0.81097066295E+02  0.27234789038E+02  0.12056888836E+03  0.77923109074E+02 0.  0.
          5    1    3    3  501    0 -0.19412443110E+02  0.40757097510E+02 -0.14764050922E+02  0.47728934039E+02  0.47000000000E+01 0. -1.
        -13    1    4    4    0    0 -0.14989106261E+02 -0.37775126190E+02  0.96455048410E+01  0.41769237829E+02  0.00000000000E+00 0.  1.
         14    1    4    4    0    0  0.56953100627E+01 -0.69690753703E+02 -0.10029429195E+03  0.12226276092E+03  0.00000000000E+00 0. -1.
         -5    1    5    5    0  502  0.62564443898E+02 -0.14388283913E+02  0.48828107929E+02  0.80793604190E+02  0.47000000000E+01 0.  1.
         11    1    6    6    0    0  0.18846902883E+02  0.46688525790E+01 -0.83602880969E+01  0.21139970429E+02  0.00000000000E+00 0. -1.
        -12    1    6    6    0    0 -0.52705107472E+02  0.76428213716E+02  0.35595077135E+02  0.99428917935E+02  0.00000000000E+00 0.  1.
</event>
<event>
12    1  0.8135779E-002  0.2103572E+03  0.7818608E-02  0.1141394E+00
         21   -1    0    0  501  502  0.00000000000E+00  0.00000000000E+00  0.38950388183E+03  0.38950388183E+03  0.00000000000E+00 0. -1.
         21   -1    0    0  502  503 -0.00000000000E+00 -0.00000000000E+00 -0.13661094105E+03  0.13661094105E+03  0.00000000000E+00 0.  1.
         -6    2    1    2    0  503 -0.47467878762E+02  0.11119958247E+03  0.23496116490E+03  0.31499472516E+03  0.17145372907E+03 0.  0.
        -24    2    3    3    0    0 -0.50249122901E+02  0.73048852734E+00  0.13914484523E+03  0.16865944865E+03  0.80988972707E+02 0.  0.
          6    2    1    2  501    0  0.47467878762E+02 -0.11119958247E+03  0.17931775887E+02  0.21112009772E+03  0.17213831770E+03 0.  0.
         24    2    5    5    0    0  0.49489211094E+02 -0.42994626000E+00 -0.13689580447E+02  0.95811822794E+02  0.80889640288E+02 0.  0.
          5    1    5    5  501    0 -0.20213323321E+01 -0.11076963621E+03  0.31621356334E+02  0.11530827493E+03  0.47000000000E+01 0. -1.
        -11    1    6    6    0    0  0.19237399382E+02 -0.36917272319E+02 -0.22924022409E+02  0.47523397752E+02  0.00000000000E+00 0.  1.
         12    1    6    6    0    0  0.30251811711E+02  0.36487326059E+02  0.92344419621E+01  0.48288425043E+02  0.00000000000E+00 0. -1.
         -5    1    3    3    0  503  0.27812441391E+01  0.11046909394E+03  0.95816319668E+02  0.14633527650E+03  0.47000000000E+01 0.  1.
         13    1    4    4    0    0 -0.57454754388E+02  0.23006833259E+02  0.12912862657E+03  0.14319415274E+03  0.00000000000E+00 0. -1.
        -14    1    4    4    0    0  0.72056314875E+01 -0.22276344732E+02  0.10016218657E+02  0.25465295913E+02  0.00000000000E+00 0.  1.
</event>
<event>
12    1  0.8135779E-002  0.2103333E+03  0.7818608E-02  0.1141398E+00
         21   -1    0    0  503  502  0.00000000000E+00  0.00000000000E+00  0.19910784959E+03  0.19910784959E+03  0.00000000000E+00 0. -1.
         21   -1    0    0  501  503 -0.00000000000E+00 -0.00000000000E+00 -0.27241639230E+03  0.27241639230E+03  0.00000000000E+00 0. -1.
          6    2    1    2  501    0  0.12050621773E+03  0.11467005801E+01 -0.13836323076E+03  0.25136016642E+03  0.17179780616E+03 0.  0.
         24    2    3    3    0    0  0.37854805251E+02  0.60113065904E+02 -0.55238103852E+02  0.12005835779E+03  0.79474487639E+02 0.  0.
         -6    2    1    2    0  502 -0.12050621773E+03 -0.11467005801E+01  0.65054688052E+02  0.22016407547E+03  0.17238632270E+03 0.  0.
        -24    2    5    5    0    0 -0.10513262654E+02  0.27961812179E+02  0.90086776148E+01  0.93242836240E+02  0.87867392164E+02 0.  0.
          5    1    3    3  501    0  0.82651412478E+02 -0.58966365324E+02 -0.83125126912E+02  0.13130180863E+03  0.47000000000E+01 0. -1.
        -13    1    4    4    0    0 -0.22320672545E+02  0.34549405788E+02 -0.23654875152E+02  0.47449204225E+02  0.00000000000E+00 0.  1.
         14    1    4    4    0    0  0.60175477796E+02  0.25563660116E+02 -0.31583228700E+02  0.72609153567E+02  0.00000000000E+00 0. -1.
         -5    1    5    5    0  502 -0.10999295507E+03 -0.29108512759E+02  0.56046010437E+02  0.12692123923E+03  0.47000000000E+01 0.  1.
         13    1    6    6    0    0 -0.13201556360E+02  0.22396798384E+02  0.47558558688E+02  0.54200684245E+02  0.00000000000E+00 0. -1.
        -14    1    6    6    0    0  0.26882937052E+01  0.55650137952E+01 -0.38549881073E+02  0.39042151994E+02  0.00000000000E+00 0.  1.
</event>
<event>
12    1  0.8135779E-002  0.2243201E+03  0.7818608E-02  0.1130825E+00
         21   -1    0    0  501  502  0.00000000000E+00  0.00000000000E+00  0.93989594412E+02  0.93989594412E+02  0.00000000000E+00 0.  1.
         21   -1    0    0  502  503 -0.00000000000E+00 -0.00000000000E+00 -0.94768458700E+03  0.94768458700E+03  0.00000000000E+00 0. -1.
         -6    2    1    2    0  503  0.12788077756E+03  0.60903856243E+02 -0.77142014837E+03  0.80337323090E+03  0.17394461715E+03 0.  0.
        -24    2    3    3    0    0  0.13445470518E+03  0.90123516690E+02 -0.73036317988E+03  0.75233628601E+03  0.79869873707E+02 0.  0.
          6    2    1    2  501    0 -0.12788077756E+03 -0.60903856243E+02 -0.82274844212E+02  0.23830095051E+03  0.17307634168E+03 0.  0.
         24    2    5    5    0    0 -0.21115966005E+02 -0.33455039078E+01  0.12415385954E+02  0.84352846924E+02  0.80648524841E+02 0.  0.
          5    1    5    5  501    0 -0.10676481155E+03 -0.57558352335E+02 -0.94690230167E+02  0.15394810359E+03  0.47000000000E+01 0. -1.
        -13    1    6    6    0    0 -0.39591757629E+02  0.26043620659E+02  0.14550296758E+02  0.49573063098E+02  0.00000000000E+00 0.  1.
         14    1    6    6    0    0  0.18475791623E+02 -0.29389124566E+02 -0.21349108031E+01  0.34779783827E+02  0.00000000000E+00 0. -1.
         -5    1    3    3    0  503 -0.65739276265E+01 -0.29219660447E+02 -0.41056968498E+02  0.51036944886E+02  0.47000000000E+01 0.  1.
         13    1    4    4    0    0  0.36950403342E+02  0.41795289544E+02 -0.11981935203E+03  0.13216979858E+03  0.00000000000E+00 0. -1.
        -14    1    4    4    0    0  0.97504301841E+02  0.48328227146E+02 -0.61054382784E+03  0.62016648743E+03  0.00000000000E+00 0.  1.
</event>
<event>
12    1  0.8135779E-002  0.2784567E+03  0.7818608E-02  0.1096721E+00
         21   -1    0    0  503  502  0.00000000000E+00  0.00000000000E+00  0.65881305015E+02  0.65881305015E+02  0.00000000000E+00 0.  1.
         21   -1    0    0  501  503 -0.00000000000E+00 -0.00000000000E+00 -0.11791496665E+04  0.11791496665E+04  0.00000000000E+00 0. -1.
          6    2    1    2  501    0  0.84980881976E+02 -0.20162978812E+03 -0.60901661024E+03  0.66965616739E+03  0.17222609912E+03 0.  0.
         24    2    3    3    0    0 -0.66154213197E+01 -0.14746091577E+03 -0.29456267336E+03  0.33765086935E+03  0.73840744553E+02 0.  0.
         -6    2    1    2    0  502 -0.84980881976E+02  0.20162978812E+03 -0.50425175126E+03  0.57537480414E+03  0.17002945284E+03 0.  0.
        -24    2    5    5    0    0  0.13537819945E+02  0.65909076170E+02 -0.25394237489E+03  0.27403957524E+03  0.77997949591E+02 0.  0.
          5    1    3    3  501    0  0.91596303295E+02 -0.54168872351E+02 -0.31445393688E+03  0.33200529804E+03  0.47000000000E+01 0. -1.
        -13    1    4    4    0    0 -0.29219628747E+01 -0.14143094153E+02 -0.15428316936E+00  0.14442603040E+02  0.00000000000E+00 0.  1.
         14    1    4    4    0    0 -0.36934584450E+01 -0.13331782161E+03 -0.29440839019E+03  0.32320826631E+03  0.00000000000E+00 0. -1.
         -5    1    5    5    0  502 -0.98518701921E+02  0.13572071195E+03 -0.25030937636E+03  0.30133522890E+03  0.47000000000E+01 0.  1.
         13    1    6    6    0    0  0.12445887963E+02  0.36370641934E+02 -0.23673792764E+03  0.23983863347E+03  0.00000000000E+00 0. -1.
        -14    1    6    6    0    0  0.10919319823E+01  0.29538434236E+02 -0.17204447254E+02  0.34200941769E+02  0.00000000000E+00 0.  1.
</event>
<event>
12    1  0.8135779E-002  0.2107233E+03  0.7818608E-02  0.1141243E+00
         21   -1    0    0  503  502  0.00000000000E+00  0.00000000000E+00  0.11360064780E+04  0.11360064780E+04  0.00000000000E+00 0. -1.
         21   -1    0    0  501  503 -0.00000000000E+00 -0.00000000000E+00 -0.49046218981E+02  0.49046218981E+02  0.00000000000E+00 0. -1.
          6    2    1    2  501    0  0.11755903396E+03  0.98253035278E+01  0.27210496111E+03  0.34339157065E+03  0.17308956606E+03 0.  0.
         24    2    3    3    0    0  0.88329504121E+01 -0.17436604091E+02  0.18304429531E+03  0.20014889180E+03  0.78564041830E+02 0.  0.
         -6    2    1    2    0  502 -0.11755903396E+03 -0.98253035278E+01  0.81485529787E+03  0.84166112630E+03  0.17460707887E+03 0.  0.
        -24    2    5    5    0    0 -0.12977495166E+03  0.36719595212E+02  0.69155951604E+03  0.70922398626E+03  0.80958209618E+02 0.  0.
          5    1    3    3  501    0  0.10872608355E+03  0.27261907618E+02  0.89060665801E+02  0.14324267885E+03  0.47000000000E+01 0. -1.
        -13    1    4    4    0    0  0.48191697909E+01 -0.25180846151E+02  0.11023832430E+02  0.27907423597E+02  0.00000000000E+00 0.  1.
         14    1    4    4    0    0  0.40137806211E+01  0.77442420604E+01  0.17202046288E+03  0.17224146821E+03  0.00000000000E+00 0. -1.
         -5    1    5    5    0  502  0.12215917701E+02 -0.46544898740E+02  0.12329578183E+03  0.13243714004E+03  0.47000000000E+01 0.  1.
         11    1    6    6    0    0 -0.28249126623E+02 -0.13186912913E+02  0.30099700949E+03  0.30260718357E+03  0.00000000000E+00 0. -1.
        -12    1    6    6    0    0 -0.10152582504E+03  0.49906508126E+02  0.39056250655E+03  0.40661680269E+03  0.00000000000E+00 0.  1.
</event>
<event>
12    1  0.8135779E-002  0.2516799E+03  0.7818608E-02  0.1112406E+00
         21   -1    0    0  503  502  0.00000000000E+00  0.00000000000E+00  0.18957074567E+03  0.18957074567E+03  0.00000000000E+00 0.  1.
         21   -1    0    0  501  503 -0.00000000000E+00 -0.00000000000E+00 -0.36058835332E+03  0.36058835332E+03  0.00000000000E+00 0.  1.
          6    2    1    2  501    0 -0.49263591493E+02  0.17690627516E+03 -0.16202430223E+03  0.29932364397E+03  0.17210472884E+03 0.  0.
         24    2    3    3    0    0  0.40917064074E+02  0.99745740575E+02 -0.92956669642E+02  0.16192376549E+03  0.77168286904E+02 0.  0.
         -6    2    1    2    0  502  0.49263591493E+02 -0.17690627516E+03 -0.89933054176E+01  0.25083545501E+03  0.17063063708E+03 0.  0.
        -24    2    5    5    0    0  0.47315601517E+02 -0.23039038516E+02 -0.17565859129E+02  0.96645637405E+02  0.79134419690E+02 0.  0.
          5    1    3    3  501    0 -0.90180655567E+02  0.77160534582E+02 -0.69067632590E+02  0.13739987848E+03  0.47000000000E+01 0. -1.
        -11    1    4    4    0    0  0.20153407542E+02  0.95980277394E+02 -0.99619861722E+02  0.13979445745E+03  0.00000000000E+00 0.  1.
         12    1    4    4    0    0  0.20763656533E+02  0.37654631815E+01  0.66631920804E+01  0.22129308039E+02  0.00000000000E+00 0. -1.
         -5    1    5    5    0  502  0.19479899761E+01 -0.15386723664E+03  0.85725537112E+01  0.15418981761E+03  0.47000000000E+01 0.  1.
         11    1    6    6    0    0  0.63894279756E+02 -0.26657486366E+02  0.38294349559E+01  0.69338049705E+02  0.00000000000E+00 0. -1.
        -12    1    6    6    0    0 -0.16578678239E+02  0.36184478496E+01 -0.21395294085E+02  0.27307587699E+02  0.00000000000E+00 0.  1.
</event>
<event>
12    1  0.8135779E-002  0.2775163E+03  0.7818608E-02  0.1097365E+00
         21   -1    0    0  501  502  0.00000000000E+00  0.00000000000E+00  0.14186968048E+03  0.14186968048E+03  0.00000000000E+00 0.  1.
         21   -1    0    0  502  503 -0.00000000000E+00 -0.00000000000E+00 -0.14364245476E+04  0.14364245476E+04  0.00000000000E+00 0.  1.
         -6    2    1    2    0  503  0.12542138262E+03 -0.17834104939E+03 -0.12721991231E+04  0.13021159415E+04  0.17169526306E+03 0.  0.
        -24    2    3    3    0    0  0.13962870567E+03 -0.14886929033E+03 -0.81933537160E+03  0.84804755461E+03  0.78841376715E+02 0.  0.
          6    2    1    2  501    0 -0.12542138262E+03  0.17834104939E+03 -0.22355744090E+02  0.27617828658E+03  0.16804348714E+03 0.  0.
         24    2    5    5    0    0 -0.12397885610E+03  0.96074032180E+02  0.30625999035E+02  0.17820329943E+03  0.78851047499E+02 0.  0.
          5    1    5    5  501    0 -0.14425265255E+01  0.82267017205E+02 -0.52981743126E+02  0.97974987151E+02  0.47000000000E+01 0. -1.
        -11    1    6    6    0    0 -0.53076177162E+02  0.78445784371E+02 -0.89068557276E+01  0.95132296023E+02  0.00000000000E+00 0.  1.
         12    1    6    6    0    0 -0.70902678936E+02  0.17628247810E+02  0.39532854763E+02  0.83071003406E+02  0.00000000000E+00 0. -1.
         -5    1    3    3    0  503 -0.14207323049E+02 -0.29471759057E+02 -0.45286375145E+03  0.45406838691E+03  0.47000000000E+01 0.  1.
         11    1    4    4    0    0 -0.77185646312E+01 -0.20050958574E+02 -0.11678308549E+03  0.11874302605E+03  0.00000000000E+00 0. -1.
        -12    1    4    4    0    0  0.14734727030E+03 -0.12881833176E+03 -0.70255228611E+03  0.72930452856E+03  0.00000000000E+00 0.  1.
</event>
<event>
12    1  0.8135779E-002  0.2101968E+03  0.7818608E-02  0.1141673E+00
         21   -1    0    0  501  502  0.00000000000E+00  0.00000000000E+00  0.94216916982E+03  0.94216916982E+03  0.00000000000E+00 0. -1.
         21   -1    0    0  502  503 -0.00000000000E+00 -0.00000000000E+00 -0.23050156586E+03  0.23050156586E+03  0.00000000000E+00 0. -1.
         -6    2    1    2    0  503 -0.52504604160E+02  0.10808796470E+03 -0.16766197066E+03  0.26887399668E+03  0.17246143951E+03 0.  0.
        -24    2    3    3    0    0 -0.63724591507E+02 -0.47064485936E+00 -0.96114886987E+02  0.13829093879E+03  0.76323437963E+02 0.  0.
          6    2    1    2  501    0  0.52504604160E+02 -0.10808796470E+03  0.87932957462E+03  0.90379673900E+03  0.17084584589E+03 0.  0.
         24    2    5    5    0    0  0.27949733221E+02 -0.12017986453E+03  0.45043776048E+03  0.47400675080E+03  0.81017506180E+02 0.  0.
          5    1    5    5  501    0  0.24554870938E+02  0.12091899822E+02  0.42889181414E+03  0.42978998820E+03  0.47000000000E+01 0. -1.
        -11    1    6    6    0    0  0.34855201700E+02 -0.49829703361E+02  0.31921568997E+03  0.32495621420E+03  0.00000000000E+00 0.  1.
         12    1    6    6    0    0 -0.69054684782E+01 -0.70350161166E+02  0.13122207051E+03  0.14905053660E+03  0.00000000000E+00 0. -1.
         -5    1    3    3    0  503  0.11219987347E+02  0.10855860956E+03 -0.71547083669E+02  0.13058305789E+03  0.47000000000E+01 0.  1.
         11    1    4    4    0    0 -0.10517861762E+02  0.33993913914E+02 -0.28351972485E+02  0.45497757560E+02  0.00000000000E+00 0. -1.
        -12    1    4    4    0    0 -0.53206729745E+02 -0.34464558773E+02 -0.67762914501E+02  0.92793181233E+02  0.00000000000E+00 0.  1.
</event>
<event>
12    1  0.8135779E-002  0.2548071E+03  0.7818608E-02  0.1110357E+00
         21   -1    0    0  503  502  0.00000000000E+00  0.00000000000E+00  0.15585699077E+03  0.15585699077E+03  0.00000000000E+00 0. -1.
         21   -1    0    0  501  503 -0.00000000000E+00 -0.00000000000E+00 -0.84526163729E+03  0.84526163729E+03  0.00000000000E+00 0. -1.
          6    2    1    2  501    0  0.98395989000E+02  0.15989730593E+03 -0.70152555224E+03  0.74636770279E+03  0.17227225027E+03 0.  0.
         24    2    3    3    0    0  0.12426583234E+03  0.84839567418E+02 -0.41771646256E+03  0.45162611717E+03  0.82700407066E+02 0.  0.
         -6    2    1    2    0  502 -0.98395989000E+02 -0.15989730593E+03  0.12120905724E+02  0.25475092527E+03  0.17176204025E+03 0.  0.
        -24    2    5    5    0    0 -0.85544255269E+02 -0.30415775816E+02 -0.84808901364E+01  0.12292847765E+03  0.82441167464E+02 0.  0.
          5    1    3    3  501    0 -0.25869843335E+02  0.75057738516E+02 -0.28380908968E+03  0.29474158561E+03  0.47000000000E+01 0. -1.
        -11    1    4    4    0    0  0.39715977663E+02  0.24988070519E+02 -0.45864993763E+02  0.65615243677E+02  0.00000000000E+00 0.  1.
         12    1    4    4    0    0  0.84549854672E+02  0.59851496899E+02 -0.37185146880E+03  0.38601087349E+03  0.00000000000E+00 0. -1.
         -5    1    5    5    0  502 -0.12851733732E+02 -0.12948153012E+03  0.20601795861E+02  0.13182244761E+03  0.47000000000E+01 0.  1.
         13    1    6    6    0    0 -0.40340518863E+02 -0.48201950891E+02 -0.30180006427E+02  0.69725306164E+02  0.00000000000E+00 0. -1.
        -14    1    6    6    0    0 -0.45203736405E+02  0.17786175074E+02  0.21699116290E+02  0.53203171490E+02  0.00000000000E+00 0.  1.
</event>
<event>
12    1  0.8135779E-002  0.1780881E+03  0.7818608E-02  0.1171122E+00
         21   -1    0    0  503  502  0.00000000000E+00  0.00000000000E+00  0.11637822921E+04  0.11637822921E+04  0.00000000000E+00 0. -1.
         21   -1    0    0  501  503 -0.00000000000E+00 -0.00000000000E+00 -0.26369596225E+02  0.26369596225E+02  0.00000000000E+00 0. -1.
          6    2    1    2  501    0  0.18501830639E+02 -0.42211890934E+02  0.57276672083E+03  0.59981420140E+03  0.17202092386E+03 0.  0.
         24    2    3    3    0    0 -0.55288812202E+02 -0.31810799667E+02  0.37428553223E+03  0.38775262097E+03  0.78699782089E+02 0.  0.
         -6    2    1    2    0  502 -0.18501830639E+02  0.42211890934E+02  0.56464597505E+03  0.59033768692E+03  0.16597995659E+03 0.  0.
        -24    2    5    5    0    0  0.26876670589E+02  0.39481081242E+02  0.19666374955E+03  0.21952820218E+03  0.85058156371E+02 0.  0.
          5    1    3    3  501    0  0.73790642841E+02 -0.10401091268E+02  0.19848118860E+03  0.21206158044E+03  0.47000000000E+01 0. -1.
        -11    1    4    4    0    0 -0.50811156985E+02 -0.23032832230E+01  0.10345236138E+03  0.11527996297E+03  0.00000000000E+00 0.  1.
         12    1    4    4    0    0 -0.44776552173E+01 -0.29507516444E+02  0.27083317085E+03  0.27247265799E+03  0.00000000000E+00 0. -1.
         -5    1    5    5    0  502 -0.45378501228E+02  0.27308096923E+01  0.36798222549E+03  0.37080948474E+03  0.47000000000E+01 0.  1.
         11    1    6    6    0    0 -0.27965613397E+02  0.28833302979E+02  0.63728184645E+02  0.75330713600E+02  0.00000000000E+00 0. -1.
        -12    1    6    6    0    0  0.54842283986E+02  0.10647778263E+02  0.13293556491E+03  0.14419748858E+03  0.00000000000E+00 0.  1.
</event>
<event>
12    1  0.8135779E-002  0.2642039E+03  0.7818608E-02  0.1104649E+00
         21   -1    0    0  501  502  0.00000000000E+00  0.00000000000E+00  0.12235957550E+04  0.12235957550E+04  0.00000000000E+00 0. -1.
         21   -1    0    0  502  503 -0.00000000000E+00 -0.00000000000E+00 -0.10514898743E+03  0.10514898743E+03  0.00000000000E+00 0.  1.
         -6    2    1    2    0  503 -0.12474938322E+02  0.19992824705E+03  0.10981059288E+03  0.28607959477E+03  0.17220987247E+03 0.  0.
        -24    2    3    3    0    0 -0.39867799174E+02  0.19702356665E+03  0.52593472517E+02  0.22240310886E+03  0.79305373434E+02 0.  0.
          6    2    1    2  501    0  0.12474938322E+02 -0.19992824705E+03  0.10086361747E+04  0.10426651477E+04  0.17226940881E+03 0.  0.
         24    2    5    5    0    0 -0.10488710332E+01 -0.20432038616E+02  0.39067533960E+03  0.39900416084E+03  0.78476308918E+02 0.  0.
          5    1    5    5  501    0  0.13523809355E+02 -0.17949620844E+03  0.61796083508E+03  0.64366098682E+03  0.47000000000E+01 0. -1.
        -13    1    6    6    0    0 -0.25511327209E+02  0.28368661705E+01  0.45982280071E+02  0.52661615112E+02  0.00000000000E+00 0.  1.
         14    1    6    6    0    0  0.24462456176E+02 -0.23268904786E+02  0.34469305953E+03  0.34634254573E+03  0.00000000000E+00 0. -1.
         -5    1    3    3    0  503  0.27392860852E+02  0.29046804079E+01  0.57217120366E+02  0.63676485902E+02  0.47000000000E+01 0.  1.
         11    1    4    4    0    0 -0.59572122464E+02  0.10284570465E+03  0.18280890391E+02  0.12025085319E+03  0.00000000000E+00 0. -1.
        -12    1    4    4    0    0  0.19704323290E+02  0.94177862000E+02  0.34312582126E+02  0.10215225567E+03  0.00000000000E+00 0.  1.
</event>
<event>
12    1  0.8135779E-002  0.1805175E+03  0.7818608E-02  0.1167410E+00
         21   -1    0    0  503  502  0.00000000000E+00  0.00000000000E+00  0.21105164432E+03  0.21105164432E+03  0.00000000000E+00 0. -1.
         21   -1    0    0  501  503 -0.00000000000E+00 -0.00000000000E+00 -0.19445342627E+03  0.19445342627E+03  0.00000000000E+00 0. -1.
          6    2    1    2  501    0  0.43577336145E+02  0.31299634153E+02 -0.84160551975E+02  0.19877119172E+03  0.17189629671E+03 0.  0.
         24    2    3    3    0    0  0.55820227345E+02  0.35218661374E+02  0.83084987405E+01  0.10529465723E+03  0.81619126435E+02 0.  0.
         -6    2    1    2    0  502 -0.43577336145E+02 -0.31299634153E+02  0.10075877002E+03  0.20673387887E+03  0.17235984340E+03 0.  0.
        -24    2    5    5    0    0 -0.53389186625E+02  0.21763340407E+01  0.98700759592E+01  0.10926717910E+03  0.94798503953E+02 0.  0.
          5    1    3    3  501    0 -0.12242891200E+02 -0.39190272202E+01 -0.92469050716E+02  0.93476534486E+02  0.47000000000E+01 0. -1.
        -13    1    4    4    0    0 -0.19654306163E+02 -0.11643058058E+01  0.86565432264E+01  0.21507745102E+02  0.00000000000E+00 0.  1.
         14    1    4    4    0    0  0.75474533508E+02  0.36382967179E+02 -0.34804448590E+00  0.83786912128E+02  0.00000000000E+00 0. -1.
         -5    1    5    5    0  502  0.98118504801E+01 -0.33475968194E+02  0.90888694058E+02  0.97466699770E+02  0.47000000000E+01 0.  1.
         13    1    6    6    0    0 -0.61562656184E+00  0.28445944258E+02  0.35066736092E+02  0.45157798008E+02  0.00000000000E+00 0. -1.
        -14    1    6    6    0    0 -0.52773560063E+02 -0.26269610217E+02 -0.25196660133E+02  0.64109381097E+02  0.00000000000E+00 0.  1.
</event>
<event>
12    1  0.8135779E-002  0.1913889E+03  0.7818608E-02  0.1157229E+00
         21   -1    0    0  501  502  0.00000000000E+00  0.00000000000E+00  0.66396673650E+02  0.66396673650E+02  0.00000000000E+00 0. -1.
         21   -1    0    0  502  503 -0.00000000000E+00 -0.00000000000E+00 -0.84011053102E+03  0.84011053102E+03  0.00000000000E+00 0. -1.
         -6    2    1    2    0  503  0.77115612564E+02 -0.31536229554E+02 -0.65256371358E+03  0.68005080271E+03  0.17230305427E+03 0.  0.
        -24    2    3    3    0    0  0.11828357858E+03 -0.21077345203E+02 -0.55860934530E+03  0.57683402594E+03  0.79106468647E+02 0.  0.
          6    2    1    2  501    0 -0.77115612564E+02  0.31536229554E+02 -0.12115014379E+03  0.22645640195E+03  0.17223180070E+03 0.  0.
         24    2    5    5    0    0 -0.87426405117E+01  0.72743827810E+02 -0.86692956103E+02  0.13937989970E+03  0.80888748018E+02 0.  0.
          5    1    5    5  501    0 -0.68372972052E+02 -0.41207598256E+02 -0.34457187683E+02  0.87076502251E+02  0.47000000000E+01 0. -1.
        -13    1    6    6    0    0  0.77236361082E+01 -0.13078871752E+02 -0.34241493693E+02  0.37459195552E+02  0.00000000000E+00 0.  1.
         14    1    6    6    0    0 -0.16466276620E+02  0.85822699562E+02 -0.52451462409E+02  0.10192070415E+03  0.00000000000E+00 0. -1.
         -5    1    3    3    0  503 -0.41167966021E+02 -0.10458884351E+02 -0.93954368282E+02  0.10321677677E+03  0.47000000000E+01 0.  1.
         11    1    4    4    0    0  0.78597272899E+02 -0.11788980423E+02 -0.49463228137E+03  0.50097665129E+03  0.00000000000E+00 0. -1.
        -12    1    4    4    0    0  0.39686305686E+02 -0.92883647799E+01 -0.63977063928E+02  0.75857374645E+02  0.00000000000E+00 0.  1.
</event>
<event>
12    1  0.8135779E-002  0.1798160E+03  0.7818608E-02  0.1168477E+00
         21   -1    0    0  501  502  0.00000000000E+00  0.00000000000E+00  0.39631813751E+03  0.39631813751E+03  0.00000000000E+00 0. -1.
         21   -1    0    0  502  503 -0.00000000000E+00 -0.00000000000E+00 -0.10263428171E+04  0.10263428171E+04  0.00000000000E+00 0. -1.
         -6    2    1    2    0  503 -0.47614956384E+02  0.52461096778E+01 -0.99795761037E+03  0.10140281954E+04  0.17331786753E+03 0.  0.
        -24    2    3    3    0    0 -0.97829758791E+02  0.16059001657E+02 -0.76620265319E+03  0.77660263823E+03  0.78845410208E+02 0.  0.
          6    2    1    2  501    0  0.47614956384E+02 -0.52461096778E+01  0.36793293079E+03  0.40863275921E+03  0.17120567924E+03 0.  0.
         24    2    5    5    0    0  0.10341024491E+02 -0.42931352736E+02  0.33146554556E+03  0.34412319613E+03  0.81248559286E+02 0.  0.
          5    1    5    5  501    0  0.37273931893E+02  0.37685243058E+02  0.36467385224E+02  0.64509563076E+02  0.47000000000E+01 0. -1.
        -13    1    6    6    0    0 -0.33645633977E+02 -0.16790446458E+02  0.19007557445E+03  0.19375931405E+03  0.00000000000E+00 0.  1.
         14    1    6    6    0    0  0.43986658468E+02 -0.26140906278E+02  0.14138997111E+03  0.15036388209E+03  0.00000000000E+00 0. -1.
         -5    1    3    3    0  503  0.50214802407E+02 -0.10812891979E+02 -0.23175495718E+03  0.23742555715E+03  0.47000000000E+01 0.  1.
         11    1    4    4    0    0 -0.72142344556E+02 -0.25469244128E+02 -0.41110534018E+03  0.41816360554E+03  0.00000000000E+00 0. -1.
        -12    1    4    4    0    0 -0.25687414235E+02  0.41528245785E+02 -0.35509731301E+03  0.35843903269E+03  0.00000000000E+00 0.  1.
</event>
<event>
12    1  0.8135779E-002  0.2236716E+03  0.7818608E-02  0.1131284E+00
         21   -1    0    0  501  502  0.00000000000E+00  0.00000000000E+00  0.30733241159E+03  0.30733241159E+03  0.00000000000E+00 0.  1.
         21   -1    0    0  502  503 -0.00000000000E+00 -0.00000000000E+00 -0.16542095081E+03  0.16542095081E+03  0.00000000000E+00 0.  1.
         -6    2    1    2    0  503 -0.11724616533E+03  0.79962822482E+02  0.10306508154E+03  0.24573347480E+03  0.17210988739E+03 0.  0.
        -24    2    3    3    0    0 -0.30671675842E+02  0.80075555607E+02  0.10755172643E+03  0.15891541837E+03  0.79585740127E+02 0.  0.
          6    2    1    2  501    0  0.11724616533E+03 -0.79962822482E+02  0.38846379240E+02  0.22701988761E+03  0.17288224873E+03 0.  0.
         24    2    5    5    0    0  0.13726618599E+03 -0.90801611125E+02 -0.10327770184E+00  0.18166080536E+03  0.76900579573E+02 0.  0.
          5    1    5    5  501    0 -0.20020020659E+02  0.10838788642E+02  0.38949656942E+02  0.45359082247E+02  0.47000000000E+01 0. -1.
        -13    1    6    6    0    0  0.63346157940E+02 -0.25580750192E+02  0.35324311468E+02  0.76908500745E+02  0.00000000000E+00 0.  1.
         14    1    6    6    0    0  0.73920028052E+02 -0.65220860933E+02 -0.35427589170E+02  0.10475230462E+03  0.00000000000E+00 0. -1.
         -5    1    3    3    0  503 -0.86574489492E+02 -0.11273312469E+00 -0.44866448947E+01  0.86818056428E+02  0.47000000000E+01 0.  1.
         13    1    4    4    0    0  0.14205214830E+02  0.31653665399E+02  0.24278593322E+01  0.34779838449E+02  0.00000000000E+00 0. -1.
        -14    1    4    4    0    0 -0.44876890671E+02  0.48421890208E+02  0.10512386710E+03  0.12413557992E+03  0.00000000000E+00 0.  1.
</event>
<event>
12    1  0.8135779E-002  0.1783046E+03  0.7818608E-02  0.1170724E+00
         21   -1    0    0  501  502  0.00000000000E+00  0.00000000000E+00  0.20094761604E+02  0.20094761604E+02  0.00000000000E+00 0. -1.
         21   -1    0    0  502  503 -0.00000000000E+00 -0.00000000000E+00 -0.24199162427E+04  0.24199162427E+04  0.00000000000E+00 0. -1.
         -6    2    1    2    0  503  0.19490657737E+02 -0.20287286221E+01 -0.19256491592E+04  0.19334225017E+04  0.17208685123E+03 0.  0.
        -24    2    3    3    0    0  0.53863123049E+02  0.46924023120E+02 -0.10523434886E+04  0.10580581647E+04  0.83409602966E+02 0.  0.
          6    2    1    2  501    0 -0.19490657737E+02  0.20287286221E+01 -0.47417232192E+03  0.50658850260E+03  0.17722448651E+03 0.  0.
         24    2    5    5    0    0  0.21843042798E+02 -0.55031702059E+02 -0.34618196353E+03  0.36041056518E+03  0.80921053303E+02 0.  0.
          5    1    5    5  501    0 -0.41333700535E+02  0.57060430681E+02 -0.12799035839E+03  0.14617793742E+03  0.47000000000E+01 0. -1.
        -13    1    6    6    0    0  0.49639733846E+02 -0.20418664269E+02 -0.22615058305E+03  0.23243302528E+03  0.00000000000E+00 0.  1.
         14    1    6    6    0    0 -0.27796691048E+02 -0.34613037790E+02 -0.12003138048E+03  0.12797753990E+03  0.00000000000E+00 0. -1.
         -5    1    3    3    0  503 -0.34372465312E+02 -0.48952751742E+02 -0.87330567054E+03  0.87536433699E+03  0.47000000000E+01 0.  1.
         13    1    4    4    0    0  0.43293426614E+02 -0.15858547447E+02 -0.42686516917E+03  0.42934797887E+03  0.00000000000E+00 0. -1.
        -14    1    4    4    0    0  0.10569696435E+02  0.62782570567E+02 -0.62547831946E+03  0.62871018583E+03  0.00000000000E+00 0.  1.
</event>
<event>
12    1  0.8135779E-002  0.2098467E+03  0.7818608E-02  0.1141781E+00
         21   -1    0    0  503  502  0.00000000000E+00  0.00000000000E+00  0.96115144570E+02  0.96115144570E+02  0.00000000000E+00 0. -1.
         21   -1    0    0  501  503 -0.00000000000E+00 -0.00000000000E+00 -0.49776422770E+03  0.49776422770E+03  0.00000000000E+00 0. -1.
          6    2    1    2  501    0 -0.74658460523E+02 -0.92399973578E+02 -0.28546119121E+03  0.35401423685E+03  0.17241330390E+03 0.  0.
         24    2    3    3    0    0 -0.34808389921E+02 -0.79584407140E+02 -0.81139586713E+02  0.14539574550E+03  0.83731645206E+02 0.  0.
         -6    2    1    2    0  502  0.74658460523E+02  0.92399973578E+02 -0.11618789193E+03  0.23986513542E+03  0.17298559511E+03 0.  0.
        -24    2    5    5    0    0  0.92606498804E+02  0.10079324911E+03 -0.13814440069E+03  0.20991922703E+03  0.79037736241E+02 0.  0.
          5    1    3    3  501    0 -0.39850070602E+02 -0.12815566438E+02 -0.20432160450E+03  0.20861849135E+03  0.47000000000E+01 0. -1.
        -13    1    4    4    0    0 -0.16618514233E+02 -0.66976005133E+02 -0.96370136521E+02  0.11852916726E+03  0.00000000000E+00 0.  1.
         14    1    4    4    0    0 -0.18189875688E+02 -0.12608402007E+02  0.15230549809E+02  0.26866578237E+02  0.00000000000E+00 0. -1.
         -5    1    5    5    0  502 -0.17948038281E+02 -0.83932755286E+01  0.21956508763E+02  0.29945908390E+02  0.47000000000E+01 0.  1.
         13    1    6    6    0    0  0.97475055169E+02  0.72964143404E+02 -0.81197634044E+02  0.14634961010E+03  0.00000000000E+00 0. -1.
        -14    1    6    6    0    0 -0.48685563650E+01  0.27829105703E+02 -0.56946766645E+02  0.63569616930E+02  0.00000000000E+00 0.  1.
</event>
<event>
12    1  0.8135779E-002  0.2186566E+03  0.7818608E-02  0.1138791E+00
         21   -1    0    0  503  502  0.00000000000E+00  0.00000000000E+00  0.24827926830E+03  0.24827926830E+03  0.00000000000E+00 0. -1.
         21   -1    0    0  501  503 -0.00000000000E+00 -0.00000000000E+00 -0.30437526078E+03  0.30437526078E+03  0.00000000000E+00 0. -1.
          6    2    1    2  501    0  0.90126601802E+02 -0.42989629077E+02 -0.20845461213E+03  0.30209934638E+03  0.19452448998E+03 0.  0.
         24    2    3    3    0    0  0.12280634594E+03 -0.63345858135E+02 -0.10392501158E+03  0.19060553879E+03  0.80224479051E+02 0.  0.
         -6    2    1    2    0  502 -0.90126601802E+02  0.42989629077E+02  0.15235861965E+03  0.25055518271E+03  0.17202859658E+03 0.  0.
        -24    2    5    5    0    0 -0.45328073176E+02 -0.12747742166E+02  0.13805368357E+02  0.94565900504E+02  0.80839236726E+02 0.  0.
          5    1    3    3  501    0 -0.32679744142E+02  0.20356229058E+02 -0.10452960055E+03  0.11149380759E+03  0.47000000000E+01 0. -1.
        -13    1    4    4    0    0  0.52987278305E+02  0.92024003402E+01 -0.60514044153E+02  0.80958541081E+02  0.00000000000E+00 0.  1.
         14    1    4    4    0    0  0.69819067639E+02 -0.72548258475E+02 -0.43410967422E+02  0.10964699771E+03  0.00000000000E+00 0. -1.
         -5    1    5    5    0  502 -0.44798528627E+02  0.55737371243E+02  0.13855325129E+03  0.15598928221E+03  0.47000000000E+01 0.  1.
         13    1    6    6    0    0 -0.86800708783E+01  0.24559543218E+01  0.43868369504E+02  0.44786261119E+02  0.00000000000E+00 0. -1.
        -14    1    6    6    0    0 -0.36648002298E+02 -0.15203696487E+02 -0.30063001148E+02  0.49779639385E+02  0.00000000000E+00 0.  1.
</event>
<event>
12    1  0.8135779E-002  0.2692867E+03  0.7818608E-02  0.1101691E+00
         21   -1    0    0  503  502  0.00000000000E+00  0.00000000000E+00  0.67682061379E+03  0.67682061379E+03  0.00000000000E+00 0.  1.
         21   -1    0    0  501  503 -0.00000000000E+00 -0.00000000000E+00 -0.33480065820E+03  0.33480065820E+03  0.00000000000E+00 0. -1.
          6    2    1    2  501    0  0.20317368724E+02  0.20613470407E+03 -0.24609285606E+03  0.36479726088E+03  0.17207857521E+03 0.  0.
         24    2    3    3    0    0  0.74908560462E+02  0.13058414134E+03 -0.19174523125E+03  0.25679800131E+03  0.80718457439E+02 0.  0.
         -6    2    1    2    0  502 -0.20317368724E+02 -0.20613470407E+03  0.58811281166E+03  0.64682401111E+03  0.17204740748E+03 0.  0.
        -24    2    5    5    0    0  0.89590088661E+01 -0.17860991237E+03  0.31617745578E+03  0.37189556911E+03  0.79726821993E+02 0.  0.
          5    1    3    3  501    0 -0.54591191738E+02  0.75550562734E+02 -0.54347624809E+02  0.10799925957E+03  0.47000000000E+01 0. -1.
        -11    1    4    4    0    0  0.75012151748E+02  0.85260047009E+02 -0.88271864884E+02  0.14383330858E+03  0.00000000000E+00 0.  1.
         12    1    4    4    0    0 -0.10359128624E+00  0.45324094329E+02 -0.10347336636E+03  0.11296469274E+03  0.00000000000E+00 0. -1.
         -5    1    5    5    0  502 -0.29276377590E+02 -0.27524791698E+02  0.27193535588E+03  0.27492844200E+03  0.47000000000E+01 0.  1.
         11    1    6    6    0    0  0.12505411250E+02 -0.66629957631E+02  0.53625108042E+02  0.86438352466E+02  0.00000000000E+00 0. -1.
        -12    1    6    6    0    0 -0.35464023840E+01 -0.11197995474E+03  0.26255234774E+03  0.28545721665E+03  0.00000000000E+00 0.  1.
</event>
<event>
12    1  0.8135779E-002  0.3070750E+03  0.7818608E-02  0.1081821E+00
         21   -1    0    0  503  502  0.00000000000E+00  0.00000000000E+00  0.35359264884E+03  0.35359264884E+03  0.00000000000E+00 0. -1.
         21   -1    0    0  501  503 -0.00000000000E+00 -0.00000000000E+00 -0.34144814337E+03  0.34144814337E+03  0.00000000000E+00 0. -1.
          6    2    1    2  501    0  0.10301537742E+02  0.25353648280E+03 -0.15705615890E+03  0.34443570536E+03  0.17199548917E+03 0.  0.
         24    2    3    3    0    0  0.39117884511E+02  0.47738807780E+02 -0.44817362461E+02  0.10820974932E+03  0.76756440858E+02 0.  0.
         -6    2    1    2    0  502 -0.10301537742E+02 -0.25353648280E+03  0.16920066437E+03  0.35060508685E+03  0.17293985171E+03 0.  0.
        -24    2    5    5    0    0 -0.47398946677E+02 -0.14649213323E+03  0.16206692207E+03  0.23699306810E+03  0.78698296389E+02 0.  0.
          5    1    3    3  501    0 -0.28816346769E+02  0.20579767502E+03 -0.11223879644E+03  0.23622595604E+03  0.47000000000E+01 0. -1.
        -13    1    4    4    0    0  0.10613439128E+02  0.29399249238E+02  0.18550351298E+02  0.36346615787E+02  0.00000000000E+00 0.  1.
         14    1    4    4    0    0  0.28504445383E+02  0.18339558542E+02 -0.63367713760E+02  0.71863133533E+02  0.00000000000E+00 0. -1.
         -5    1    5    5    0  502  0.37097408935E+02 -0.10704434957E+03  0.71337423031E+01  0.11361201874E+03  0.47000000000E+01 0.  1.
         11    1    6    6    0    0 -0.95364141414E+01 -0.43266385982E+02  0.40531836374E+01  0.44489905015E+02  0.00000000000E+00 0. -1.
        -12    1    6    6    0    0 -0.37862532536E+02 -0.10322574725E+03  0.15801373843E+03  0.19250316309E+03  0.00000000000E+00 0.  1.
</event>
<event>
12    1  0.8135779E-002  0.1907481E+03  0.7818608E-02  0.1158250E+00
         21   -1    0    0  503  502  0.00000000000E+00  0.00000000000E+00  0.10229810359E+04  0.10229810359E+04  0.00000000000E+00 0. -1.
         21   -1    0    0  501  503 -0.00000000000E+00 -0.00000000000E+00 -0.35187264234E+02  0.35187264234E+02  0.00000000000E+00 0. -1.
          6    2    1    2  501    0 -0.56778758696E+02  0.51963356200E+02  0.48889035944E+03  0.52404335455E+03  0.17228939628E+03 0.  0.
         24    2    3    3    0    0 -0.45607409495E+02 -0.35778907250E+02  0.28543467807E+03  0.30214290814E+03  0.80356801118E+02 0.  0.
         -6    2    1    2    0  502  0.56778758696E+02 -0.51963356200E+02  0.49890341222E+03  0.53412494558E+03  0.17453029805E+03 0.  0.
        -24    2    5    5    0    0  0.88748364351E+02 -0.74698775761E+02  0.44742202231E+03  0.46922981097E+03  0.80832977069E+02 0.  0.
          5    1    3    3  501    0 -0.11171349200E+02  0.87742263451E+02  0.20345568137E+03  0.22190044641E+03  0.47000000000E+01 0. -1.
        -11    1    4    4    0    0  0.58062556023E+01 -0.42660329321E+02  0.87420768449E+02  0.97447457936E+02  0.00000000000E+00 0.  1.
         12    1    4    4    0    0 -0.51413665098E+02  0.68814220712E+01  0.19801390962E+03  0.20469545020E+03  0.00000000000E+00 0. -1.
         -5    1    5    5    0  502 -0.31969605656E+02  0.22735419561E+02  0.51481389914E+02  0.64895134608E+02  0.47000000000E+01 0.  1.
         11    1    6    6    0    0  0.20140101580E+02 -0.69363500270E+02  0.21277299648E+03  0.22469816843E+03  0.00000000000E+00 0. -1.
        -12    1    6    6    0    0  0.68608262772E+02 -0.53352754909E+01  0.23464902582E+03  0.24453164254E+03  0.00000000000E+00 0.  1.
</event>
<event>
12    1  0.8135779E-002  0.1761851E+03  0.7818608E-02  0.1171568E+00
         21   -1    0    0  501  502  0.00000000000E+00  0.00000000000E+00  0.19146589318E+03  0.19146589318E+03  0.00000000000E+00 0.  1.
         21   -1    0    0  502  503 -0.00000000000E+00 -0.00000000000E+00 -0.39212329899E+03  0.39212329899E+03  0.00000000000E+00 0.  1.
         -6    2    1    2    0  503 -0.32664130585E+02  0.23586438076E+02 -0.32383161619E+03  0.36861692201E+03  0.17143002671E+03 0.  0.
        -24    2    3    3    0    0  0.33678367960E+02 -0.46264338605E+01 -0.79986995000E+02  0.11429511300E+03  0.74228142417E+02 0.  0.
          6    2    1    2  501    0  0.32664130585E+02 -0.23586438076E+02  0.12317421037E+03  0.21497227016E+03  0.17151654541E+03 0.  0.
         24    2    5    5    0    0 -0.20819961918E+02  0.15116129242E+02  0.10738238089E+02  0.84502447092E+02  0.79770831948E+02 0.  0.
          5    1    5    5  501    0  0.53484092503E+02 -0.38702567317E+02  0.11243597229E+03  0.13046982307E+03  0.47000000000E+01 0. -1.
        -13    1    6    6    0    0  0.22637790628E+02  0.21123846099E+02  0.23434483445E+02  0.38831191752E+02  0.00000000000E+00 0.  1.
         14    1    6    6    0    0 -0.43457752546E+02 -0.60077168574E+01 -0.12696245356E+02  0.45671255340E+02  0.00000000000E+00 0. -1.
         -5    1    3    3    0  503 -0.66342498545E+02  0.28212871936E+02 -0.24384462119E+03  0.25432180901E+03  0.47000000000E+01 0.  1.
         11    1    4    4    0    0  0.16660865789E+02  0.24661211070E+02 -0.74180738419E+02  0.79928353746E+02  0.00000000000E+00 0. -1.
        -12    1    4    4    0    0  0.17017502172E+02 -0.29287644931E+02 -0.58062565815E+01  0.34366759249E+02  0.00000000000E+00 0.  1.
</event>
<event>
12    1  0.8135779E-002  0.1763560E+03  0.7818608E-02  0.1173219E+00
         21   -1    0    0  501  502  0.00000000000E+00  0.00000000000E+00  0.46551915483E+02  0.46551915483E+02  0.00000000000E+00 0.  1.
         21   -1    0    0  502  503 -0.00000000000E+00 -0.00000000000E+00 -0.94778483505E+03  0.94778483505E+03  0.00000000000E+00 0.  1.
         -6    2    1    2    0  503 -0.56934298678E+01 -0.19249367738E+02 -0.72707131494E+03  0.74647851238E+03  0.16791223640E+03 0.  0.
        -24    2    3    3    0    0  0.37839234232E+02  0.30335532768E+02 -0.29826818713E+03  0.31260299150E+03  0.80029161199E+02 0.  0.
          6    2    1    2  501    0  0.56934298678E+01  0.19249367738E+02 -0.17416160462E+03  0.24785823815E+03  0.17520984102E+03 0.  0.
         24    2    5    5    0    0  0.71930683914E+02  0.14613931634E+01 -0.99923684427E+02  0.14667946242E+03  0.79711749625E+02 0.  0.
          5    1    5    5  501    0 -0.66237254046E+02  0.17787974575E+02 -0.74237920193E+02  0.10117877573E+03  0.47000000000E+01 0. -1.
        -11    1    6    6    0    0  0.25567103010E+02 -0.19372110442E+02 -0.89116725627E+02  0.94714023279E+02  0.00000000000E+00 0.  1.
         12    1    6    6    0    0  0.46363580903E+02  0.20833503605E+02 -0.10806958800E+02  0.51965439141E+02  0.00000000000E+00 0. -1.
         -5    1    3    3    0  503 -0.43532664099E+02 -0.49584900506E+02 -0.42880312781E+03  0.43387552089E+03  0.47000000000E+01 0.  1.
         13    1    4    4    0    0  0.19943357430E+02 -0.66908250104E+01 -0.13756549728E+02  0.25134583850E+02  0.00000000000E+00 0. -1.
        -14    1    4    4    0    0  0.17895876802E+02  0.37026357778E+02 -0.28451163740E+03  0.28746840765E+03  0.00000000000E+00 0.  1.
</event>
<event>
12    1  0.8135779E-002  0.2417882E+03  0.7818608E-02  0.1118887E+00
         21   -1    0    0  503  502  0.00000000000E+00  0.00000000000E+00  0.17950200781E+03  0.17950200781E+03  0.00000000000E+00 0. -1.
         21   -1    0    0  501  503 -0.00000000000E+00 -0.00000000000E+00 -0.38855711352E+03  0.38855711352E+03  0.00000000000E+00 0. -1.
          6    2    1    2  501    0  0.15333656087E+03 -0.67642837075E+02 -0.22051792949E+03  0.32599937341E+03  0.17192957840E+03 0.  0.
         24    2    3    3    0    0  0.46431135228E+02 -0.57691634031E+02 -0.41848537985E+02  0.11749844311E+03  0.81058059728E+02 0.  0.
         -6    2    1    2    0  502 -0.15333656087E+03  0.67642837075E+02  0.11462823784E+02  0.24205974792E+03  0.17428101138E+03 0.  0.
        -24    2    5    5    0    0 -0.13852962010E+03  0.13423021716E+02 -0.40297831190E+02  0.16550722167E+03  0.79988074543E+02 0.  0.
          5    1    3    3  501    0  0.10690542564E+03 -0.99512030441E+01 -0.17866939150E+03  0.20850093030E+03  0.47000000000E+01 0. -1.
        -13    1    4    4    0    0 -0.19248833759E+02  0.18744900202E+01  0.25594840974E+00  0.19341582756E+02  0.00000000000E+00 0.  1.
         14    1    4    4    0    0  0.65679968987E+02 -0.59566124051E+02 -0.42104486395E+02  0.98156860357E+02  0.00000000000E+00 0. -1.
         -5    1    5    5    0  502 -0.14806940773E+02  0.54219815359E+02  0.51760654974E+02  0.76552526255E+02  0.47000000000E+01 0.  1.
         11    1    6    6    0    0 -0.42092136006E+02 -0.15258805127E+02  0.19092919835E+02  0.48673592791E+02  0.00000000000E+00 0. -1.
        -12    1    6    6    0    0 -0.96437484093E+02  0.28681826843E+02 -0.59390751025E+02  0.11683362888E+03  0.00000000000E+00 0.  1.
</event>
<event>
12    1  0.8135779E-002  0.2152237E+03  0.7818608E-02  0.1137915E+00
         21   -1    0    0  503  502  0.00000000000E+00  0.00000000000E+00  0.19790786391E+03  0.19790786391E+03  0.00000000000E+00 0.  1.
         21   -1    0    0  501  503 -0.00000000000E+00 -0.00000000000E+00 -0.26537501696E+03  0.26537501696E+03  0.00000000000E+00 0. -1.
          6    2    1    2  501    0 -0.11600293854E+03 -0.50419174933E+02 -0.11640904492E+03  0.24468821117E+03  0.17413351199E+03 0.  0.
         24    2    3    3    0    0 -0.10170165245E+03 -0.28907276702E+02 -0.50182413235E+01  0.13024482047E+03  0.75892514495E+02 0.  0.
         -6    2    1    2    0  502  0.11600293854E+03  0.50419174933E+02  0.48941891864E+02  0.21859466970E+03  0.17143379449E+03 0.  0.
        -24    2    5    5    0    0  0.10356176768E+03 -0.22418150400E+02  0.51614682176E+02  0.14450490994E+03  0.83606102580E+02 0.  0.
          5    1    3    3  501    0 -0.14301286087E+02 -0.21511898231E+02 -0.11139080359E+03  0.11444339070E+03  0.47000000000E+01 0. -1.
        -13    1    4    4    0    0 -0.50598717615E+02 -0.33358840247E+02  0.30504289005E+02  0.67849495906E+02  0.00000000000E+00 0.  1.
         14    1    4    4    0    0 -0.51102934835E+02  0.44515635452E+01 -0.35522530329E+02  0.62395324566E+02  0.00000000000E+00 0. -1.
         -5    1    5    5    0  502  0.12441170861E+02  0.72837325333E+02 -0.26727903121E+01  0.74089759765E+02  0.47000000000E+01 0.  1.
         11    1    6    6    0    0 -0.13322046548E+02 -0.10737515555E+02  0.10373610369E+02  0.20009571625E+02  0.00000000000E+00 0. -1.
        -12    1    6    6    0    0  0.11688381422E+03 -0.11680634845E+02  0.41241071807E+02  0.12449533831E+03  0.00000000000E+00 0.  1.
</event>
<event>
12    1  0.8135779E-002  0.2324498E+03  0.7818608E-02  0.1124941E+00
         21   -1    0    0  503  502  0.00000000000E+00  0.00000000000E+00  0.17285602405E+03  0.17285602405E+03  0.00000000000E+00 0. -1.
         21   -1    0    0  501  503 -0.00000000000E+00 -0.00000000000E+00 -0.71212870016E+03  0.71212870016E+03  0.00000000000E+00 0. -1.
          6    2    1    2  501    0  0.14097262950E+03  0.69086389166E+02 -0.60110084592E+03  0.64445275392E+03  0.17132108348E+03 0.  0.
         24    2    3    3    0    0  0.12461145580E+03 -0.94370199733E+01 -0.34148655398E+03  0.37268946655E+03  0.81653534312E+02 0.  0.
         -6    2    1    2    0  502 -0.14097262950E+03 -0.69086389166E+02  0.61828169810E+02  0.24053197028E+03  0.17142547859E+03 0.  0.
        -24    2    5    5    0    0 -0.16813319933E+03 -0.69161698596E+02  0.33557380724E+02  0.20104741962E+03  0.79005404023E+02 0.  0.
          5    1    3    3  501    0  0.16361173700E+02  0.78523409139E+02 -0.25961429194E+03  0.27176328738E+03  0.47000000000E+01 0. -1.
        -13    1    4    4    0    0  0.14309540448E+02 -0.33726367796E+01 -0.15678960507E+03  0.15747735674E+03  0.00000000000E+00 0.  1.
         14    1    4    4    0    0  0.11030191535E+03 -0.60643831937E+01 -0.18469694891E+03  0.21521210981E+03  0.00000000000E+00 0. -1.
         -5    1    5    5    0  502  0.27160569836E+02  0.75309430391E-01  0.28270789086E+02  0.39484550660E+02  0.47000000000E+01 0.  1.
         13    1    6    6    0    0 -0.46538774169E+02 -0.18273611656E+01  0.40726289395E+02  0.61869438319E+02  0.00000000000E+00 0. -1.
        -14    1    6    6    0    0 -0.12159442516E+03 -0.67334337431E+02 -0.71689086707E+01  0.13917798130E+03  0.00000000000E+00 0.  1.
</event>
<event>
12    1  0.8135779E-002  0.2183019E+03  0.7818608E-02  0.1135458E+00
         21   -1    0    0  503  502  0.00000000000E+00  0.00000000000E+00  0.50756289855E+02  0.50756289855E+02  0.00000000000E+00 0. -1.
         21   -1    0    0  501  503 -0.00000000000E+00 -0.00000000000E+00 -0.17200173896E+04  0.17200173896E+04  0.00000000000E+00 0.  1.
          6    2    1    2  501    0  0.43858170652E+02 -0.12369513284E+03 -0.14355690219E+04  0.14520723618E+04  0.17444684639E+03 0.  0.
         24    2    3    3    0    0 -0.20938277791E+02 -0.40652338145E+02 -0.98515026431E+03  0.98947768751E+03  0.80336957497E+02 0.  0.
         -6    2    1    2    0  502 -0.43858170652E+02  0.12369513284E+03 -0.23369207790E+03  0.31870131771E+03  0.17243699609E+03 0.  0.
        -24    2    5    5    0    0 -0.23045645350E+02  0.14241149300E+03 -0.23834849257E+03  0.28993961497E+03  0.80267311605E+02 0.  0.
          5    1    3    3  501    0  0.64796448442E+02 -0.83042794699E+02 -0.45041875756E+03  0.46259467425E+03  0.47000000000E+01 0. -1.
        -11    1    4    4    0    0 -0.28964442740E+02 -0.55289747106E+02 -0.47866443756E+03  0.48271683093E+03  0.00000000000E+00 0.  1.
         12    1    4    4    0    0  0.80261649491E+01  0.14637408962E+02 -0.50648582674E+03  0.50676085657E+03  0.00000000000E+00 0. -1.
         -5    1    5    5    0  502 -0.20812525301E+02 -0.18716360160E+02  0.46564146712E+01  0.28761702743E+02  0.47000000000E+01 0.  1.
         13    1    6    6    0    0  0.22919929696E+02  0.65024261286E+02 -0.14337156013E+03  0.15908765504E+03  0.00000000000E+00 0. -1.
        -14    1    6    6    0    0 -0.45965575046E+02  0.77387231718E+02 -0.94976932439E+02  0.13085195993E+03  0.00000000000E+00 0.  1.
</event>
<event>
12    1  0.8135779E-002  0.2005423E+03  0.7818608E-02  0.1150030E+00
         21   -1    0    0  503  502  0.00000000000E+00  0.00000000000E+00  0.13192218838E+03  0.13192218838E+03  0.00000000000E+00 0.  1.
         21   -1    0    0  501  503 -0.00000000000E+00 -0.00000000000E+00 -0.30561515398E+03  0.30561515398E+03  0.00000000000E+00 0.  1.
          6    2    1    2  501    0  0.10225478750E+03 -0.15774032138E+02 -0.11698240313E+03  0.22913076786E+03  0.16766384368E+03 0.  0.
         24    2    3    3    0    0  0.10046493139E+03  0.27827746236E+02 -0.37135644715E+02  0.13801593102E+03  0.82472754332E+02 0.  0.
         -6    2    1    2    0  502 -0.10225478750E+03  0.15774032138E+02 -0.56710562459E+02  0.20840657450E+03  0.17179159102E+03 0.  0.
        -24    2    5    5    0    0 -0.61537341412E+02  0.75976324091E+02 -0.47135025585E+02  0.13494905427E+03  0.80189091535E+02 0.  0.
          5    1    3    3  501    0  0.17898561133E+01 -0.43601778374E+02 -0.79846758417E+02  0.91114836838E+02  0.47000000000E+01 0. -1.
        -13    1    4    4    0    0  0.93289053360E+02  0.26518400848E+02 -0.59981094171E+02  0.11403422608E+03  0.00000000000E+00 0.  1.
         14    1    4    4    0    0  0.71758780276E+01  0.13093453885E+01  0.22845449455E+02  0.23981704936E+02  0.00000000000E+00 0. -1.
         -5    1    5    5    0  502 -0.40717446089E+02 -0.60202291953E+02 -0.95755368735E+01  0.73457520233E+02  0.47000000000E+01 0.  1.
         13    1    6    6    0    0  0.10367551519E+02  0.48125788298E+02 -0.15633601445E+02  0.51652561582E+02  0.00000000000E+00 0. -1.
        -14    1    6    6    0    0 -0.71904892932E+02  0.27850535793E+02 -0.31501424141E+02  0.83296492689E+02  0.00000000000E+00 0.  1.
</event>
<event>
12    1  0.8135779E-002  0.2797892E+03  0.7818608E-02  0.1097536E+00
         21   -1    0    0  501  502  0.00000000000E+00  0.00000000000E+00  0.81368058012E+03  0.81368058012E+03  0.00000000000E+00 0. -1.
         21   -1    0    0  502  503 -0.00000000000E+00 -0.00000000000E+00 -0.16743661776E+03  0.16743661776E+03  0.00000000000E+00 0.  1.
         -6    2    1    2    0  503 -0.46169753496E+02 -0.21612527015E+03 -0.10117070868E+02  0.26761049715E+03  0.15056973311E+03 0.  0.
        -24    2    3    3    0    0 -0.70687521274E+02 -0.21054212612E+03 -0.25502658367E+02  0.23775922018E+03  0.80958931945E+02 0.  0.
          6    2    1    2  501    0  0.46169753496E+02  0.21612527015E+03  0.65636103323E+03  0.71350670073E+03  0.17158154768E+03 0.  0.
         24    2    5    5    0    0  0.47061343700E+02  0.21128290634E+03  0.44167055397E+03  0.49870834108E+03  0.82352259474E+02 0.  0.
          5    1    5    5  501    0 -0.89159020366E+00  0.48423638115E+01  0.21469047926E+03  0.21479835965E+03  0.47000000000E+01 0. -1.
        -11    1    6    6    0    0  0.21429979923E+02  0.26199972043E+02  0.25058876415E+02  0.42114485177E+02  0.00000000000E+00 0.  1.
         12    1    6    6    0    0  0.25631363777E+02  0.18508293429E+03  0.41661167755E+03  0.45659385590E+03  0.00000000000E+00 0. -1.
         -5    1    3    3    0  503  0.24517767778E+02 -0.55831440272E+01  0.15385587499E+02  0.29851276969E+02  0.47000000000E+01 0.  1.
         11    1    4    4    0    0 -0.64526395417E+02 -0.10121021255E+03  0.15084926193E+02  0.12097403783E+03  0.00000000000E+00 0. -1.
        -12    1    4    4    0    0 -0.61611258571E+01 -0.10933191357E+03 -0.40587584560E+02  0.11678518235E+03  0.00000000000E+00 0.  1.
</event>
<event>
12    1  0.8135779E-002  0.2363953E+03  0.7818608E-02  0.1122532E+00
         21   -1    0    0  501  502  0.00000000000E+00  0.00000000000E+00  0.23576743346E+03  0.23576743346E+03  0.00000000000E+00 0.  1.
         21   -1    0    0  502  503 -0.00000000000E+00 -0.00000000000E+00 -0.57945042630E+03  0.57945042630E+03  0.00000000000E+00 0. -1.
         -6    2    1    2    0  503  0.93767704413E+02  0.13320772922E+03 -0.48629665051E+03  0.54070988940E+03  0.17130694875E+03 0.  0.
        -24    2    3    3    0    0  0.82262863549E+01  0.53442019906E+02 -0.10466714229E+03  0.14153189135E+03  0.78436881095E+02 0.  0.
          6    2    1    2  501    0 -0.93767704413E+02 -0.13320772922E+03  0.14261365767E+03  0.27450797036E+03  0.16875807809E+03 0.  0.
         24    2    5    5    0    0 -0.11950084342E+03 -0.14758436746E+03  0.12457381589E+03  0.23963092832E+03  0.76437877429E+02 0.  0.
          5    1    5    5  501    0  0.25733139009E+02  0.14376638233E+02  0.18039841785E+02  0.34877042044E+02  0.47000000000E+01 0. -1.
        -11    1    6    6    0    0 -0.41112519257E+02 -0.49340876652E+02  0.87600187519E+02  0.10862114988E+03  0.00000000000E+00 0.  1.
         12    1    6    6    0    0 -0.78388324165E+02 -0.98243490806E+02  0.36973628366E+02  0.13100977844E+03  0.00000000000E+00 0. -1.
         -5    1    3    3    0  503  0.85541418058E+02  0.79765709318E+02 -0.38162950821E+03  0.39917799805E+03  0.47000000000E+01 0.  1.
         11    1    4    4    0    0 -0.25399045559E+02  0.24307420389E+02 -0.86687070047E+02  0.93544696882E+02  0.00000000000E+00 0. -1.
        -12    1    4    4    0    0  0.33625331914E+02  0.29134599517E+02 -0.17980072243E+02  0.47987194471E+02  0.00000000000E+00 0.  1.
</event>
<event>
12    1  0.8135779E-002  0.2180024E+03  0.7818608E-02  0.1135627E+00
         21   -1    0    0  503  502  0.00000000000E+00  0.00000000000E+00  0.17963099835E+04  0.17963099835E+04  0.00000000000E+00 0. -1.
         21   -1    0    0  501  503 -0.00000000000E+00 -0.00000000000E+00 -0.53370094614E+02  0.53370094614E+02  0.00000000000E+00 0. -1.
          6    2    1    2  501    0  0.81676966737E+02 -0.10546598548E+03  0.21151762208E+03  0.30281899875E+03  0.17077892307E+03 0.  0.
         24    2    3    3    0    0  0.83178132567E+02 -0.85085515951E+02  0.23246290172E+03  0.27318098639E+03  0.80191669713E+02 0.  0.
         -6    2    1    2    0  502 -0.81676966737E+02  0.10546598548E+03  0.15314222668E+04  0.15468610794E+04  0.17242632801E+03 0.  0.
        -24    2    5    5    0    0  0.20744818553E+02  0.72789571683E+02  0.81495205625E+03  0.82235461098E+03  0.79947376228E+02 0.  0.
          5    1    3    3  501    0 -0.15011658303E+01 -0.20380469530E+02 -0.20945279639E+02  0.29638012354E+02  0.47000000000E+01 0. -1.
        -13    1    4    4    0    0  0.90002736334E+02 -0.65584869863E+02  0.14238044400E+03  0.18075967066E+03  0.00000000000E+00 0.  1.
         14    1    4    4    0    0 -0.68246037668E+01 -0.19500646088E+02  0.90082457716E+02  0.92421315737E+02  0.00000000000E+00 0. -1.
         -5    1    5    5    0  502 -0.10242178529E+03  0.32676413798E+02  0.71647021056E+03  0.72450646839E+03  0.47000000000E+01 0.  1.
         11    1    6    6    0    0 -0.23301776015E+02  0.29565454079E+02  0.49989706082E+03  0.50131243777E+03  0.00000000000E+00 0. -1.
        -12    1    6    6    0    0  0.44046594567E+02  0.43224117604E+02  0.31505499543E+03  0.32104217321E+03  0.00000000000E+00 0.  1.
</event>
<event>
12    1  0.8135779E-002  0.1893321E+03  0.7818608E-02  0.1159304E+00
         21   -1    0    0  503  502  0.00000000000E+00  0.00000000000E+00  0.46355723955E+02  0.46355723955E+02  0.00000000000E+00 0.  1.
         21   -1    0    0  501  503 -0.00000000000E+00 -0.00000000000E+00 -0.91852515021E+03  0.91852515021E+03  0.00000000000E+00 0. -1.
          6    2    1    2  501    0  0.11368776155E+02 -0.76779194275E+02 -0.62971439495E+03  0.65725921004E+03  0.17153762337E+03 0.  0.
         24    2    3    3    0    0 -0.26582056146E+02 -0.88647452019E+00 -0.16589133118E+03  0.18571504979E+03  0.79137566370E+02 0.  0.
         -6    2    1    2    0  502 -0.11368776155E+02  0.76779194275E+02 -0.24245503130E+03  0.30762166412E+03  0.17269149455E+03 0.  0.
        -24    2    5    5    0    0  0.24149771939E+02  0.11111995347E+03 -0.19024662432E+03  0.23558929112E+03  0.79860381175E+02 0.  0.
          5    1    3    3  501    0  0.37950832302E+02 -0.75892719755E+02 -0.46382306377E+03  0.47154416025E+03  0.47000000000E+01 0. -1.
        -13    1    4    4    0    0 -0.30533917501E+02 -0.35237598985E+02 -0.11593169125E+03  0.12495665463E+03  0.00000000000E+00 0.  1.
         14    1    4    4    0    0  0.39518613548E+01  0.34351124465E+02 -0.49959639927E+02  0.60758395155E+02  0.00000000000E+00 0. -1.
         -5    1    5    5    0  502 -0.35518548094E+02 -0.34340759194E+02 -0.52208406981E+02  0.72032373001E+02  0.47000000000E+01 0.  1.
         11    1    6    6    0    0 -0.25199438778E+01  0.67228055134E+01 -0.83867043418E+02  0.84173791663E+02  0.00000000000E+00 0. -1.
        -12    1    6    6    0    0  0.26669715817E+02  0.10439714796E+03 -0.10637958090E+03  0.15141549946E+03  0.00000000000E+00 0.  1.
</event>
<event>
12    1  0.8135779E-002  0.2137847E+03  0.7818608E-02  0.1138609E+00
         21   -1    0    0  503  502  0.00000000000E+00  0.00000000000E+00  0.10272514404E+03  0.10272514404E+03  0.00000000000E+00 0. -1.
         21   -1    0    0  501  503 -0.00000000000E+00 -0.00000000000E+00 -0.44736604907E+03  0.44736604907E+03  0.00000000000E+00 0.  1.
          6    2    1    2  501    0 -0.11635587530E+03  0.50133663723E+02 -0.19291965479E+03  0.28794002930E+03  0.17216095177E+03 0.  0.
         24    2    3    3    0    0 -0.10196458216E+03  0.34041749213E+02 -0.21593069354E+03  0.25603929365E+03  0.85874552527E+02 0.  0.
         -6    2    1    2    0  502  0.11635587530E+03 -0.50133663723E+02 -0.15172125024E+03  0.26215116381E+03  0.17219704108E+03 0.  0.
        -24    2    5    5    0    0  0.60719004406E+02  0.17520629277E+02 -0.19184209404E+02  0.10321494403E+03  0.79319107622E+02 0.  0.
          5    1    3    3  501    0 -0.14391293132E+02  0.16091914510E+02  0.23011038754E+02  0.31900735652E+02  0.47000000000E+01 0. -1.
        -13    1    4    4    0    0 -0.33925118440E+02 -0.28866431648E+02 -0.79184286927E+02  0.90853375466E+02  0.00000000000E+00 0.  1.
         14    1    4    4    0    0 -0.68039463723E+02  0.62908180861E+02 -0.13674640662E+03  0.16518591818E+03  0.00000000000E+00 0. -1.
         -5    1    5    5    0  502  0.55636870890E+02 -0.67654293001E+02 -0.13253704084E+03  0.15893621978E+03  0.47000000000E+01 0.  1.
         13    1    6    6    0    0  0.27947010644E+02  0.47148197200E+02  0.59114199129E+00  0.54811835875E+02  0.00000000000E+00 0. -1.
        -14    1    6    6    0    0  0.32771993763E+02 -0.29627567922E+02 -0.19775351395E+02  0.48403108154E+02  0.00000000000E+00 0.  1.
</event>
<event>
12    1  0.8135779E-002  0.2646483E+03  0.7818608E-02  0.1104546E+00
         21   -1    0    0  503  502  0.00000000000E+00  0.00000000000E+00  0.91325337432E+02  0.91325337432E+02  0.00000000000E+00 0.  1.
         21   -1    0    0  501  503 -0.00000000000E+00 -0.00000000000E+00 -0.76585858326E+03  0.76585858326E+03  0.00000000000E+00 0.  1.
          6    2    1    2  501    0 -0.19982646883E+03 -0.89728360379E+01 -0.31375000896E+03  0.40974311871E+03  0.17157862854E+03 0.  0.
         24    2    3    3    0    0 -0.18648485686E+03 -0.48465131660E+02 -0.20421954366E+03  0.29245436028E+03  0.81844120196E+02 0.  0.
         -6    2    1    2    0  502  0.19982646883E+03  0.89728360379E+01 -0.36078323687E+03  0.44744080199E+03  0.17328473057E+03 0.  0.
        -24    2    5    5    0    0  0.66707268985E+02  0.44889484139E+02 -0.23306685139E+03  0.25944002513E+03  0.80771553804E+02 0.  0.
          5    1    3    3  501    0 -0.13341611973E+02  0.39492295622E+02 -0.10953046531E+03  0.11728875843E+03  0.47000000000E+01 0. -1.
        -11    1    4    4    0    0 -0.10179176477E+02 -0.21348121008E+02 -0.55079223995E+02  0.59942295754E+02  0.00000000000E+00 0.  1.
         12    1    4    4    0    0 -0.17630568038E+03 -0.27117010651E+02 -0.14914031966E+03  0.23251206452E+03  0.00000000000E+00 0. -1.
         -5    1    5    5    0  502  0.13311919984E+03 -0.35916648101E+02 -0.12771638548E+03  0.18800077685E+03  0.47000000000E+01 0.  1.
         11    1    6    6    0    0 -0.17434762077E+02 -0.84924936478E+00 -0.47727380948E+02  0.50819238929E+02  0.00000000000E+00 0. -1.
        -12    1    6    6    0    0  0.84142031062E+02  0.45738733504E+02 -0.18533947044E+03  0.20862078621E+03  0.00000000000E+00 0.  1.
</event>
<event>
12    1  0.8135779E-002  0.2248860E+03  0.7818608E-02  0.1130300E+00
         21   -1    0    0  501  502  0.00000000000E+00  0.00000000000E+00  0.72032617811E+03  0.72032617811E+03  0.00000000000E+00 0.  1.
         21   -1    0    0  502  503 -0.00000000000E+00 -0.00000000000E+00 -0.19351337530E+03  0.19351337530E+03  0.00000000000E+00 0.  1.
         -6    2    1    2    0  503 -0.13145248480E+03  0.59793312898E+02 -0.10135683899E+03  0.24662832848E+03  0.17232912571E+03 0.  0.
        -24    2    3    3    0    0 -0.11668178544E+03  0.10607522360E+03 -0.69315363226E+02  0.18824224292E+03  0.75920552705E+02 0.  0.
          6    2    1    2  501    0  0.13145248480E+03 -0.59793312898E+02  0.62816964180E+03  0.66721122493E+03  0.17239119398E+03 0.  0.
         24    2    5    5    0    0  0.25122682890E+02 -0.51139634376E+02  0.44052049148E+03  0.45130567488E+03  0.79825418015E+02 0.  0.
          5    1    5    5  501    0  0.10632980191E+03 -0.86536785215E+01  0.18764915032E+03  0.21590555005E+03  0.47000000000E+01 0. -1.
        -11    1    6    6    0    0  0.49468471531E+02 -0.14059582748E+02  0.28410000059E+03  0.28871718321E+03  0.00000000000E+00 0.  1.
         12    1    6    6    0    0 -0.24345788641E+02 -0.37080051628E+02  0.15642049089E+03  0.16258849167E+03  0.00000000000E+00 0. -1.
         -5    1    3    3    0  503 -0.14770699361E+02 -0.46281910703E+02 -0.32041475765E+02  0.58386085561E+02  0.47000000000E+01 0.  1.
         11    1    4    4    0    0 -0.93507694671E+00  0.43253233314E+02 -0.19209194540E+02  0.47336135414E+02  0.00000000000E+00 0. -1.
        -12    1    4    4    0    0 -0.11574670850E+03  0.62821990287E+02 -0.50106168686E+02  0.14090610750E+03  0.00000000000E+00 0.  1.
</event>
<event>
12    1  0.8135779E-002  0.1869847E+03  0.7818608E-02  0.1161212E+00
         21   -1    0    0  501  502  0.00000000000E+00  0.00000000000E+00  0.51071959460E+02  0.51071959460E+02  0.00000000000E+00 0.  1.
         21   -1    0    0  502  503 -0.00000000000E+00 -0.00000000000E+00 -0.10586998544E+04  0.10586998544E+04  0.00000000000E+00 0.  1.
         -6    2    1    2    0  503  0.18823107301E+02  0.68935054289E+02 -0.83369089319E+03  0.85440259225E+03  0.17279158884E+03 0.  0.
        -24    2    3    3    0    0 -0.45721169264E+02  0.35939761771E+02 -0.63833870576E+03  0.64598181570E+03  0.80212911319E+02 0.  0.
          6    2    1    2  501    0 -0.18823107301E+02 -0.68935054289E+02 -0.17393700179E+03  0.25536922165E+03  0.17278022947E+03 0.  0.
         24    2    5    5    0    0  0.50321639186E+02 -0.29686890681E+02 -0.64785271139E+02  0.12024851777E+03  0.82758660094E+02 0.  0.
          5    1    5    5  501    0 -0.69144746487E+02 -0.39248163608E+02 -0.10915173065E+03  0.13512070388E+03  0.47000000000E+01 0. -1.
        -11    1    6    6    0    0 -0.15168150915E+02 -0.27850926015E+02 -0.61047013256E+01  0.32295731302E+02  0.00000000000E+00 0.  1.
         12    1    6    6    0    0  0.65489790101E+02 -0.18359646660E+01 -0.58680569814E+02  0.87952786468E+02  0.00000000000E+00 0. -1.
         -5    1    3    3    0  503  0.64544276565E+02  0.32995292517E+02 -0.19535218743E+03  0.20842077655E+03  0.47000000000E+01 0.  1.
         13    1    4    4    0    0 -0.44290318751E+02  0.16483008902E+01 -0.14928501234E+03  0.15572528421E+03  0.00000000000E+00 0. -1.
        -14    1    4    4    0    0 -0.14308505127E+01  0.34291460881E+02 -0.48905369342E+03  0.49025653149E+03  0.00000000000E+00 0.  1.
</event>
<event>
12    1  0.8135779E-002  0.2421921E+03  0.7818608E-02  0.1118498E+00
         21   -1    0    0  501  502  0.00000000000E+00  0.00000000000E+00  0.12790340535E+04  0.12790340535E+04  0.00000000000E+00 0.  1.
         21   -1    0    0  502  503 -0.00000000000E+00 -0.00000000000E+00 -0.49517496799E+02  0.49517496799E+02  0.00000000000E+00 0. -1.
         -6    2    1    2    0  503  0.15586482973E+03 -0.63097090679E+02  0.80077229754E+03  0.83659624232E+03  0.17430407959E+03 0.  0.
        -24    2    3    3    0    0  0.99447685671E+02 -0.10690424258E+03  0.63047935562E+03  0.65187012947E+03  0.78179847573E+02 0.  0.
          6    2    1    2  501    0 -0.15586482973E+03  0.63097090679E+02  0.42874425921E+03  0.49195530802E+03  0.17298351740E+03 0.  0.
         24    2    5    5    0    0 -0.18201474461E+03  0.66770026687E+02  0.34225216776E+03  0.40139990846E+03  0.79985851582E+02 0.  0.
          5    1    5    5  501    0  0.26149914886E+02 -0.36729360083E+01  0.86492091447E+02  0.90555399565E+02  0.47000000000E+01 0. -1.
        -11    1    6    6    0    0 -0.77924940588E+02  0.68227723816E+02  0.19872038729E+03  0.22409174680E+03  0.00000000000E+00 0.  1.
         12    1    6    6    0    0 -0.10408980403E+03 -0.14576971292E+01  0.14353178048E+03  0.17730816166E+03  0.00000000000E+00 0. -1.
         -5    1    3    3    0  503  0.56417144057E+02  0.43807151902E+02  0.17029294192E+03  0.18472611285E+03  0.47000000000E+01 0.  1.
         13    1    4    4    0    0  0.38883490486E+02 -0.67346829338E+02  0.18693054021E+03  0.20246122621E+03  0.00000000000E+00 0. -1.
        -14    1    4    4    0    0  0.60564195185E+02 -0.39557413243E+02  0.44354881541E+03  0.44940890327E+03  0.00000000000E+00 0.  1.
</event>
<event>
12    1  0.8135779E-002  0.2387344E+03  0.7818608E-02  0.1121294E+00
         21   -1    0    0  503  502  0.00000000000E+00  0.00000000000E+00  0.20402423425E+03  0.20402423425E+03  0.00000000000E+00 0.  1.
         21   -1    0    0  501  503 -0.00000000000E+00 -0.00000000000E+00 -0.55810034464E+03  0.55810034464E+03  0.00000000000E+00 0. -1.
          6    2    1    2  501    0  0.67803858619E+01 -0.16333014771E+03 -0.44779921095E+03  0.50565207391E+03  0.16863325811E+03 0.  0.
         24    2    3    3    0    0  0.58797598848E+02 -0.68895278308E+02 -0.17660900541E+03  0.21377889497E+03  0.79416359387E+02 0.  0.
         -6    2    1    2    0  502 -0.67803858619E+01  0.16333014771E+03  0.93723100567E+02  0.25647250498E+03  0.17398682549E+03 0.  0.
        -24    2    5    5    0    0  0.61928018868E+02  0.76099370678E+02  0.45342685182E+02  0.13525861165E+03  0.81318750530E+02 0.  0.
          5    1    3    3  501    0 -0.52017212986E+02 -0.94434869407E+02 -0.27119020554E+03  0.29187317894E+03  0.47000000000E+01 0. -1.
        -13    1    4    4    0    0  0.30766408860E+02 -0.57627019262E+02 -0.46441614767E+02  0.80151536763E+02  0.00000000000E+00 0.  1.
         14    1    4    4    0    0  0.28031189987E+02 -0.11268259045E+02 -0.13016739065E+03  0.13362735821E+03  0.00000000000E+00 0. -1.
         -5    1    5    5    0  502 -0.68708404730E+02  0.87230777037E+02  0.48380415385E+02  0.12121389333E+03  0.47000000000E+01 0.  1.
         11    1    6    6    0    0  0.55732897524E+02  0.12788956862E+02  0.71780003685E-01  0.57181451856E+02  0.00000000000E+00 0. -1.
        -12    1    6    6    0    0  0.61951213445E+01  0.63310413816E+02  0.45270905178E+02  0.78077159795E+02  0.00000000000E+00 0.  1.
</event>
<event>
12    1  0.8135779E-002  0.1804117E+03  0.7818608E-02  0.1168956E+00
         21   -1    0    0  501  502  0.00000000000E+00  0.00000000000E+00  0.31222368597E+03  0.31222368597E+03  0.00000000000E+00 0.  1.
         21   -1    0    0  502  503 -0.00000000000E+00 -0.00000000000E+00 -0.42702779148E+03  0.42702779148E+03  0.00000000000E+00 0.  1.
         -6    2    1    2    0  503 -0.29050535649E+02 -0.46655176024E+02 -0.38029983014E+03  0.41825872868E+03  0.16520219199E+03 0.  0.
        -24    2    3    3    0    0 -0.59453046307E+02 -0.60102512907E+02 -0.18348908989E+03  0.21860477554E+03  0.83503443092E+02 0.  0.
          6    2    1    2  501    0  0.29050535649E+02  0.46655176024E+02  0.26549572462E+03  0.32099274877E+03  0.17183633463E+03 0.  0.
         24    2    5    5    0    0 -0.45402751258E+01  0.44767281631E+02  0.27091859176E+03  0.28659210631E+03  0.81935513866E+02 0.  0.
          5    1    5    5  501    0  0.33590810775E+02  0.18878943929E+01 -0.54228671410E+01  0.34400642462E+02  0.47000000000E+01 0. -1.
        -11    1    6    6    0    0 -0.28644122491E+02 -0.12560390353E+02  0.92857513910E+02  0.97983503961E+02  0.00000000000E+00 0.  1.
         12    1    6    6    0    0  0.24103847365E+02  0.57327671984E+02  0.17806107786E+03  0.18860860235E+03  0.00000000000E+00 0. -1.
         -5    1    3    3    0  503  0.30402510658E+02  0.13447336883E+02 -0.19681074025E+03  0.19965395313E+03  0.47000000000E+01 0.  1.
         13    1    4    4    0    0 -0.24057485786E+02 -0.71058652629E+02 -0.84972940041E+02  0.11335120324E+03  0.00000000000E+00 0. -1.
        -14    1    4    4    0    0 -0.35395560521E+02  0.10956139722E+02 -0.98516149848E+02  0.10525357231E+03  0.00000000000E+00 0.  1.
</event>
<event>
12    1  0.8135779E-002  0.2190447E+03  0.7818608E-02  0.1134714E+00
         21   -1    0    0  503  502  0.00000000000E+00  0.00000000000E+00  0.15621463255E+03  0.15621463255E+03  0.00000000000E+00 0. -1.
         21   -1    0    0  501  503 -0.00000000000E+00 -0.00000000000E+00 -0.38099034482E+03  0.38099034482E+03  0.00000000000E+00 0. -1.
          6    2    1    2  501    0  0.13340161052E+03  0.21593754811E+02 -0.23146755576E+03  0.31868137834E+03  0.17238999854E+03 0.  0.
         24    2    3    3    0    0  0.34682434228E+02  0.47724400319E+02 -0.50558569687E+02  0.11088715888E+03  0.79115759523E+02 0.  0.
         -6    2    1    2    0  502 -0.13340161052E+03 -0.21593754811E+02  0.66918434891E+01  0.21852359903E+03  0.17159691905E+03 0.  0.
        -24    2    5    5    0    0 -0.55305807986E+02 -0.33289933222E+02 -0.56942479252E+02  0.11699935566E+03  0.79242988519E+02 0.  0.
          5    1    3    3  501    0  0.98719176287E+02 -0.26130645507E+02 -0.18090898607E+03  0.20779421946E+03  0.47000000000E+01 0. -1.
        -11    1    4    4    0    0  0.41594245121E+02  0.33289027402E+02 -0.68543050811E+02  0.86812386138E+02  0.00000000000E+00 0.  1.
         12    1    4    4    0    0 -0.69118108928E+01  0.14435372917E+02  0.17984481124E+02  0.24074772738E+02  0.00000000000E+00 0. -1.
         -5    1    5    5    0  502 -0.78095802529E+02  0.11696178411E+02  0.63634322742E+02  0.10152424338E+03  0.47000000000E+01 0.  1.
         11    1    6    6    0    0 -0.43441377265E+02 -0.39236947479E+02 -0.73891459790E-02  0.58537948040E+02  0.00000000000E+00 0. -1.
        -12    1    6    6    0    0 -0.11864430721E+02  0.59470142573E+01 -0.56935090107E+02  0.58461407615E+02  0.00000000000E+00 0.  1.
</event>
<event>
12    1  0.8135779E-002  0.2038348E+03  0.7818608E-02  0.1146717E+00
         21   -1    0    0  501  502  0.00000000000E+00  0.00000000000E+00  0.42758936440E+03  0.42758936440E+03  0.00000000000E+00 0. -1.
         21   -1    0    0  502  503 -0.00000000000E+00 -0.00000000000E+00 -0.16308463615E+03  0.16308463615E+03  0.00000000000E+00 0. -1.
         -6    2    1    2    0  503  0.42189046166E+02  0.10045146551E+03 -0.56238859879E+02  0.21064101291E+03  0.17127876232E+03 0.  0.
        -24    2    3    3    0    0 -0.48949888029E+00 -0.13636820291E+01 -0.60267520565E+02  0.10006930504E+03  0.79872351525E+02 0.  0.
          6    2    1    2  501    0 -0.42189046166E+02 -0.10045146551E+03  0.32074358813E+03  0.38003298765E+03  0.17227364812E+03 0.  0.
         24    2    5    5    0    0 -0.54734326038E+02  0.19906461983E+01  0.11594091251E+03  0.15064685852E+03  0.79071939828E+02 0.  0.
          5    1    5    5  501    0  0.12545279872E+02 -0.10244211170E+03  0.20480267561E+03  0.22938612913E+03  0.47000000000E+01 0. -1.
        -11    1    6    6    0    0 -0.45835000228E+02 -0.73709811403E+01  0.12599691953E+03  0.13427733368E+03  0.00000000000E+00 0.  1.
         12    1    6    6    0    0 -0.88993258095E+01  0.93616273386E+01 -0.10056007018E+02  0.16369524838E+02  0.00000000000E+00 0. -1.
         -5    1    3    3    0  503  0.42678545046E+02  0.10181514753E+03  0.40286606856E+01  0.11057170787E+03  0.47000000000E+01 0.  1.
         11    1    4    4    0    0  0.14054675298E+02  0.36457025116E+02 -0.33864942725E+02  0.51705733955E+02  0.00000000000E+00 0. -1.
        -12    1    4    4    0    0 -0.14544174178E+02 -0.37820707145E+02 -0.26402577839E+02  0.48363571084E+02  0.00000000000E+00 0.  1.
</event>
<event>
12    1  0.8135779E-002  0.2617447E+03  0.7818608E-02  0.1106187E+00
         21   -1    0    0  501  502  0.00000000000E+00  0.00000000000E+00  0.22597217606E+03  0.22597217606E+03  0.00000000000E+00 0.  1.
         21   -1    0    0  502  503 -0.00000000000E+00 -0.00000000000E+00 -0.34207807503E+03  0.34207807503E+03  0.00000000000E+00 0. -1.
         -6    2    1    2    0  503  0.18818623187E+03  0.60585490504E+02  0.38613046424E+02  0.26399725116E+03  0.17064267268E+03 0.  0.
        -24    2    3    3    0    0  0.16080556573E+03  0.28838446885E+02  0.80056704708E+02  0.20485976331E+03  0.94171973896E+02 0.  0.
          6    2    1    2  501    0 -0.18818623187E+03 -0.60585490504E+02 -0.15471894540E+03  0.30405299993E+03  0.17153896111E+03 0.  0.
         24    2    5    5    0    0 -0.91464927084E+02 -0.55502847393E+01 -0.10558496746E+02  0.12187668526E+03  0.79660567468E+02 0.  0.
          5    1    5    5  501    0 -0.96721304783E+02 -0.55035205764E+02 -0.14416044865E+03  0.18217631467E+03  0.47000000000E+01 0. -1.
        -11    1    6    6    0    0 -0.66182718755E+02 -0.17486679553E+02  0.28243336804E+02  0.74051484100E+02  0.00000000000E+00 0.  1.
         12    1    6    6    0    0 -0.25282208329E+02  0.11936394813E+02 -0.38801833550E+02  0.47825201160E+02  0.00000000000E+00 0. -1.
         -5    1    3    3    0  503  0.27380666138E+02  0.31747043619E+02 -0.41443658284E+02  0.59137487845E+02  0.47000000000E+01 0.  1.
         13    1    4    4    0    0  0.52455170253E+02  0.91750484162E+01 -0.19201653111E+02  0.56607683948E+02  0.00000000000E+00 0. -1.
        -14    1    4    4    0    0  0.10835039548E+03  0.19663398469E+02  0.99258357819E+02  0.14825207937E+03  0.00000000000E+00 0.  1.
</event>
<event>
12    1  0.8135779E-002  0.1967044E+03  0.7818608E-02  0.1152911E+00
         21   -1    0    0  503  502  0.00000000000E+00  0.00000000000E+00  0.19201436352E+03  0.19201436352E+03  0.00000000000E+00 0. -1.
         21   -1    0    0  501  503 -0.00000000000E+00 -0.00000000000E+00 -0.33686486609E+03  0.33686486609E+03  0.00000000000E+00 0. -1.
          6    2    1    2  501    0  0.53360443916E+02  0.77947214271E+02 -0.24091806654E+03  0.30996916780E+03  0.17063488804E+03 0.  0.
         24    2    3    3    0    0  0.53920462980E+02 -0.11174144546E+02 -0.11374492242E+03  0.15460498659E+03  0.89064676879E+02 0.  0.
         -6    2    1    2    0  502 -0.53360443916E+02 -0.77947214271E+02  0.96067563968E+02  0.21891006181E+03  0.17253849752E+03 0.  0.
        -24    2    5    5    0    0 -0.12097329648E+02  0.27852476664E+01  0.99119604279E+02  0.12807075336E+03  0.80145610758E+02 0.  0.
          5    1    3    3  501    0 -0.56001906453E+00  0.89121358817E+02 -0.12717314411E+03  0.15536418121E+03  0.47000000000E+01 0. -1.
        -11    1    4    4    0    0 -0.25927150422E+01 -0.59127899514E+01 -0.94430725791E+02  0.94651176589E+02  0.00000000000E+00 0.  1.
         12    1    4    4    0    0  0.56513178023E+02 -0.52613545944E+01 -0.19314196634E+02  0.59953810004E+02  0.00000000000E+00 0. -1.
         -5    1    5    5    0  502 -0.41263114268E+02 -0.80732461937E+02 -0.30520403108E+01  0.90839308450E+02  0.47000000000E+01 0.  1.
         13    1    6    6    0    0 -0.35122387248E+02 -0.25689153255E+02  0.43895622013E+02  0.61808901566E+02  0.00000000000E+00 0. -1.
        -14    1    6    6    0    0  0.23025057600E+02  0.28474400922E+02  0.55223982266E+02  0.66261851790E+02  0.00000000000E+00 0.  1.
</event>
<event>
12    1  0.8135779E-002  0.1760703E+03  0.7818608E-02  0.1171824E+00
         21   -1    0    0  501  502  0.00000000000E+00  0.00000000000E+00  0.35884396186E+03  0.35884396186E+03  0.00000000000E+00 0. -1.
         21   -1    0    0  502  503 -0.00000000000E+00 -0.00000000000E+00 -0.17058409753E+03  0.17058409753E+03  0.00000000000E+00 0.  1.
         -6    2    1    2    0  503  0.26621768187E+02 -0.24140035526E+02 -0.92105823210E+02  0.19870635559E+03  0.17236378166E+03 0.  0.
        -24    2    3    3    0    0 -0.27238595997E+02  0.23620433510E+02 -0.12542475926E+02  0.91307950281E+02  0.82945536897E+02 0.  0.
          6    2    1    2  501    0 -0.26621768187E+02  0.24140035526E+02  0.28036568754E+03  0.33072170380E+03  0.17169876748E+03 0.  0.
         24    2    5    5    0    0  0.63278163425E+01 -0.43867967328E+00  0.48275336722E+02  0.94972240795E+02  0.81541306628E+02 0.  0.
          5    1    5    5  501    0 -0.32949584530E+02  0.24578715199E+02  0.23209035082E+03  0.23574946300E+03  0.47000000000E+01 0. -1.
        -11    1    6    6    0    0 -0.30137375078E+02 -0.20610977013E+02  0.87693373885E+01  0.37549634196E+02  0.00000000000E+00 0.  1.
         12    1    6    6    0    0  0.36465191421E+02  0.20172297339E+02  0.39505999333E+02  0.57422606599E+02  0.00000000000E+00 0. -1.
         -5    1    3    3    0  503  0.53860364184E+02 -0.47760469036E+02 -0.79563347284E+02  0.10739840531E+03  0.47000000000E+01 0.  1.
         11    1    4    4    0    0 -0.42607011689E+02  0.75522467712E+01  0.23287559992E+02  0.49139641093E+02  0.00000000000E+00 0. -1.
        -12    1    4    4    0    0  0.15368415692E+02  0.16068186739E+02 -0.35830035918E+02  0.42168309189E+02  0.00000000000E+00 0.  1.
</event>
<event>
12    1  0.8135779E-002  0.2294754E+03  0.7818608E-02  0.1127241E+00
         21   -1    0    0  503  502  0.00000000000E+00  0.00000000000E+00  0.12762775551E+03  0.12762775551E+03  0.00000000000E+00 0. -1.
         21   -1    0    0  501  503 -0.00000000000E+00 -0.00000000000E+00 -0.70732770597E+03  0.70732770597E+03  0.00000000000E+00 0.  1.
          6    2    1    2  501    0 -0.13937657440E+02  0.14988380086E+03 -0.55992622660E+03  0.60462968197E+03  0.17146504316E+03 0.  0.
         24    2    3    3    0    0  0.59383302965E+02  0.10978707183E+03 -0.31978524539E+03  0.35031984777E+03  0.69869984678E+02 0.  0.
         -6    2    1    2    0  502  0.13937657440E+02 -0.14988380086E+03 -0.19773723856E+02  0.23032577950E+03  0.17320378890E+03 0.  0.
        -24    2    5    5    0    0  0.45712683123E+02 -0.16754123519E+03 -0.72144659834E+01  0.19157965450E+03  0.80566746311E+02 0.  0.
          5    1    3    3  501    0 -0.73320960405E+02  0.40096729032E+02 -0.24014098122E+03  0.25430983420E+03  0.47000000000E+01 0. -1.
        -13    1    4    4    0    0  0.47311892849E+02  0.66629560520E+02 -0.11745393974E+03  0.14308508483E+03  0.00000000000E+00 0.  1.
         14    1    4    4    0    0  0.12071410117E+02  0.43157511313E+02 -0.20233130565E+03  0.20723476294E+03  0.00000000000E+00 0. -1.
         -5    1    5    5    0  502 -0.31775025683E+02  0.17657434326E+02 -0.12559257872E+02  0.38746125000E+02  0.47000000000E+01 0.  1.
         11    1    6    6    0    0 -0.13258915868E+02 -0.69845847437E+02  0.20806974677E+02  0.74075444308E+02  0.00000000000E+00 0. -1.
        -12    1    6    6    0    0  0.58971598992E+02 -0.97695387754E+02 -0.28021440661E+02  0.11750421019E+03  0.00000000000E+00 0.  1.
</event>
<event>
12    1  0.8135779E-002  0.2057960E+03  0.7818608E-02  0.1145088E+00
         21   -1    0    0  501  502  0.00000000000E+00  0.00000000000E+00  0.67519141746E+02  0.67519141746E+02  0.00000000000E+00 0. -1.
         21   -1    0    0  502  503 -0.00000000000E+00 -0.00000000000E+00 -0.62846602613E+03  0.62846602613E+03  0.00000000000E+00 0.  1.
         -6    2    1    2    0  503 -0.10803672924E+03  0.33458697287E+02 -0.30567856690E+03  0.36809205332E+03  0.17105833556E+03 0.  0.
        -24    2    3    3    0    0 -0.13663544936E+03  0.49808828008E+02 -0.24599179308E+03  0.29975601205E+03  0.90507121984E+02 0.  0.
          6    2    1    2  501    0  0.10803672924E+03 -0.33458697287E+02 -0.25526831748E+03  0.32789311455E+03  0.17193185095E+03 0.  0.
         24    2    5    5    0    0  0.73575835708E+02  0.46404545191E+02 -0.13298335969E+03  0.17775520600E+03  0.79658985001E+02 0.  0.
          5    1    5    5  501    0  0.34460893537E+02 -0.79863242478E+02 -0.12228495779E+03  0.15013790855E+03  0.47000000000E+01 0. -1.
        -11    1    6    6    0    0  0.17557657897E+02 -0.18258396672E+02 -0.60631154523E+02  0.65709796063E+02  0.00000000000E+00 0.  1.
         12    1    6    6    0    0  0.56018177811E+02  0.64662941863E+02 -0.72352205168E+02  0.11204540994E+03  0.00000000000E+00 0. -1.
         -5    1    3    3    0  503  0.28598720117E+02 -0.16350130721E+02 -0.59686773822E+02  0.68336041268E+02  0.47000000000E+01 0.  1.
         11    1    4    4    0    0 -0.40307053800E+02  0.50332004047E+02 -0.15225207882E+03  0.16534407979E+03  0.00000000000E+00 0. -1.
        -12    1    4    4    0    0 -0.96328395562E+02 -0.52317603890E+00 -0.93739714259E+02  0.13441193226E+03  0.00000000000E+00 0.  1.
</event>
<event>
12    1  0.8135779E-002  0.1973467E+03  0.7818608E-02  0.1152096E+00
         21   -1    0    0  503  502  0.00000000000E+00  0.00000000000E+00  0.11683284338E+03  0.11683284338E+03  0.00000000000E+00 0.  1.
         21   -1    0    0  501  503 -0.00000000000E+00 -0.00000000000E+00 -0.42816018879E+03  0.42816018879E+03  0.00000000000E+00 0. -1.
          6    2    1    2  501    0 -0.43014564489E+02 -0.86891258613E+02 -0.28455979245E+03  0.34629468595E+03  0.17188772632E+03 0.  0.
         24    2    3    3    0    0  0.35458084454E+02 -0.79113569367E+02 -0.16874937893E+03  0.20610698692E+03  0.80545046749E+02 0.  0.
         -6    2    1    2    0  502  0.43014564489E+02  0.86891258613E+02 -0.26767552968E+02  0.19869834622E+03  0.17135981827E+03 0.  0.
        -24    2    5    5    0    0  0.82707687135E+02  0.37759644775E+02 -0.49693486476E+02  0.13133999194E+03  0.80711824411E+02 0.  0.
          5    1    3    3  501    0 -0.78472648943E+02 -0.77776892460E+01 -0.11581041352E+03  0.14018769904E+03  0.47000000000E+01 0. -1.
        -13    1    4    4    0    0  0.12259040288E+02 -0.54133228593E+02 -0.16214526202E+03  0.17138196085E+03  0.00000000000E+00 0.  1.
         14    1    4    4    0    0  0.23199044166E+02 -0.24980340774E+02 -0.66041169034E+01  0.34725026069E+02  0.00000000000E+00 0. -1.
         -5    1    5    5    0  502 -0.39693122646E+02  0.49131613838E+02  0.22925933509E+02  0.67358354277E+02  0.47000000000E+01 0.  1.
         11    1    6    6    0    0  0.96388741664E+02  0.36464988984E+02 -0.54750811672E+02  0.11669677082E+03  0.00000000000E+00 0. -1.
        -12    1    6    6    0    0 -0.13681054529E+02  0.12946557915E+01  0.50573251953E+01  0.14643221120E+02  0.00000000000E+00 0.  1.
</event>
<event>
12    1  0.8135779E-002  0.1788057E+03  0.7818608E-02  0.1169462E+00
         21   -1    0    0  501  502  0.00000000000E+00  0.00000000000E+00  0.60458021384E+02  0.60458021384E+02  0.00000000000E+00 0.  1.
         21   -1    0    0  502  503 -0.00000000000E+00 -0.00000000000E+00 -0.52323333705E+03  0.52323333705E+03  0.00000000000E+00 0.  1.
         -6    2    1    2    0  503 -0.47764973885E+02 -0.35034727988E+01 -0.22204193152E+03  0.28381795495E+03  0.17016534649E+03 0.  0.
        -24    2    3    3    0    0 -0.80676490536E+02  0.31021766761E+02 -0.10448948442E+03  0.15686982414E+03  0.78860910685E+02 0.  0.
          6    2    1    2  501    0  0.47764973885E+02  0.35034727988E+01 -0.24073338414E+03  0.29987340348E+03  0.17227225204E+03 0.  0.
         24    2    5    5    0    0 -0.35977762282E+02  0.18532298186E+02 -0.15020666681E+03  0.17555169177E+03  0.81354214846E+02 0.  0.
          5    1    5    5  501    0  0.83742736166E+02 -0.15028825387E+02 -0.90526717328E+02  0.12432171171E+03  0.47000000000E+01 0. -1.
        -11    1    6    6    0    0  0.22301565177E+02  0.75698286601E+01 -0.15027755950E+02  0.27937350701E+02  0.00000000000E+00 0.  1.
         12    1    6    6    0    0 -0.58279327459E+02  0.10962469525E+02 -0.13517891086E+03  0.14761434107E+03  0.00000000000E+00 0. -1.
         -5    1    3    3    0  503  0.32911516651E+02 -0.34525239560E+02 -0.11755244711E+03  0.12694813081E+03  0.47000000000E+01 0.  1.
         11    1    4    4    0    0  0.67865047379E+01  0.20329541929E+02 -0.17255763506E+01  0.21501733310E+02  0.00000000000E+00 0. -1.
        -12    1    4    4    0    0 -0.87462995274E+02  0.10692224832E+02 -0.10276390806E+03  0.13536809083E+03  0.00000000000E+00 0.  1.
</event>
<event>
12    1  0.8135779E-002  0.1880940E+03  0.7818608E-02  0.1160472E+00
         21   -1    0    0  503  502  0.00000000000E+00  0.00000000000E+00  0.46103826668E+03  0.46103826668E+03  0.00000000000E+00 0.  1.
         21   -1    0    0  501  503 -0.00000000000E+00 -0.00000000000E+00 -0.84505894515E+02  0.84505894515E+02  0.00000000000E+00 0.  1.
          6    2    1    2  501    0 -0.64905435429E+01 -0.75707109494E+02  0.27413232793E+03  0.33245734424E+03  0.17206295051E+03 0.  0.
         24    2    3    3    0    0 -0.64627530507E+02 -0.74362406423E+02  0.16694338833E+03  0.21041933273E+03  0.81851789787E+02 0.  0.
         -6    2    1    2    0  502  0.64905435429E+01  0.75707109494E+02  0.10240004423E+03  0.21308681696E+03  0.17072354530E+03 0.  0.
        -24    2    5    5    0    0  0.10687269604E+02  0.11756005124E+03  0.64793351305E+02  0.15646849311E+03  0.79684550463E+02 0.  0.
          5    1    3    3  501    0  0.58136986964E+02 -0.13447030707E+01  0.10718893960E+03  0.12203801150E+03  0.47000000000E+01 0. -1.
        -13    1    4    4    0    0 -0.47383747176E+02 -0.91629109844E+02  0.14211034450E+03  0.17560314144E+03  0.00000000000E+00 0.  1.
         14    1    4    4    0    0 -0.17243783331E+02  0.17266703421E+02  0.24833043831E+02  0.34816191299E+02  0.00000000000E+00 0. -1.
         -5    1    5    5    0  502 -0.41967260611E+01 -0.41852941748E+02  0.37606692929E+02  0.56618323851E+02  0.47000000000E+01 0.  1.
         11    1    6    6    0    0 -0.22143915231E+02  0.62606069074E+01 -0.10740852873E+01  0.23036966810E+02  0.00000000000E+00 0. -1.
        -12    1    6    6    0    0  0.32831184835E+02  0.11129944433E+03  0.65867436593E+02  0.13343152630E+03  0.00000000000E+00 0.  1.
</event>
<event>
12    1  0.8135779E-002  0.2248914E+03  0.7818608E-02  0.1130378E+00
         21   -1    0    0  503  502  0.00000000000E+00  0.00000000000E+00  0.22355588923E+03  0.22355588923E+03  0.00000000000E+00 0.  1.
         21   -1    0    0  501  503 -0.00000000000E+00 -0.00000000000E+00 -0.23369874330E+03  0.23369874330E+03  0.00000000000E+00 0. -1.
          6    2    1    2  501    0  0.13685737445E+03 -0.44416445748E+02 -0.47273709587E+02  0.22980636252E+03  0.17283922888E+03 0.  0.
         24    2    3    3    0    0  0.53318179501E+02  0.15108322632E+02 -0.77383170996E+02  0.12279858331E+03  0.77590252170E+02 0.  0.
         -6    2    1    2    0  502 -0.13685737445E+03  0.44416445748E+02  0.37130855524E+02  0.22744827001E+03  0.17219539339E+03 0.  0.
        -24    2    5    5    0    0 -0.10158961967E+03  0.89708176325E+02  0.56599038878E+02  0.16665143170E+03  0.78747957185E+02 0.  0.
          5    1    3    3  501    0  0.83539194953E+02 -0.59524768380E+02  0.30109461409E+02  0.10700777921E+03  0.47000000000E+01 0. -1.
        -13    1    4    4    0    0 -0.26040396386E+01 -0.16948522373E+02  0.53098728651E+01  0.17950715387E+02  0.00000000000E+00 0.  1.
         14    1    4    4    0    0  0.55922219140E+02  0.32056845005E+02 -0.82693043861E+02  0.10484786792E+03  0.00000000000E+00 0. -1.
         -5    1    5    5    0  502 -0.35267754788E+02 -0.45291730576E+02 -0.19468183354E+02  0.60796838318E+02  0.47000000000E+01 0.  1.
         11    1    6    6    0    0 -0.32283031198E+02  0.39394009660E+00 -0.11968120855E+02  0.34432327962E+02  0.00000000000E+00 0. -1.
        -12    1    6    6    0    0 -0.69306588469E+02  0.89314236228E+02  0.68567159733E+02  0.13221910373E+03  0.00000000000E+00 0.  1.
</event>
<event>
12    1  0.8135779E-002  0.1731399E+03  0.7818608E-02  0.1174944E+00
         21   -1    0    0  501  502  0.00000000000E+00  0.00000000000E+00  0.13617422178E+04  0.13617422178E+04  0.00000000000E+00 0. -1.
         21   -1    0    0  502  503 -0.00000000000E+00 -0.00000000000E+00 -0.81701640757E+02  0.81701640757E+02  0.00000000000E+00 0. -1.
         -6    2    1    2    0  503 -0.72005921564E+01  0.22405796422E+02  0.22940533152E+02  0.17465301778E+03  0.17153291322E+03 0.  0.
        -24    2    3    3    0    0 -0.37825197148E+02  0.49326363456E+02 -0.33950045219E+02  0.10450167234E+03  0.76838520806E+02 0.  0.
          6    2    1    2  501    0  0.72005921564E+01 -0.22405796422E+02  0.12571000439E+04  0.12687908408E+04  0.17022282176E+03 0.  0.
         24    2    5    5    0    0  0.17583663529E+02 -0.41709316422E+02  0.12308926877E+04  0.12343038929E+04  0.79752360991E+02 0.  0.
          5    1    5    5  501    0 -0.10383071373E+02  0.19303520000E+02  0.26207356185E+02  0.34486947875E+02  0.47000000000E+01 0. -1.
        -13    1    6    6    0    0 -0.35397322626E+01 -0.27492755615E+02  0.12161712655E+03  0.12473614867E+03  0.00000000000E+00 0.  1.
         14    1    6    6    0    0  0.21123395792E+02 -0.14216560807E+02  0.11092755612E+04  0.11095677442E+04  0.00000000000E+00 0. -1.
         -5    1    3    3    0  503  0.30624604992E+02 -0.26920567034E+02  0.56890578371E+02  0.70151345445E+02  0.47000000000E+01 0.  1.
         11    1    4    4    0    0 -0.61332525711E+02  0.32875696007E+02 -0.28986389597E+02  0.75383691074E+02  0.00000000000E+00 0. -1.
        -12    1    4    4    0    0  0.23507328563E+02  0.16450667449E+02 -0.49636556220E+01  0.29117981263E+02  0.00000000000E+00 0.  1.
</event>
<event>
12    1  0.8135779E-002  0.2206015E+03  0.7818608E-02  0.1133650E+00
         21   -1    0    0  501  502  0.00000000000E+00  0.00000000000E+00  0.99181880804E+02  0.99181880804E+02  0.00000000000E+00 0. -1.
         21   -1    0    0  502  503 -0.00000000000E+00 -0.00000000000E+00 -0.60169638669E+03  0.60169638669E+03  0.00000000000E+00 0.  1.
         -6    2    1    2    0  503 -0.12603135855E+03 -0.53985896936E+02 -0.40298612394E+03  0.45886397912E+03  0.17134746814E+03 0.  0.
        -24    2    3    3    0    0 -0.23136078521E+02  0.14049819373E+02 -0.94449844818E+02  0.12654933472E+03  0.79757666585E+02 0.  0.
          6    2    1    2  501    0  0.12603135855E+03  0.53985896936E+02 -0.99528381952E+02  0.24201428838E+03  0.17281966486E+03 0.  0.
         24    2    5    5    0    0  0.58980209395E+02  0.15453703797E+02 -0.13068448587E+03  0.15850752625E+03  0.65793000919E+02 0.  0.
          5    1    5    5  501    0  0.67051149151E+02  0.38532193139E+02  0.31156103915E+02  0.83506762132E+02  0.47000000000E+01 0. -1.
        -13    1    6    6    0    0  0.51141470547E+02  0.30548698596E+02 -0.12813899612E+03  0.14130914805E+03  0.00000000000E+00 0.  1.
         14    1    6    6    0    0  0.78387388478E+01 -0.15094994799E+02 -0.25454897492E+01  0.17198378202E+02  0.00000000000E+00 0. -1.
         -5    1    3    3    0  503 -0.10289528002E+03 -0.68035716309E+02 -0.30853627912E+03  0.33231464439E+03  0.47000000000E+01 0.  1.
         11    1    4    4    0    0  0.16447965945E+02 -0.23774264872E+02 -0.39805707617E+02  0.49195991837E+02  0.00000000000E+00 0. -1.
        -12    1    4    4    0    0 -0.39584044466E+02  0.37824084245E+02 -0.54644137202E+02  0.77353342887E+02  0.00000000000E+00 0.  1.
</event>
<event>
12    1  0.8135779E-002  0.1999404E+03  0.7818608E-02  0.1150131E+00
         21   -1    0    0  503  502  0.00000000000E+00  0.00000000000E+00  0.87817349538E+02  0.87817349538E+02  0.00000000000E+00 0.  1.
         21   -1    0    0  501  503 -0.00000000000E+00 -0.00000000000E+00 -0.56597349989E+03  0.56597349989E+03  0.00000000000E+00 0.  1.
          6    2    1    2  501    0  0.65059683387E+02 -0.69435077077E+02 -0.38528569435E+03  0.43333432061E+03  0.17401027215E+03 0.  0.
         24    2    3    3    0    0  0.63008622705E+01 -0.20789636558E+01 -0.25294373861E+02  0.62382455938E+02  0.56636935869E+02 0.  0.
         -6    2    1    2    0  502 -0.65059683387E+02  0.69435077077E+02 -0.92870456002E+02  0.22045652882E+03  0.17584699932E+03 0.  0.
        -24    2    5    5    0    0 -0.65253323376E+02 -0.25388026447E+02 -0.33768560093E+02  0.10862369572E+03  0.75869911846E+02 0.  0.
          5    1    3    3  501    0  0.58758821116E+02 -0.67356113421E+02 -0.35999132049E+03  0.37095186467E+03  0.47000000000E+01 0. -1.
        -11    1    4    4    0    0  0.31361216350E+02  0.11021583431E+01 -0.17579767523E+02  0.35969276753E+02  0.00000000000E+00 0.  1.
         12    1    4    4    0    0 -0.25060354079E+02 -0.31811219990E+01 -0.77146063381E+01  0.26413179186E+02  0.00000000000E+00 0. -1.
         -5    1    5    5    0  502  0.19363998897E+00  0.94823103524E+02 -0.59101895908E+02  0.11183283310E+03  0.47000000000E+01 0.  1.
         13    1    6    6    0    0 -0.29885983320E+02  0.86715027216E+01 -0.48265344089E+02  0.57427435939E+02  0.00000000000E+00 0. -1.
        -14    1    6    6    0    0 -0.35367340056E+02 -0.34059529169E+02  0.14496783996E+02  0.51196259785E+02  0.00000000000E+00 0.  1.
</event>
<event>
12    1  0.8135779E-002  0.4084549E+03  0.7818608E-02  0.1040917E+00
         21   -1    0    0  503  502  0.00000000000E+00  0.00000000000E+00  0.10802766614E+04  0.10802766614E+04  0.00000000000E+00 0.  1.
         21   -1    0    0  501  503 -0.00000000000E+00 -0.00000000000E+00 -0.36886631612E+03  0.36886631612E+03  0.00000000000E+00 0. -1.
          6    2    1    2  501    0  0.15615182425E+03  0.33669865491E+03 -0.19695052538E+03  0.45317366613E+03  0.16978658895E+03 0.  0.
         24    2    3    3    0    0  0.86306070953E+02  0.14218472524E+03 -0.15567345906E+03  0.24236573389E+03  0.82714503768E+02 0.  0.
         -6    2    1    2    0  502 -0.15615182425E+03 -0.33669865491E+03  0.90836087063E+03  0.99596931137E+03  0.17054624435E+03 0.  0.
        -24    2    5    5    0    0 -0.79956678953E+02 -0.16016954051E+03  0.61116887061E+03  0.64197297908E+03  0.80960269572E+02 0.  0.
          5    1    3    3  501    0  0.69845753298E+02  0.19451392967E+03 -0.41277066323E+02  0.21080793224E+03  0.47000000000E+01 0. -1.
        -11    1    4    4    0    0  0.31555497432E+02 -0.10831278343E+01 -0.35576563381E+02  0.47566946992E+02  0.00000000000E+00 0.  1.
         12    1    4    4    0    0  0.54750573521E+02  0.14326785308E+03 -0.12009689568E+03  0.19479878690E+03  0.00000000000E+00 0. -1.
         -5    1    5    5    0  502 -0.76195145298E+02 -0.17652911440E+03  0.29719200003E+03  0.35399633230E+03  0.47000000000E+01 0.  1.
         13    1    6    6    0    0 -0.40747108507E+01 -0.85204219520E+02  0.34105319273E+03  0.35155887496E+03  0.00000000000E+00 0. -1.
        -14    1    6    6    0    0 -0.75881968103E+02 -0.74965320988E+02  0.27011567787E+03  0.29041410411E+03  0.00000000000E+00 0.  1.
</event>
<event>
12    1  0.8135779E-002  0.4093161E+03  0.7818608E-02  0.1040657E+00
         21   -1    0    0  501  502  0.00000000000E+00  0.00000000000E+00  0.13358978760E+03  0.13358978760E+03  0.00000000000E+00 0. -1.
         21   -1    0    0  502  503 -0.00000000000E+00 -0.00000000000E+00 -0.12836557379E+04  0.12836557379E+04  0.00000000000E+00 0.  1.
         -6    2    1    2    0  503 -0.37109798654E+03 -0.14728825828E+02 -0.68568354708E+03  0.79822154218E+03  0.17048474929E+03 0.  0.
        -24    2    3    3    0    0 -0.25579163534E+03  0.40402581820E+02 -0.54253967082E+03  0.60626507304E+03  0.78398437739E+02 0.  0.
          6    2    1    2  501    0  0.37109798654E+03  0.14728825828E+02 -0.46438240326E+03  0.61902398336E+03  0.17207272184E+03 0.  0.
         24    2    5    5    0    0  0.13441787489E+03 -0.47583018689E+02 -0.19423119981E+03  0.25446396918E+03  0.81815914552E+02 0.  0.
          5    1    5    5  501    0  0.23668011165E+03  0.62311844517E+02 -0.27015120344E+03  0.36456001418E+03  0.47000000000E+01 0. -1.
        -11    1    6    6    0    0  0.70674487232E+02  0.15938795135E+02 -0.67417219640E+02  0.98964689864E+02  0.00000000000E+00 0.  1.
         12    1    6    6    0    0  0.63743387661E+02 -0.63521813824E+02 -0.12681398017E+03  0.15549927932E+03  0.00000000000E+00 0. -1.
         -5    1    3    3    0  503 -0.11530635120E+03 -0.55131407648E+02 -0.14314387626E+03  0.19195646914E+03  0.47000000000E+01 0.  1.
         11    1    4    4    0    0 -0.20425269040E+03  0.51382054911E+02 -0.36872331388E+03  0.42463650255E+03  0.00000000000E+00 0. -1.
        -12    1    4    4    0    0 -0.51538944942E+02 -0.10979473091E+02 -0.17381635694E+03  0.18162857049E+03  0.00000000000E+00 0.  1.
</event>
<event>
12    1  0.8135779E-002  0.1746345E+03  0.7818608E-02  0.1173555E+00
         21   -1    0    0  501  502  0.00000000000E+00  0.00000000000E+00  0.48436435371E+02  0.48436435371E+02  0.00000000000E+00 0.  1.
         21   -1    0    0  502  503 -0.00000000000E+00 -0.00000000000E+00 -0.62445309988E+03  0.62445309988E+03  0.00000000000E+00 0.  1.
         -6    2    1    2    0  503 -0.58142690213E+00  0.37920812486E+02 -0.27413614976E+03  0.32503512687E+03  0.17046665074E+03 0.  0.
        -24    2    3    3    0    0  0.40592382458E+02 -0.43602560619E+01 -0.73599108887E+02  0.11594144906E+03  0.79742318973E+02 0.  0.
          6    2    1    2  501    0  0.58142690213E+00 -0.37920812486E+02 -0.30188051475E+03  0.34785440839E+03  0.16861944779E+03 0.  0.
         24    2    5    5    0    0  0.20839379423E+02  0.40618694723E+02 -0.15681921509E+03  0.18159043306E+03  0.79364104364E+02 0.  0.
          5    1    5    5  501    0 -0.20257952521E+02 -0.78539507209E+02 -0.14506129966E+03  0.16626397533E+03  0.47000000000E+01 0. -1.
        -13    1    6    6    0    0  0.28774353119E+02  0.94585082276E+01 -0.14370823834E+03  0.14686553218E+03  0.00000000000E+00 0.  1.
         14    1    6    6    0    0 -0.79349736953E+01  0.31160186495E+02 -0.13110976753E+02  0.34724900883E+02  0.00000000000E+00 0. -1.
         -5    1    3    3    0  503 -0.41173809360E+02  0.42281068548E+02 -0.20053704088E+03  0.20909367780E+03  0.47000000000E+01 0.  1.
         11    1    4    4    0    0  0.48211222468E+02  0.38457863998E+01 -0.86349908086E+02  0.98971807457E+02  0.00000000000E+00 0. -1.
        -12    1    4    4    0    0 -0.76188400096E+01 -0.82060424617E+01  0.12750799200E+02  0.16969641605E+02  0.00000000000E+00 0.  1.
</event>
<event>
12    1  0.8135779E-002  0.2652172E+03  0.7818608E-02  0.1104150E+00
         21   -1    0    0  503  502  0.00000000000E+00  0.00000000000E+00  0.23271793419E+03  0.23271793419E+03  0.00000000000E+00 0.  1.
         21   -1    0    0  501  503 -0.00000000000E+00 -0.00000000000E+00 -0.30209673403E+03  0.30209673403E+03  0.00000000000E+00 0. -1.
          6    2    1    2  501    0 -0.87695578880E+02  0.18301719498E+03 -0.22427246318E+02  0.26547359446E+03  0.16966861750E+03 0.  0.
         24    2    3    3    0    0 -0.97241416505E+02  0.19778971796E+03  0.26227676123E+01  0.23450677917E+03  0.80061757110E+02 0.  0.
         -6    2    1    2    0  502  0.87695578880E+02 -0.18301719498E+03 -0.46951553527E+02  0.26934107377E+03  0.17074647120E+03 0.  0.
        -24    2    5    5    0    0  0.13243423269E+02 -0.15980426460E+03 -0.58716657609E+02  0.19033176238E+03  0.84057971932E+02 0.  0.
          5    1    3    3  501    0  0.95458376250E+01 -0.14772522981E+02 -0.25050013931E+02  0.30966815289E+02  0.47000000000E+01 0. -1.
        -11    1    4    4    0    0 -0.68305208361E+02  0.62527038913E+02  0.21040609463E+02  0.94962831313E+02  0.00000000000E+00 0.  1.
         12    1    4    4    0    0 -0.28936208144E+02  0.13526267904E+03 -0.18417841851E+02  0.13954394785E+03  0.00000000000E+00 0. -1.
         -5    1    5    5    0  502  0.74452155611E+02 -0.23212930376E+02  0.11765104082E+02  0.79009311387E+02  0.47000000000E+01 0.  1.
         13    1    6    6    0    0  0.38903818273E+02 -0.12178751290E+03 -0.18212624242E+02  0.12914102778E+03  0.00000000000E+00 0. -1.
        -14    1    6    6    0    0 -0.25660395004E+02 -0.38016751698E+02 -0.40504033367E+02  0.61190734596E+02  0.00000000000E+00 0.  1.
</event>
<event>
12    1  0.8135779E-002  0.2555066E+03  0.7818608E-02  0.1109942E+00
         21   -1    0    0  503  502  0.00000000000E+00  0.00000000000E+00  0.56483652916E+03  0.56483652916E+03  0.00000000000E+00 0. -1.
         21   -1    0    0  501  503 -0.00000000000E+00 -0.00000000000E+00 -0.46190977173E+03  0.46190977173E+03  0.00000000000E+00 0. -1.
          6    2    1    2  501    0 -0.83861872720E+02  0.16802049354E+03 -0.39320559996E+03  0.46868631980E+03  0.17260510589E+03 0.  0.
         24    2    3    3    0    0 -0.23763848230E+01  0.15452300070E+02 -0.12042350066E+03  0.14565520350E+03  0.80431324826E+02 0.  0.
         -6    2    1    2    0  502  0.83861872720E+02 -0.16802049354E+03  0.49613235739E+03  0.55805998109E+03  0.17326259405E+03 0.  0.
        -24    2    5    5    0    0  0.52505744732E+01 -0.14387988741E+03  0.39201916687E+03  0.42530399622E+03  0.80470314274E+02 0.  0.
          5    1    3    3  501    0 -0.81485487897E+02  0.15256819347E+03 -0.27278209930E+03  0.32303111629E+03  0.47000000000E+01 0. -1.
        -11    1    4    4    0    0 -0.12569930176E+02 -0.30737521167E+02 -0.63367023836E+02  0.71541442967E+02  0.00000000000E+00 0.  1.
         12    1    4    4    0    0  0.10193545353E+02  0.46189821236E+02 -0.57056476825E+02  0.74113760533E+02  0.00000000000E+00 0. -1.
         -5    1    5    5    0  502  0.78611298247E+02 -0.24140606131E+02  0.10411319052E+03  0.13275598486E+03  0.47000000000E+01 0.  1.
         11    1    6    6    0    0  0.29909024629E+02 -0.87164646199E+02  0.30450187978E+03  0.31814088089E+03  0.00000000000E+00 0. -1.
        -12    1    6    6    0    0 -0.24658450156E+02 -0.56715241213E+02  0.87517287086E+02  0.10716311534E+03  0.00000000000E+00 0.  1.
</event>
<event>
12    1  0.8135779E-002  0.1883308E+03  0.7818608E-02  0.1160149E+00
         21   -1    0    0  503  502  0.00000000000E+00  0.00000000000E+00  0.81929084654E+03  0.81929084654E+03  0.00000000000E+00 0.  1.
         21   -1    0    0  501  503 -0.00000000000E+00 -0.00000000000E+00 -0.46379827066E+02  0.46379827066E+02  0.00000000000E+00 0.  1.
          6    2    1    2  501    0  0.15238867071E+02  0.76346563901E+02  0.27237914071E+03  0.33114785637E+03  0.17148610905E+03 0.  0.
         24    2    3    3    0    0 -0.27242824648E+02  0.15147117386E+02  0.99070267085E+02  0.14244671154E+03  0.97491236262E+02 0.  0.
         -6    2    1    2    0  502 -0.15238867071E+02 -0.76346563901E+02  0.50053187877E+03  0.53452281724E+03  0.17065010868E+03 0.  0.
        -24    2    5    5    0    0  0.36649846958E+01  0.21213961710E+02  0.14899548152E+03  0.16918004619E+03  0.77193071124E+02 0.  0.
          5    1    3    3  501    0  0.42481691719E+02  0.61199446515E+02  0.17330887362E+03  0.18870114483E+03  0.47000000000E+01 0. -1.
        -11    1    4    4    0    0 -0.23595983828E+02  0.55370012794E+02  0.71916064435E+02  0.93779150633E+02  0.00000000000E+00 0.  1.
         12    1    4    4    0    0 -0.36468408196E+01 -0.40222895408E+02  0.27154202650E+02  0.48667560905E+02  0.00000000000E+00 0. -1.
         -5    1    5    5    0  502 -0.18903851767E+02 -0.97560525612E+02  0.35153639724E+03  0.36534277105E+03  0.47000000000E+01 0.  1.
         13    1    6    6    0    0  0.85299866969E+01 -0.26686785101E+02  0.31246385471E+02  0.41967627727E+02  0.00000000000E+00 0. -1.
        -14    1    6    6    0    0 -0.48650020011E+01  0.47900746811E+02  0.11774909605E+03  0.12721241846E+03  0.00000000000E+00 0.  1.
</event>
<event>
12    1  0.8135779E-002  0.1955233E+03  0.7818608E-02  0.1154381E+00
         21   -1    0    0  501  502  0.00000000000E+00  0.00000000000E+00  0.85361475217E+03  0.85361475217E+03  0.00000000000E+00 0.  1.
         21   -1    0    0  502  503 -0.00000000000E+00 -0.00000000000E+00 -0.48452255330E+02  0.48452255330E+02  0.00000000000E+00 0.  1.
         -6    2    1    2    0  503 -0.29280682550E+02  0.83300463879E+02  0.26849902345E+03  0.33214620377E+03  0.17445070774E+03 0.  0.
        -24    2    3    3    0    0 -0.55161867038E+01  0.12115304158E+03  0.17817581999E+03  0.23126042685E+03  0.83822875134E+02 0.  0.
          6    2    1    2  501    0  0.29280682550E+02 -0.83300463879E+02  0.53666347339E+03  0.56992080373E+03  0.17031063738E+03 0.  0.
         24    2    5    5    0    0 -0.36371850908E+02 -0.59987550836E+02  0.21457085868E+03  0.24034609367E+03  0.82487414512E+02 0.  0.
          5    1    5    5  501    0  0.65652533457E+02 -0.23312913043E+02  0.32209261471E+03  0.32957471006E+03  0.47000000000E+01 0. -1.
        -13    1    6    6    0    0 -0.22197684071E+02 -0.69521023000E+02  0.21049158231E+03  0.22278378765E+03  0.00000000000E+00 0.  1.
         14    1    6    6    0    0 -0.14174166837E+02  0.95334721638E+01  0.40792763748E+01  0.17562306020E+02  0.00000000000E+00 0. -1.
         -5    1    3    3    0  503 -0.23764495846E+02 -0.37852577703E+02  0.90323203461E+02  0.10088577692E+03  0.47000000000E+01 0.  1.
         13    1    4    4    0    0 -0.32537916991E+02  0.24290404621E+02  0.84854544745E+02  0.94069301914E+02  0.00000000000E+00 0. -1.
        -14    1    4    4    0    0  0.27021730287E+02  0.96862636961E+02  0.93321275244E+02  0.13719112493E+03  0.00000000000E+00 0.  1.
</event>
<event>
12    1  0.8135779E-002  0.2193971E+03  0.7818608E-02  0.1134595E+00
         21   -1    0    0  503  502  0.00000000000E+00  0.00000000000E+00  0.25102301207E+04  0.25102301207E+04  0.00000000000E+00 0.  1.
         21   -1    0    0  501  503 -0.00000000000E+00 -0.00000000000E+00 -0.23144516648E+02  0.23144516648E+02  0.00000000000E+00 0.  1.
          6    2    1    2  501    0  0.10745104580E+03  0.79800444925E+02  0.70774532192E+03  0.74055927178E+03  0.17207776169E+03 0.  0.
         24    2    3    3    0    0  0.35973611466E+02  0.77004477239E+02  0.23289947662E+03  0.26033275455E+03  0.79417798032E+02 0.  0.
         -6    2    1    2    0  502 -0.10745104580E+03 -0.79800444925E+02  0.17793402822E+04  0.17928153656E+04  0.17384262176E+03 0.  0.
        -24    2    5    5    0    0 -0.18852610890E+02  0.11952005429E+02  0.96213018285E+03  0.96569830542E+03  0.79877762686E+02 0.  0.
          5    1    3    3  501    0  0.71477434336E+02  0.27959676856E+01  0.47484584530E+03  0.48022651723E+03  0.47000000000E+01 0. -1.
        -11    1    4    4    0    0  0.60181730828E+02  0.40669502128E+02  0.14273748418E+03  0.16015566964E+03  0.00000000000E+00 0.  1.
         12    1    4    4    0    0 -0.24208119363E+02  0.36334975111E+02  0.90161992438E+02  0.10017708490E+03  0.00000000000E+00 0. -1.
         -5    1    5    5    0  502 -0.88598434912E+02 -0.91752450354E+02  0.81721009930E+03  0.82711706017E+03  0.47000000000E+01 0.  1.
         13    1    6    6    0    0 -0.23134409930E+02 -0.82790992289E+01  0.89758762029E+03  0.89792387233E+03  0.00000000000E+00 0. -1.
        -14    1    6    6    0    0  0.42817990404E+01  0.20231104658E+02  0.64542562560E+02  0.67774433089E+02  0.00000000000E+00 0.  1.
</event>
<event>
12    1  0.8135779E-002  0.2556640E+03  0.7818608E-02  0.1109814E+00
         21   -1    0    0  503  502  0.00000000000E+00  0.00000000000E+00  0.81754932343E+03  0.81754932343E+03  0.00000000000E+00 0.  1.
         21   -1    0    0  501  503 -0.00000000000E+00 -0.00000000000E+00 -0.84731233175E+02  0.84731233175E+02  0.00000000000E+00 0. -1.
          6    2    1    2  501    0  0.18370568829E+03  0.43143044513E+02  0.47425308634E+03  0.53865996955E+03  0.17213213150E+03 0.  0.
         24    2    3    3    0    0  0.19735726770E+03  0.19562777813E+02  0.46052829624E+03  0.50779162880E+03  0.80208685627E+02 0.  0.
         -6    2    1    2    0  502 -0.18370568829E+03 -0.43143044513E+02  0.25856500392E+03  0.36362058705E+03  0.17249628366E+03 0.  0.
        -24    2    5    5    0    0 -0.20646322212E+03 -0.45699336884E+02  0.25510418223E+03  0.33998782878E+03  0.76145180084E+02 0.  0.
          5    1    3    3  501    0 -0.13651579401E+02  0.23580266699E+02  0.13724790096E+02  0.30868340754E+02  0.47000000000E+01 0. -1.
        -13    1    4    4    0    0  0.13619341510E+03  0.66896034812E+01  0.39200475896E+03  0.41504352562E+03  0.00000000000E+00 0.  1.
         14    1    4    4    0    0  0.61163852594E+02  0.12873174332E+02  0.68523537282E+02  0.92748103179E+02  0.00000000000E+00 0. -1.
         -5    1    5    5    0  502  0.22757533829E+02  0.25562923716E+01  0.34608216908E+01  0.23632758270E+02  0.47000000000E+01 0.  1.
         13    1    6    6    0    0 -0.47507880993E+02 -0.19339682040E+02  0.20185858458E+02  0.55122508465E+02  0.00000000000E+00 0. -1.
        -14    1    6    6    0    0 -0.15895534113E+03 -0.26359654845E+02  0.23491832377E+03  0.28486532032E+03  0.00000000000E+00 0.  1.
</event>
<event>
12    1  0.8135779E-002  0.1763118E+03  0.7818608E-02  0.1171543E+00
         21   -1    0    0  501  502  0.00000000000E+00  0.00000000000E+00  0.22429809647E+03  0.22429809647E+03  0.00000000000E+00 0. -1.
         21   -1    0    0  502  503 -0.00000000000E+00 -0.00000000000E+00 -0.15871743140E+03  0.15871743140E+03  0.00000000000E+00 0. -1.
         -6    2    1    2    0  503  0.24057657874E+02 -0.20118246452E+02 -0.36092134548E+02  0.17948856160E+03  0.17300285208E+03 0.  0.
        -24    2    3    3    0    0  0.28099789238E+02 -0.21676849149E+02 -0.90099259297E+02  0.12510448680E+03  0.79207147080E+02 0.  0.
          6    2    1    2  501    0 -0.24057657874E+02  0.20118246452E+02  0.10167279962E+03  0.20352696626E+03  0.17350029703E+03 0.  0.
         24    2    5    5    0    0  0.13920559406E+02 -0.30495567355E+02  0.10143807398E+03  0.14007424188E+03  0.90594419159E+02 0.  0.
          5    1    5    5  501    0 -0.37978217280E+02  0.50613813807E+02  0.23472564409E+00  0.63452724385E+02  0.47000000000E+01 0. -1.
        -13    1    6    6    0    0 -0.30240441361E+02  0.23663067130E+01  0.75809074625E+01  0.31265857723E+02  0.00000000000E+00 0.  1.
         14    1    6    6    0    0  0.44161000767E+02 -0.32861874068E+02  0.93857166518E+02  0.10880838416E+03  0.00000000000E+00 0. -1.
         -5    1    3    3    0  503 -0.40421313638E+01  0.15586026973E+01  0.54007124748E+02  0.54384074801E+02  0.47000000000E+01 0.  1.
         11    1    4    4    0    0 -0.15669424063E+02 -0.22083321022E+02 -0.73435655274E+02  0.78268763779E+02  0.00000000000E+00 0. -1.
        -12    1    4    4    0    0  0.43769213300E+02  0.40647187305E+00 -0.16663604022E+02  0.46835723026E+02  0.00000000000E+00 0.  1.
</event>
<event>
12    1  0.8135779E-002  0.2204115E+03  0.7818608E-02  0.1133607E+00
         21   -1    0    0  503  502  0.00000000000E+00  0.00000000000E+00  0.36419434874E+03  0.36419434874E+03  0.00000000000E+00 0. -1.
         21   -1    0    0  501  503 -0.00000000000E+00 -0.00000000000E+00 -0.19455611448E+03  0.19455611448E+03  0.00000000000E+00 0. -1.
          6    2    1    2  501    0 -0.92424450445E+02  0.10163903409E+03  0.24160792126E+03  0.32704067305E+03  0.17236137016E+03 0.  0.
         24    2    3    3    0    0 -0.98731915595E+02  0.56174029525E+01  0.14631373709E+03  0.19153049152E+03  0.74139551841E+02 0.  0.
         -6    2    1    2    0  502  0.92424450445E+02 -0.10163903409E+03 -0.71969687004E+02  0.23170979017E+03  0.17215405521E+03 0.  0.
        -24    2    5    5    0    0  0.34084391933E+02 -0.11900055063E+03 -0.83668565704E+02  0.16954920421E+03  0.80147532327E+02 0.  0.
          5    1    3    3  501    0  0.63074651506E+01  0.96021631133E+02  0.95294184174E+02  0.13551018153E+03  0.47000000000E+01 0. -1.
        -13    1    4    4    0    0 -0.48677686914E+02  0.14550844774E+02  0.18661540936E+02  0.54124831612E+02  0.00000000000E+00 0.  1.
         14    1    4    4    0    0 -0.50054228681E+02 -0.89334418217E+01  0.12765219615E+03  0.13740565990E+03  0.00000000000E+00 0. -1.
         -5    1    5    5    0  502  0.58340058511E+02  0.17361516545E+02  0.11698878700E+02  0.62160585959E+02  0.47000000000E+01 0.  1.
         13    1    6    6    0    0  0.21386440725E+02 -0.20215981344E+00 -0.33986522166E+02  0.40156000852E+02  0.00000000000E+00 0. -1.
        -14    1    6    6    0    0  0.12697951208E+02 -0.11879839082E+03 -0.49682043538E+02  0.12939320336E+03  0.00000000000E+00 0.  1.
</event>
<event>
12    1  0.8135779E-002  0.1825506E+03  0.7818608E-02  0.1165749E+00
         21   -1    0    0  503  502  0.00000000000E+00  0.00000000000E+00  0.28984075931E+03  0.28984075931E+03  0.00000000000E+00 0. -1.
         21   -1    0    0  501  503 -0.00000000000E+00 -0.00000000000E+00 -0.17241277825E+03  0.17241277825E+03  0.00000000000E+00 0. -1.
          6    2    1    2  501    0  0.57568145014E+02 -0.86725442502E+00 -0.76053860246E+02  0.19624613377E+03  0.17150367900E+03 0.  0.
         24    2    3    3    0    0  0.77123821120E+01  0.57048040319E+02 -0.17178088815E+02  0.99663397620E+02  0.79521986568E+02 0.  0.
         -6    2    1    2    0  502 -0.57568145014E+02  0.86725442502E+00  0.19348184130E+03  0.26600740380E+03  0.17323357789E+03 0.  0.
        -24    2    5    5    0    0 -0.81809414802E+02 -0.32949967096E+02  0.18606328632E+03  0.22348248651E+03  0.86869986628E+02 0.  0.
          5    1    3    3  501    0  0.49855762902E+02 -0.57915294744E+02 -0.58875771431E+02  0.96582736146E+02  0.47000000000E+01 0. -1.
        -11    1    4    4    0    0 -0.67236472614E+01  0.10769860408E+02  0.29655007277E+02  0.32258592380E+02  0.00000000000E+00 0.  1.
         12    1    4    4    0    0  0.14436029373E+02  0.46278179910E+02 -0.46833096092E+02  0.67404805240E+02  0.00000000000E+00 0. -1.
         -5    1    5    5    0  502  0.24241269788E+02  0.33817221521E+02  0.74185549801E+01  0.42524917288E+02  0.47000000000E+01 0.  1.
         11    1    6    6    0    0 -0.28224894188E+02 -0.18909908100E+02  0.15756906607E+03  0.16119007370E+03  0.00000000000E+00 0. -1.
        -12    1    6    6    0    0 -0.53584520614E+02 -0.14040058996E+02  0.28494220253E+02  0.62292412812E+02  0.00000000000E+00 0.  1.
</event>
<event>
12    1  0.8135779E-002  0.1985100E+03  0.7818608E-02  0.1151630E+00
         21   -1    0    0  503  502  0.00000000000E+00  0.00000000000E+00  0.17023923541E+04  0.17023923541E+04  0.00000000000E+00 0. -1.
         21   -1    0    0  501  503 -0.00000000000E+00 -0.00000000000E+00 -0.35499024252E+02  0.35499024252E+02  0.00000000000E+00 0.  1.
          6    2    1    2  501    0 -0.26204099423E+02 -0.90956824365E+02  0.30991722443E+03  0.36647227370E+03  0.17115327244E+03 0.  0.
         24    2    3    3    0    0 -0.17173754639E+02 -0.81061974395E+02  0.88952414237E+02  0.14505187598E+03  0.79129850151E+02 0.  0.
         -6    2    1    2    0  502  0.26204099423E+02  0.90956824365E+02  0.13569761054E+04  0.13714191047E+04  0.17448900025E+03 0.  0.
        -24    2    5    5    0    0  0.25033046130E+02  0.72433303273E+02  0.42730429193E+03  0.44155015529E+03  0.80649518979E+02 0.  0.
          5    1    3    3  501    0 -0.90303447836E+01 -0.98948499697E+01  0.22096481019E+03  0.22142039772E+03  0.47000000000E+01 0. -1.
        -11    1    4    4    0    0 -0.14643140691E+02  0.99846639627E+01 -0.23256690702E-01  0.17723307384E+02  0.00000000000E+00 0.  1.
         12    1    4    4    0    0 -0.25306139478E+01 -0.91046638358E+02  0.88975670927E+02  0.12732856859E+03  0.00000000000E+00 0. -1.
         -5    1    5    5    0  502  0.11710532928E+01  0.18523521092E+02  0.92967181350E+03  0.92986894938E+03  0.47000000000E+01 0.  1.
         11    1    6    6    0    0  0.28137597922E+02  0.81815471066E+01  0.27023268057E+03  0.27181678348E+03  0.00000000000E+00 0. -1.
        -12    1    6    6    0    0 -0.31045517925E+01  0.64251756166E+02  0.15707161136E+03  0.16973337181E+03  0.00000000000E+00 0.  1.
</event>
<event>
12    1  0.8135779E-002  0.2259129E+03  0.7818608E-02  0.1129646E+00
         21   -1    0    0  501  502  0.00000000000E+00  0.00000000000E+00  0.39472262831E+03  0.39472262831E+03  0.00000000000E+00 0.  1.
         21   -1    0    0  502  503 -0.00000000000E+00 -0.00000000000E+00 -0.13828578701E+03  0.13828578701E+03  0.00000000000E+00 0.  1.
         -6    2    1    2    0  503  0.12618553407E+02 -0.14454721229E+03  0.58994482905E+02  0.23297489497E+03  0.17246399102E+03 0.  0.
        -24    2    3    3    0    0 -0.24287894815E+02 -0.11083853800E+03 -0.18044007228E+02  0.14102175688E+03  0.81770816155E+02 0.  0.
          6    2    1    2  501    0 -0.12618553407E+02  0.14454721229E+03  0.19744235839E+03  0.30003352035E+03  0.17315745429E+03 0.  0.
         24    2    5    5    0    0 -0.17314505699E+02  0.83624381493E+02  0.28325367699E+02  0.12015497849E+03  0.79637071225E+02 0.  0.
          5    1    5    5  501    0  0.46959522924E+01  0.60922830800E+02  0.16911699070E+03  0.17987854186E+03  0.47000000000E+01 0. -1.
        -13    1    6    6    0    0  0.82814453936E-01  0.78412229130E+02  0.49134819367E+02  0.92534939399E+02  0.00000000000E+00 0.  1.
         14    1    6    6    0    0 -0.17397320153E+02  0.52121523629E+01 -0.20809451668E+02  0.27620039093E+02  0.00000000000E+00 0. -1.
         -5    1    3    3    0  503  0.36906448222E+02 -0.33708674291E+02  0.77038490133E+02  0.91953138091E+02  0.47000000000E+01 0.  1.
         11    1    4    4    0    0 -0.18588379604E+01 -0.14718094431E+02 -0.37581977276E+02  0.40403992355E+02  0.00000000000E+00 0. -1.
        -12    1    4    4    0    0 -0.22429056854E+02 -0.96120443570E+02  0.19537970048E+02  0.10061776452E+03  0.00000000000E+00 0.  1.
</event>
<event>
12    1  0.8135779E-002  0.2125532E+03  0.7818608E-02  0.1140042E+00
         21   -1    0    0  503  502  0.00000000000E+00  0.00000000000E+00  0.17334102533E+03  0.17334102533E+03  0.00000000000E+00 0. -1.
         21   -1    0    0  501  503 -0.00000000000E+00 -0.00000000000E+00 -0.61593512410E+03  0.61593512410E+03  0.00000000000E+00 0.  1.
          6    2    1    2  501    0  0.11874971930E+03  0.19206440915E+02 -0.52282743230E+03  0.56438232209E+03  0.17523840423E+03 0.  0.
         24    2    3    3    0    0  0.55106880595E+02  0.58489396213E+02 -0.17248747323E+03  0.20611742230E+03  0.79212913081E+02 0.  0.
         -6    2    1    2    0  502 -0.11874971930E+03 -0.19206440915E+02  0.80233333534E+02  0.22489382734E+03  0.17224825850E+03 0.  0.
        -24    2    5    5    0    0  0.22698380491E+01 -0.36534846929E+02  0.21240112322E+02  0.89069318999E+02  0.78372533521E+02 0.  0.
          5    1    3    3  501    0  0.63642838705E+02 -0.39282955298E+02 -0.35033995908E+03  0.35826489979E+03  0.47000000000E+01 0. -1.
        -13    1    4    4    0    0  0.31794043868E+02 -0.39126107354E+01 -0.11076268031E+03  0.11530195618E+03  0.00000000000E+00 0.  1.
         14    1    4    4    0    0  0.23312836727E+02  0.62402006948E+02 -0.61724792911E+02  0.90815466124E+02  0.00000000000E+00 0. -1.
         -5    1    5    5    0  502 -0.12101955735E+03  0.17328406014E+02  0.58993221213E+02  0.13582450834E+03  0.47000000000E+01 0.  1.
         11    1    6    6    0    0 -0.77850916140E+01 -0.60082619783E+02  0.18345491930E+02  0.63301547576E+02  0.00000000000E+00 0. -1.
        -12    1    6    6    0    0  0.10054929663E+02  0.23547772853E+02  0.28946203921E+01  0.25767771423E+02  0.00000000000E+00 0.  1.
</event>
<event>
12    1  0.8135779E-002  0.2076558E+03  0.7818608E-02  0.1143571E+00
         21   -1    0    0  503  502  0.00000000000E+00  0.00000000000E+00  0.47724771523E+02  0.47724771523E+02  0.00000000000E+00 0.  1.
         21   -1    0    0  501  503 -0.00000000000E+00 -0.00000000000E+00 -0.92094551623E+03  0.92094551623E+03  0.00000000000E+00 0. -1.
          6    2    1    2  501    0 -0.74094123072E+01 -0.11656167729E+03 -0.36396040852E+03  0.41870027316E+03  0.17088363225E+03 0.  0.
         24    2    3    3    0    0  0.26874783201E+02 -0.13973192690E+03 -0.27673795191E+03  0.32204566404E+03  0.82959329371E+02 0.  0.
         -6    2    1    2    0  502  0.74094123072E+01  0.11656167729E+03 -0.50926033619E+03  0.54997001459E+03  0.17169566953E+03 0.  0.
        -24    2    5    5    0    0  0.16692692417E+02 -0.85414402547E+00 -0.28570815756E+03  0.29724423246E+03  0.80284537077E+02 0.  0.
          5    1    3    3  501    0 -0.34284195508E+02  0.23170249607E+02 -0.87222456608E+02  0.96654609126E+02  0.47000000000E+01 0. -1.
        -13    1    4    4    0    0  0.31897111932E+02 -0.86774368769E+02 -0.24056075028E+03  0.25771436010E+03  0.00000000000E+00 0.  1.
         14    1    4    4    0    0 -0.50223287310E+01 -0.52957558127E+02 -0.36177201634E+02  0.64331303940E+02  0.00000000000E+00 0. -1.
         -5    1    5    5    0  502 -0.92832801094E+01  0.11741582131E+03 -0.22355217863E+03  0.25272578213E+03  0.47000000000E+01 0.  1.
         11    1    6    6    0    0 -0.22642163766E+02 -0.24215932168E+02 -0.16176484569E+03  0.16512705488E+03  0.00000000000E+00 0. -1.
        -12    1    6    6    0    0  0.39334856182E+02  0.23361788143E+02 -0.12394331187E+03  0.13211717758E+03  0.00000000000E+00 0.  1.
</event>
<event>
12    1  0.8135779E-002  0.1975350E+03  0.7818608E-02  0.1152126E+00
         21   -1    0    0  501  502  0.00000000000E+00  0.00000000000E+00  0.30059906478E+03  0.30059906478E+03  0.00000000000E+00 0.  1.
         21   -1    0    0  502  503 -0.00000000000E+00 -0.00000000000E+00 -0.54658712071E+03  0.54658712071E+03  0.00000000000E+00 0.  1.
         -6    2    1    2    0  503 -0.71740224185E+02  0.61612589102E+02 -0.49317644611E+03  0.53076528658E+03  0.17188953295E+03 0.  0.
        -24    2    3    3    0    0 -0.24531320125E+02  0.10462401988E+03 -0.26099962248E+03  0.28991921285E+03  0.66214619546E+02 0.  0.
          6    2    1    2  501    0  0.71740224185E+02 -0.61612589102E+02  0.24718839018E+03  0.31642089891E+03  0.17342812379E+03 0.  0.
         24    2    5    5    0    0  0.10331681687E+03 -0.72724800509E+02  0.14138770071E+03  0.20535137860E+03  0.78838096915E+02 0.  0.
          5    1    5    5  501    0 -0.31576592684E+02  0.11112211407E+02  0.10580068947E+03  0.11106952030E+03  0.47000000000E+01 0. -1.
        -11    1    6    6    0    0  0.97929043376E+02 -0.79967128315E+02  0.95135067849E+02  0.15822616813E+03  0.00000000000E+00 0.  1.
         12    1    6    6    0    0  0.53877734938E+01  0.72423278065E+01  0.46252632862E+02  0.47125210471E+02  0.00000000000E+00 0. -1.
         -5    1    3    3    0  503 -0.47208904060E+02 -0.43011430781E+02 -0.23217682364E+03  0.24084607374E+03  0.47000000000E+01 0.  1.
         11    1    4    4    0    0 -0.13227559821E+02  0.25736613372E+02 -0.17748368279E+02  0.33946224874E+02  0.00000000000E+00 0. -1.
        -12    1    4    4    0    0 -0.11303760305E+02  0.78887406511E+02 -0.24325125420E+03  0.25597298797E+03  0.00000000000E+00 0.  1.
</event>
<event>
12    1  0.8135779E-002  0.1901677E+03  0.7818608E-02  0.1158433E+00
         21   -1    0    0  501  502  0.00000000000E+00  0.00000000000E+00  0.14994147168E+03  0.14994147168E+03  0.00000000000E+00 0. -1.
         21   -1    0    0  502  503 -0.00000000000E+00 -0.00000000000E+00 -0.27138356249E+03  0.27138356249E+03  0.00000000000E+00 0. -1.
         -6    2    1    2    0  503 -0.38811280929E+02 -0.69236993521E+02 -0.13186888639E+03  0.23141553561E+03  0.17281108219E+03 0.  0.
        -24    2    3    3    0    0 -0.17263624169E+02 -0.57909748502E+02 -0.16324128195E+03  0.19142897294E+03  0.79660302900E+02 0.  0.
          6    2    1    2  501    0  0.38811280929E+02  0.69236993521E+02  0.10426795574E+02  0.18990949856E+03  0.17221156400E+03 0.  0.
         24    2    5    5    0    0  0.55010896912E+02 -0.18963134956E+02  0.16348935044E+02  0.99915876797E+02  0.79561897241E+02 0.  0.
          5    1    5    5  501    0 -0.16199615983E+02  0.88200128478E+02 -0.59221394696E+01  0.89993621760E+02  0.47000000000E+01 0. -1.
        -13    1    6    6    0    0  0.32473854508E+01  0.26816661865E+02  0.14787001456E+02  0.30795036580E+02  0.00000000000E+00 0.  1.
         14    1    6    6    0    0  0.51763511461E+02 -0.45779796822E+02  0.15619335879E+01  0.69120840217E+02  0.00000000000E+00 0. -1.
         -5    1    3    3    0  503 -0.21547656759E+02 -0.11327245019E+02  0.31372395556E+02  0.39986562674E+02  0.47000000000E+01 0.  1.
         11    1    4    4    0    0 -0.22902754799E+02 -0.63053756051E+02 -0.16902591199E+03  0.18185178376E+03  0.00000000000E+00 0. -1.
        -12    1    4    4    0    0  0.56391306302E+01  0.51440075490E+01  0.57846300459E+01  0.95771891856E+01  0.00000000000E+00 0.  1.
</event>
<event>
12    1  0.8135779E-002  0.2146562E+03  0.7818608E-02  0.1138952E+00
         21   -1    0    0  501  502  0.00000000000E+00  0.00000000000E+00  0.21822558907E+04  0.21822558907E+04  0.00000000000E+00 0.  1.
         21   -1    0    0  502  503 -0.00000000000E+00 -0.00000000000E+00 -0.66151032438E+02  0.66151032438E+02  0.00000000000E+00 0.  1.
         -6    2    1    2    0  503 -0.12568050988E+03  0.27092230910E+02  0.12929004749E+03  0.25058572936E+03  0.17189447879E+03 0.  0.
        -24    2    3    3    0    0 -0.11669908771E+03 -0.24423673738E+02  0.13683867032E+03  0.19754210502E+03  0.77992747415E+02 0.  0.
          6    2    1    2  501    0  0.12568050988E+03 -0.27092230910E+02  0.19868148108E+04  0.19978211938E+04  0.16530834973E+03 0.  0.
         24    2    5    5    0    0  0.15628096481E+03 -0.27274979250E+02  0.16398016351E+04  0.16494296679E+04  0.80629785545E+02 0.  0.
          5    1    5    5  501    0 -0.30600454932E+02  0.18274833973E+00  0.34701317566E+03  0.34839152590E+03  0.47000000000E+01 0. -1.
        -11    1    6    6    0    0  0.31268287596E+02  0.22333450492E+02  0.55378839928E+03  0.55511987894E+03  0.00000000000E+00 0.  1.
         12    1    6    6    0    0  0.12501267722E+03 -0.49608429741E+02  0.10860132358E+04  0.10943097889E+04  0.00000000000E+00 0. -1.
         -5    1    3    3    0  503 -0.89814221674E+01  0.51515904648E+02 -0.75486228299E+01  0.53043624334E+02  0.47000000000E+01 0.  1.
         11    1    4    4    0    0 -0.65282887373E+02  0.19910963769E+02  0.97695671560E+02  0.11917527472E+03  0.00000000000E+00 0. -1.
        -12    1    4    4    0    0 -0.51416200340E+02 -0.44334637507E+02  0.39142998762E+02  0.78366830307E+02  0.00000000000E+00 0.  1.
</event>
<event>
12    1  0.8135779E-002  0.1962876E+03  0.7818608E-02  0.1152945E+00
         21   -1    0    0  503  502  0.00000000000E+00  0.00000000000E+00  0.12420301211E+03  0.12420301211E+03  0.00000000000E+00 0. -1.
         21   -1    0    0  501  503 -0.00000000000E+00 -0.00000000000E+00 -0.32099317175E+03  0.32099317175E+03  0.00000000000E+00 0.  1.
          6    2    1    2  501    0  0.42026932659E+02  0.83817037782E+02 -0.13964124170E+03  0.24075840619E+03  0.17225961476E+03 0.  0.
         24    2    3    3    0    0  0.11023884231E+02 -0.18152193086E+02 -0.96706859276E+02  0.12576117035E+03  0.77541132311E+02 0.  0.
         -6    2    1    2    0  502 -0.42026932659E+02 -0.83817037782E+02 -0.57148917946E+02  0.20443777767E+03  0.17244491070E+03 0.  0.
        -24    2    5    5    0    0 -0.84942920766E+01 -0.12056405426E+03 -0.36466253972E+02  0.15035780177E+03  0.81669068187E+02 0.  0.
          5    1    3    3  501    0  0.31003048428E+02  0.10196923087E+03 -0.42934382423E+02  0.11499723584E+03  0.47000000000E+01 0. -1.
        -11    1    4    4    0    0  0.46368600261E+01  0.23789489014E+02 -0.73522309326E+02  0.77414276636E+02  0.00000000000E+00 0.  1.
         12    1    4    4    0    0  0.63870242046E+01 -0.41941682101E+02 -0.23184549949E+02  0.48346893716E+02  0.00000000000E+00 0. -1.
         -5    1    5    5    0  502 -0.33532640582E+02  0.36747016474E+02 -0.20682663974E+02  0.54079975899E+02  0.47000000000E+01 0.  1.
         11    1    6    6    0    0 -0.26622674504E+02 -0.70800237351E+01  0.53517306625E+01  0.28063046073E+02  0.00000000000E+00 0. -1.
        -12    1    6    6    0    0  0.18128382427E+02 -0.11348403052E+03 -0.41817984634E+02  0.12229475570E+03  0.00000000000E+00 0.  1.
</event>
<event>
12    1  0.8135779E-002  0.2045855E+03  0.7818608E-02  0.1146866E+00
         21   -1    0    0  501  502  0.00000000000E+00  0.00000000000E+00  0.24345549311E+03  0.24345549311E+03  0.00000000000E+00 0.  1.
         21   -1    0    0  502  503 -0.00000000000E+00 -0.00000000000E+00 -0.21369398647E+03  0.21369398647E+03  0.00000000000E+00 0.  1.
         -6    2    1    2    0  503 -0.96474099361E+02  0.55628607920E+02  0.12054733672E+03  0.23745922978E+03  0.17162002083E+03 0.  0.
        -24    2    3    3    0    0 -0.14174768324E+02  0.21464334608E+01  0.11320893941E+03  0.13892261247E+03  0.79231919458E+02 0.  0.
          6    2    1    2  501    0  0.96474099361E+02 -0.55628607920E+02 -0.90785830079E+02  0.21969024980E+03  0.16619249396E+03 0.  0.
         24    2    5    5    0    0 -0.10641584945E+02 -0.38361814531E+02 -0.22708937707E+02  0.91516675094E+02  0.79213217484E+02 0.  0.
          5    1    5    5  501    0  0.10711568431E+03 -0.17266793389E+02 -0.68076892372E+02  0.12817357471E+03  0.47000000000E+01 0. -1.
        -13    1    6    6    0    0  0.67390042250E+01  0.23346506512E+02 -0.93103079719E+01  0.26022209338E+02  0.00000000000E+00 0.  1.
         14    1    6    6    0    0 -0.17380589170E+02 -0.61708321043E+02 -0.13398629735E+02  0.65494465756E+02  0.00000000000E+00 0. -1.
         -5    1    3    3    0  503 -0.82299331037E+02  0.53482174459E+02  0.73383973099E+01  0.98536617301E+02  0.47000000000E+01 0.  1.
         11    1    4    4    0    0  0.26284226099E+02 -0.21033289316E+02  0.52647935970E+02  0.62490518985E+02  0.00000000000E+00 0. -1.
        -12    1    4    4    0    0 -0.40458994423E+02  0.23179722776E+02  0.60561003439E+02  0.76432093490E+02  0.00000000000E+00 0.  1.
</event>
<event>
12    1  0.8135779E-002  0.1873789E+03  0.7818608E-02  0.1162108E+00
         21   -1    0    0  503  502  0.00000000000E+00  0.00000000000E+00  0.10677657370E+04  0.10677657370E+04  0.00000000000E+00 0.  1.
         21   -1    0    0  501  503 -0.00000000000E+00 -0.00000000000E+00 -0.38526042230E+02  0.38526042230E+02  0.00000000000E+00 0.  1.
          6    2    1    2  501    0  0.36743230913E+02  0.51530162630E+02  0.74953883273E+03  0.77260553437E+03  0.17636730786E+03 0.  0.
         24    2    3    3    0    0  0.93570395338E+02  0.22872928787E+02  0.49104624824E+03  0.50635176461E+03  0.77376365033E+02 0.  0.
         -6    2    1    2    0  502 -0.36743230913E+02 -0.51530162630E+02  0.27970086201E+03  0.33368624483E+03  0.17061217748E+03 0.  0.
        -24    2    5    5    0    0  0.18700547381E+02 -0.46743225618E+02  0.25696693981E+03  0.27338824706E+03  0.78577896758E+02 0.  0.
          5    1    3    3  501    0 -0.56827164425E+02  0.28657233843E+02  0.25849258450E+03  0.26625376976E+03  0.47000000000E+01 0. -1.
        -11    1    4    4    0    0  0.32163394532E+02  0.33619577551E+02  0.33657149221E+03  0.33977217266E+03  0.00000000000E+00 0.  1.
         12    1    4    4    0    0  0.61407000806E+02 -0.10746648765E+02  0.15447475602E+03  0.16657959196E+03  0.00000000000E+00 0. -1.
         -5    1    5    5    0  502 -0.55443778295E+02 -0.47869370117E+01  0.22733922195E+02  0.60297997777E+02  0.47000000000E+01 0.  1.
         11    1    6    6    0    0  0.28647996276E+02  0.13732509527E+02  0.97723378699E+02  0.10275771627E+03  0.00000000000E+00 0. -1.
        -12    1    6    6    0    0 -0.99474488949E+01 -0.60475735145E+02  0.15924356111E+03  0.17063053079E+03  0.00000000000E+00 0.  1.
</event>
<event>
12    1  0.8135779E-002  0.1753319E+03  0.7818608E-02  0.1174771E+00
         21   -1    0    0  503  502  0.00000000000E+00  0.00000000000E+00  0.82288342803E+03  0.82288342803E+03  0.00000000000E+00 0.  1.
         21   -1    0    0  501  503 -0.00000000000E+00 -0.00000000000E+00 -0.53257321434E+02  0.53257321434E+02  0.00000000000E+00 0.  1.
          6    2    1    2  501    0  0.13436246444E+01 -0.19966861617E+02  0.12447041211E+03  0.20758473571E+03  0.16491833773E+03 0.  0.
         24    2    3    3    0    0  0.37329429918E+02 -0.14921238153E+02  0.13323035392E+02  0.90553689195E+02  0.80039600628E+02 0.  0.
         -6    2    1    2    0  502 -0.13436246444E+01  0.19966861617E+02  0.64515569449E+03  0.66855601375E+03  0.17418608586E+03 0.  0.
        -24    2    5    5    0    0 -0.25550895418E+02 -0.41167994978E+02  0.23294216769E+03  0.25110476592E+03  0.80273893074E+02 0.  0.
          5    1    3    3  501    0 -0.35985805274E+02 -0.50456234631E+01  0.11114737672E+03  0.11703104651E+03  0.47000000000E+01 0. -1.
        -11    1    4    4    0    0 -0.13115704537E+02 -0.55227742628E+01 -0.23445891776E+02  0.27426858775E+02  0.00000000000E+00 0.  1.
         12    1    4    4    0    0  0.50445134456E+02 -0.93984638907E+01  0.36768927168E+02  0.63126830420E+02  0.00000000000E+00 0. -1.
         -5    1    5    5    0  502  0.24207270773E+02  0.61134856595E+02  0.41221352680E+03  0.41745124784E+03  0.47000000000E+01 0.  1.
         13    1    6    6    0    0  0.19183271248E+02 -0.33808532390E+02  0.16434988419E+03  0.16888427752E+03  0.00000000000E+00 0. -1.
        -14    1    6    6    0    0 -0.44734166666E+02 -0.73594625879E+01  0.68592283499E+02  0.82220488398E+02  0.00000000000E+00 0.  1.
</event>
<event>
12    1  0.8135779E-002  0.2049166E+03  0.7818608E-02  0.1148078E+00
         21   -1    0    0  503  502  0.00000000000E+00  0.00000000000E+00  0.14759588450E+03  0.14759588450E+03  0.00000000000E+00 0.  1.
         21   -1    0    0  501  503 -0.00000000000E+00 -0.00000000000E+00 -0.29195103581E+03  0.29195103581E+03  0.00000000000E+00 0. -1.
          6    2    1    2  501    0 -0.45705843649E+02  0.93340152290E+02 -0.83538057606E+01  0.19360552526E+03  0.16313155785E+03 0.  0.
         24    2    3    3    0    0 -0.72791094075E+02  0.10087910887E+03 -0.37394912402E+02  0.15291249721E+03  0.80676603458E+02 0.  0.
         -6    2    1    2    0  502  0.45705843649E+02 -0.93340152290E+02 -0.13600134555E+03  0.24594139505E+03  0.17660519707E+03 0.  0.
        -24    2    5    5    0    0 -0.44098570610E+02 -0.66768117017E+02 -0.79967040232E+02  0.13670385914E+03  0.76749932902E+02 0.  0.
          5    1    3    3  501    0  0.27085250427E+02 -0.75389565782E+01  0.29041106641E+02  0.40693028050E+02  0.47000000000E+01 0. -1.
        -13    1    4    4    0    0 -0.66394244922E+02  0.68602221710E+02  0.91544494628E+01  0.95907583263E+02  0.00000000000E+00 0.  1.
         14    1    4    4    0    0 -0.63968491534E+01  0.32276887158E+02 -0.46549361864E+02  0.57004913943E+02  0.00000000000E+00 0. -1.
         -5    1    5    5    0  502  0.89804414259E+02 -0.26572035273E+02 -0.56034305323E+02  0.10923753591E+03  0.47000000000E+01 0.  1.
         11    1    6    6    0    0  0.99706508435E+01 -0.16928912432E+02 -0.56023675002E+02  0.59368797487E+02  0.00000000000E+00 0. -1.
        -12    1    6    6    0    0 -0.54069221454E+02 -0.49839204585E+02 -0.23943365230E+02  0.77335061653E+02  0.00000000000E+00 0.  1.
</event>
<event>
12    1  0.8135779E-002  0.1774022E+03  0.7818608E-02  0.1170904E+00
         21   -1    0    0  503  502  0.00000000000E+00  0.00000000000E+00  0.15333933586E+03  0.15333933586E+03  0.00000000000E+00 0.  1.
         21   -1    0    0  501  503 -0.00000000000E+00 -0.00000000000E+00 -0.20462822693E+03  0.20462822693E+03  0.00000000000E+00 0.  1.
          6    2    1    2  501    0  0.17973145731E+01 -0.31907680858E+02 -0.43176362536E+02  0.18037992643E+03  0.17219578723E+03 0.  0.
         24    2    3    3    0    0  0.58264207187E+02 -0.44526035358E+02 -0.53514332049E+02  0.12141640852E+03  0.80628002941E+02 0.  0.
         -6    2    1    2    0  502 -0.17973145731E+01  0.31907680858E+02 -0.81125285295E+01  0.17758763636E+03  0.17449992846E+03 0.  0.
        -24    2    5    5    0    0 -0.60433569857E+02 -0.23298994179E+01  0.22074179518E+02  0.10313127545E+03  0.80567647216E+02 0.  0.
          5    1    3    3  501    0 -0.56466892614E+02  0.12618354501E+02  0.10337969513E+02  0.58963517919E+02  0.47000000000E+01 0. -1.
        -11    1    4    4    0    0  0.49599326201E+02 -0.67152394218E+02 -0.33365408754E+02  0.89904325314E+02  0.00000000000E+00 0.  1.
         12    1    4    4    0    0  0.86648809865E+01  0.22626358860E+02 -0.20148923295E+02  0.31512083202E+02  0.00000000000E+00 0. -1.
         -5    1    5    5    0  502  0.58636255284E+02  0.34237580276E+02 -0.30186708048E+02  0.74456360908E+02  0.47000000000E+01 0.  1.
         13    1    6    6    0    0 -0.28366469463E+02 -0.14873989727E+02 -0.27876947639E+02  0.42461940251E+02  0.00000000000E+00 0. -1.
        -14    1    6    6    0    0 -0.32067100394E+02  0.12544090309E+02  0.49951127158E+02  0.60669335201E+02  0.00000000000E+00 0.  1.
</event>
<event>
12    1  0.8135779E-002  0.1750060E+03  0.7818608E-02  0.1172854E+00
         21   -1    0    0  503  502  0.00000000000E+00  0.00000000000E+00  0.28208300944E+02  0.28208300944E+02  0.00000000000E+00 0.  1.
         21   -1    0    0  501  503 -0.00000000000E+00 -0.00000000000E+00 -0.19931603382E+04  0.19931603382E+04  0.00000000000E+00 0.  1.
          6    2    1    2  501    0 -0.31446624048E+02 -0.13311817725E+02 -0.16663883968E+04  0.16755528558E+04  0.17164203774E+03 0.  0.
         24    2    3    3    0    0 -0.66471550992E+02  0.28952906220E+02 -0.76187390701E+03  0.76936214489E+03  0.78800519916E+02 0.  0.
         -6    2    1    2    0  502  0.31446624048E+02  0.13311817725E+02 -0.29856364050E+03  0.34581578333E+03  0.17112046610E+03 0.  0.
        -24    2    5    5    0    0  0.54152677562E+02  0.36254235771E+02 -0.29678022333E+03  0.31314790938E+03  0.75737903895E+02 0.  0.
          5    1    3    3  501    0  0.35024926943E+02 -0.42264723945E+02 -0.90451448975E+03  0.90619071092E+03  0.47000000000E+01 0. -1.
        -13    1    4    4    0    0 -0.29613101630E+02  0.43923860097E+02 -0.61232472931E+03  0.61461192260E+03  0.00000000000E+00 0.  1.
         14    1    4    4    0    0 -0.36858449361E+02 -0.14970953877E+02 -0.14954917770E+03  0.15475022229E+03  0.00000000000E+00 0. -1.
         -5    1    5    5    0  502 -0.22706053514E+02 -0.22942418046E+02 -0.17834171663E+01  0.32667873955E+02  0.47000000000E+01 0.  1.
         11    1    6    6    0    0  0.59540585657E+01 -0.79171820006E+01 -0.17193768838E+03  0.17222282448E+03  0.00000000000E+00 0. -1.
        -12    1    6    6    0    0  0.48198618997E+02  0.44171417772E+02 -0.12484253495E+03  0.14092508490E+03  0.00000000000E+00 0.  1.
</event>
<event>
12    1  0.8135779E-002  0.2036089E+03  0.7818608E-02  0.1147040E+00
         21   -1    0    0  501  502  0.00000000000E+00  0.00000000000E+00  0.37977339241E+02  0.37977339241E+02  0.00000000000E+00 0.  1.
         21   -1    0    0  502  503 -0.00000000000E+00 -0.00000000000E+00 -0.11110194949E+04  0.11110194949E+04  0.00000000000E+00 0.  1.
         -6    2    1    2    0  503  0.75449725972E+02  0.77297003145E+02 -0.62873132136E+03  0.66087793190E+03  0.17259512903E+03 0.  0.
        -24    2    3    3    0    0 -0.99558119271E+01  0.13680507428E+02 -0.15599616966E+03  0.17627316708E+03  0.80319051344E+02 0.  0.
          6    2    1    2  501    0 -0.75449725972E+02 -0.77297003145E+02 -0.44431083426E+03  0.48811890221E+03  0.17082288314E+03 0.  0.
         24    2    5    5    0    0 -0.28737188968E+02  0.10371179002E+02 -0.31254295572E+03  0.32303518075E+03  0.75731376915E+02 0.  0.
          5    1    5    5  501    0 -0.46712537004E+02 -0.87668182147E+02 -0.13176787855E+03  0.16508372146E+03  0.47000000000E+01 0. -1.
        -11    1    6    6    0    0 -0.41237207621E+02 -0.16179479235E+01 -0.81586672397E+02  0.91430356888E+02  0.00000000000E+00 0.  1.
         12    1    6    6    0    0  0.12500018653E+02  0.11989126925E+02 -0.23095628332E+03  0.23160482386E+03  0.00000000000E+00 0. -1.
         -5    1    3    3    0  503  0.85405537899E+02  0.63616495717E+02 -0.47273515170E+03  0.48460476481E+03  0.47000000000E+01 0.  1.
         11    1    4    4    0    0 -0.13361677846E+02  0.39026186204E+01 -0.16311504599E+03  0.16370792008E+03  0.00000000000E+00 0. -1.
        -12    1    4    4    0    0  0.34058659192E+01  0.97778888078E+01  0.71188763262E+01  0.12565247007E+02  0.00000000000E+00 0.  1.
</event>
<event>
12    1  0.8135779E-002  0.3596089E+03  0.7818608E-02  0.1058788E+00
         21   -1    0    0  501  502  0.00000000000E+00  0.00000000000E+00  0.15243397542E+03  0.15243397542E+03  0.00000000000E+00 0. -1.
         21   -1    0    0  502  503 -0.00000000000E+00 -0.00000000000E+00 -0.11074778791E+04  0.11074778791E+04  0.00000000000E+00 0.  1.
         -6    2    1    2    0  503  0.25648484535E+03  0.18316175254E+03 -0.78318110898E+03  0.86179534850E+03  0.17316428545E+03 0.  0.
        -24    2    3    3    0    0  0.15944001504E+03  0.37038765385E+02 -0.44272877549E+03  0.47878163094E+03  0.80187860311E+02 0.  0.
          6    2    1    2  501    0 -0.25648484535E+03 -0.18316175254E+03 -0.17186279467E+03  0.39811650598E+03  0.17212561883E+03 0.  0.
         24    2    5    5    0    0 -0.11902768910E+03 -0.10029734876E+03 -0.16123016183E+03  0.23719378509E+03  0.77708285677E+02 0.  0.
          5    1    5    5  501    0 -0.13745715625E+03 -0.82864403779E+02 -0.10632632841E+02  0.16092272089E+03  0.47000000000E+01 0. -1.
        -11    1    6    6    0    0 -0.37511789113E+01 -0.38863070234E+02 -0.61512486121E+02  0.72857364213E+02  0.00000000000E+00 0.  1.
         12    1    6    6    0    0 -0.11527651019E+03 -0.61434278524E+02 -0.99717675704E+02  0.16433642088E+03  0.00000000000E+00 0. -1.
         -5    1    3    3    0  503  0.97044830311E+02  0.14612298715E+03 -0.34045233349E+03  0.38301371756E+03  0.47000000000E+01 0.  1.
         13    1    4    4    0    0  0.64609892113E+02  0.40874735652E+02 -0.28145564266E+03  0.29165469473E+03  0.00000000000E+00 0. -1.
        -14    1    4    4    0    0  0.94830122923E+02 -0.38359702673E+01 -0.16127313283E+03  0.18712693621E+03  0.00000000000E+00 0.  1.
</event>
<event>
12    1  0.8135779E-002  0.1767672E+03  0.7818608E-02  0.1173177E+00
         21   -1    0    0  503  502  0.00000000000E+00  0.00000000000E+00  0.34630321510E+02  0.34630321510E+02  0.00000000000E+00 0.  1.
         21   -1    0    0  501  503 -0.00000000000E+00 -0.00000000000E+00 -0.20379302800E+04  0.20379302800E+04  0.00000000000E+00 0.  1.
          6    2    1    2  501    0 -0.42599302139E+02 -0.30390337539E+02 -0.17792615453E+04  0.17871839055E+04  0.15973851252E+03 0.  0.
         24    2    3    3    0    0 -0.85595630051E+02 -0.44764181009E+01 -0.11719469800E+04  0.11777798633E+04  0.79743540619E+02 0.  0.
         -6    2    1    2    0  502  0.42599302139E+02  0.30390337539E+02 -0.22403841311E+03  0.28537669592E+03  0.16884423255E+03 0.  0.
        -24    2    5    5    0    0  0.76285571601E+01 -0.43621840437E+02 -0.14455053763E+03  0.17117876318E+03  0.80288549543E+02 0.  0.
          5    1    3    3  501    0  0.42996327913E+02 -0.25913919438E+02 -0.60731456530E+03  0.60940404221E+03  0.47000000000E+01 0. -1.
        -11    1    4    4    0    0 -0.38637836625E+02  0.12745698526E+02 -0.92093500298E+03  0.92183329022E+03  0.00000000000E+00 0.  1.
         12    1    4    4    0    0 -0.46957793427E+02 -0.17222116627E+02 -0.25101197706E+03  0.25594657312E+03  0.00000000000E+00 0. -1.
         -5    1    5    5    0  502  0.34970744979E+02  0.74012177976E+02 -0.79487875484E+02  0.11419793274E+03  0.47000000000E+01 0.  1.
         13    1    6    6    0    0 -0.30228828774E+02 -0.10173643234E+02 -0.95819673138E+02  0.10098858780E+03  0.00000000000E+00 0. -1.
        -14    1    6    6    0    0  0.37857385934E+02 -0.33448197203E+02 -0.48730864494E+02  0.70190175382E+02  0.00000000000E+00 0.  1.
</event>
<event>
12    1  0.8135779E-002  0.2398155E+03  0.7818608E-02  0.1120052E+00
         21   -1    0    0  503  502  0.00000000000E+00  0.00000000000E+00  0.88629053464E+02  0.88629053464E+02  0.00000000000E+00 0. -1.
         21   -1    0    0  501  503 -0.00000000000E+00 -0.00000000000E+00 -0.67043497321E+03  0.67043497321E+03  0.00000000000E+00 0. -1.
          6    2    1    2  501    0 -0.10440876992E+03 -0.13019013830E+03 -0.36279878646E+03  0.43489590768E+03  0.17222319157E+03 0.  0.
         24    2    3    3    0    0 -0.36243914449E+02 -0.14253545095E+03 -0.26975830135E+03  0.31880337504E+03  0.85065120219E+02 0.  0.
         -6    2    1    2    0  502  0.10440876992E+03  0.13019013830E+03 -0.21900713329E+03  0.32416811900E+03  0.17108530502E+03 0.  0.
        -24    2    5    5    0    0  0.47231155602E+02  0.31672498733E+02 -0.17667938644E+03  0.20255918413E+03  0.81121441364E+02 0.  0.
          5    1    3    3  501    0 -0.68164855472E+02  0.12345312648E+02 -0.93040485104E+02  0.11609253264E+03  0.47000000000E+01 0. -1.
        -13    1    4    4    0    0 -0.52778773754E+01  0.73577089435E+01 -0.48284544249E+00  0.90678007371E+01  0.00000000000E+00 0.  1.
         14    1    4    4    0    0 -0.30966037073E+02 -0.14989315989E+03 -0.26927545591E+03  0.30973557430E+03  0.00000000000E+00 0. -1.
         -5    1    5    5    0  502  0.57177614319E+02  0.98517639567E+02 -0.42327746853E+02  0.12160893486E+03  0.47000000000E+01 0.  1.
         13    1    6    6    0    0 -0.13068023592E+02  0.18292399774E+02 -0.96298008729E+01  0.24456455077E+02  0.00000000000E+00 0. -1.
        -14    1    6    6    0    0  0.60299179193E+02  0.13380098959E+02 -0.16704958557E+03  0.17810272906E+03  0.00000000000E+00 0.  1.
</event>
<event>
12    1  0.8135779E-002  0.1747490E+03  0.7818608E-02  0.1173172E+00
         21   -1    0    0  503  502  0.00000000000E+00  0.00000000000E+00  0.73646633487E+02  0.73646633487E+02  0.00000000000E+00 0. -1.
         21   -1    0    0  501  503 -0.00000000000E+00 -0.00000000000E+00 -0.43335673428E+03  0.43335673428E+03  0.00000000000E+00 0. -1.
          6    2    1    2  501    0 -0.30523399448E+02 -0.15569256821E+02 -0.12437978918E+03  0.21388640289E+03  0.17059596042E+03 0.  0.
         24    2    3    3    0    0  0.16677971839E+02 -0.62134543404E+02 -0.10218585969E+03  0.14380819035E+03  0.78102429300E+02 0.  0.
         -6    2    1    2    0  502  0.30523399448E+02  0.15569256821E+02 -0.23533031161E+03  0.29311696488E+03  0.17135670359E+03 0.  0.
        -24    2    5    5    0    0 -0.37547465727E+02 -0.12430386181E+02 -0.73497376668E+02  0.11526980711E+03  0.79504322972E+02 0.  0.
          5    1    3    3  501    0 -0.47201371287E+02  0.46565286583E+02 -0.22193929489E+02  0.70078212535E+02  0.47000000000E+01 0. -1.
        -13    1    4    4    0    0  0.82728210493E+01  0.88508755603E+01  0.64802196277E+01  0.13739389096E+02  0.00000000000E+00 0.  1.
         14    1    4    4    0    0  0.84051507898E+01 -0.70985418965E+02 -0.10866607932E+03  0.13006880126E+03  0.00000000000E+00 0. -1.
         -5    1    5    5    0  502  0.68070865175E+02  0.27999643002E+02 -0.16183293494E+03  0.17784715777E+03  0.47000000000E+01 0.  1.
         13    1    6    6    0    0 -0.35198850313E+02  0.28780822232E+02 -0.26133265805E+02  0.52442753297E+02  0.00000000000E+00 0. -1.
        -14    1    6    6    0    0 -0.23486154140E+01 -0.41211208413E+02 -0.47364110863E+02  0.62827053814E+02  0.00000000000E+00 0.  1.
</event>
<event>
12    1  0.8135779E-002  0.2206872E+03  0.7818608E-02  0.1133954E+00
         21   -1    0    0  501  502  0.00000000000E+00  0.00000000000E+00  0.44163416310E+03  0.44163416310E+03  0.00000000000E+00 0.  1.
         21   -1    0    0  502  503 -0.00000000000E+00 -0.00000000000E+00 -0.15459955084E+03  0.15459955084E+03  0.00000000000E+00 0. -1.
         -6    2    1    2    0  503 -0.17627604773E+02 -0.13212062182E+03 -0.19586345562E+02  0.21845168212E+03  0.17196197640E+03 0.  0.
        -24    2    3    3    0    0 -0.51708600918E+02 -0.47421888076E+02  0.35796678976E+02  0.11156501689E+03  0.79010985891E+02 0.  0.
          6    2    1    2  501    0  0.17627604773E+02  0.13212062182E+03  0.30662095783E+03  0.37778203182E+03  0.17588706781E+03 0.  0.
         24    2    5    5    0    0 -0.35690897524E+02  0.12341700973E+03  0.15655977740E+03  0.21822306647E+03  0.81269578467E+02 0.  0.
          5    1    5    5  501    0  0.53318502297E+02  0.87036120909E+01  0.15006118043E+03  0.15955896534E+03  0.47000000000E+01 0. -1.
        -11    1    6    6    0    0  0.16951709266E+02  0.51274474041E+02  0.96549250129E+02  0.11062635236E+03  0.00000000000E+00 0.  1.
         12    1    6    6    0    0 -0.52642606790E+02  0.72142535689E+02  0.60010527274E+02  0.10759671412E+03  0.00000000000E+00 0. -1.
         -5    1    3    3    0  503  0.34080996145E+02 -0.84698733746E+02 -0.55383024538E+02  0.10688666523E+03  0.47000000000E+01 0.  1.
         13    1    4    4    0    0 -0.22887111034E+02  0.16611437558E+01 -0.21035891280E+02  0.31130177834E+02  0.00000000000E+00 0. -1.
        -14    1    4    4    0    0 -0.28821489884E+02 -0.49083031831E+02  0.56832570255E+02  0.80434839061E+02  0.00000000000E+00 0.  1.
</event>
<event>
12    1  0.8135779E-002  0.1824321E+03  0.7818608E-02  0.1167300E+00
         21   -1    0    0  501  502  0.00000000000E+00  0.00000000000E+00  0.91053937699E+03  0.91053937699E+03  0.00000000000E+00 0.  1.
         21   -1    0    0  502  503 -0.00000000000E+00 -0.00000000000E+00 -0.55019312203E+02  0.55019312203E+02  0.00000000000E+00 0.  1.
         -6    2    1    2    0  503 -0.28535129709E+02 -0.26617718773E+02  0.14275439169E+03  0.23164687012E+03  0.17820970655E+03 0.  0.
        -24    2    3    3    0    0  0.27672987512E+01  0.49049838056E+02  0.10954448437E+03  0.14315727114E+03  0.77977340729E+02 0.  0.
          6    2    1    2  501    0  0.28535129709E+02  0.26617718773E+02  0.71276567309E+03  0.73391181907E+03  0.17049603178E+03 0.  0.
         24    2    5    5    0    0  0.29789648311E+01  0.56304774917E+02  0.24092165811E+03  0.26042126654E+03  0.81221233722E+02 0.  0.
          5    1    5    5  501    0  0.25556164877E+02 -0.29687056144E+02  0.47184401498E+03  0.47349055253E+03  0.47000000000E+01 0. -1.
        -11    1    6    6    0    0  0.41083651901E+02  0.28416277390E+02  0.14776690915E+03  0.15598208459E+03  0.00000000000E+00 0.  1.
         12    1    6    6    0    0 -0.38104687070E+02  0.27888497527E+02  0.93154748967E+02  0.10443918195E+03  0.00000000000E+00 0. -1.
         -5    1    3    3    0  503 -0.31302428460E+02 -0.75667556829E+02  0.33209907318E+02  0.88489598982E+02  0.47000000000E+01 0.  1.
         13    1    4    4    0    0 -0.18607339743E+02  0.31536003507E+02  0.74204247209E+01  0.37360611779E+02  0.00000000000E+00 0. -1.
        -14    1    4    4    0    0  0.21374638495E+02  0.17513834549E+02  0.10212405965E+03  0.10579665936E+03  0.00000000000E+00 0.  1.
</event>
<event>
12    1  0.8135779E-002  0.4688194E+03  0.7818608E-02  0.1022303E+00
         21   -1    0    0  503  502  0.00000000000E+00  0.00000000000E+00  0.19082752154E+03  0.19082752154E+03  0.00000000000E+00 0. -1.
         21   -1    0    0  501  503 -0.00000000000E+00 -0.00000000000E+00 -0.12459281350E+04  0.12459281350E+04  0.00000000000E+00 0.  1.
          6    2    1    2  501    0  0.17457543105E+03  0.39908942212E+03 -0.32864874738E+03  0.57253962755E+03  0.17332823771E+03 0.  0.
         24    2    3    3    0    0  0.93188673975E+02  0.28446426921E+03 -0.29490906250E+03  0.42789113553E+03  0.80718147354E+02 0.  0.
         -6    2    1    2    0  502 -0.17457543105E+03 -0.39908942212E+03 -0.72645186610E+03  0.86421602901E+03  0.17142952795E+03 0.  0.
        -24    2    5    5    0    0 -0.18707605684E+03 -0.40512069297E+03 -0.69944080971E+03  0.83348609180E+03  0.79758335092E+02 0.  0.
          5    1    3    3  501    0  0.81386757078E+02  0.11462515291E+03 -0.33739684887E+02  0.14464849202E+03  0.47000000000E+01 0. -1.
        -13    1    4    4    0    0 -0.39259579175E+01 -0.29999268405E+01 -0.26713839933E+00  0.49481379875E+01  0.00000000000E+00 0.  1.
         14    1    4    4    0    0  0.97114631892E+02  0.28746419605E+03 -0.29464192410E+03  0.42294299755E+03  0.00000000000E+00 0. -1.
         -5    1    5    5    0  502  0.12500625789E+02  0.60312708540E+01 -0.27011056398E+02  0.30729937211E+02  0.47000000000E+01 0.  1.
         13    1    6    6    0    0  0.33967160720E+01 -0.37042146843E+02 -0.39977357627E+02  0.54606294927E+02  0.00000000000E+00 0. -1.
        -14    1    6    6    0    0 -0.19047277291E+03 -0.36807854613E+03 -0.65946345208E+03  0.77887979687E+03  0.00000000000E+00 0.  1.
</event>
<event>
12    1  0.8135779E-002  0.2172928E+03  0.7818608E-02  0.1136524E+00
         21   -1    0    0  501  502  0.00000000000E+00  0.00000000000E+00  0.46034520215E+02  0.46034520215E+02  0.00000000000E+00 0.  1.
         21   -1    0    0  502  503 -0.00000000000E+00 -0.00000000000E+00 -0.12542086655E+04  0.12542086655E+04  0.00000000000E+00 0.  1.
         -6    2    1    2    0  503 -0.45939978928E+02  0.11926344417E+03 -0.89411926551E+03  0.92014423100E+03  0.17573245035E+03 0.  0.
        -24    2    3    3    0    0  0.36876551478E+02  0.35689545510E+02 -0.48886639145E+03  0.49813101299E+03  0.80687878271E+02 0.  0.
          6    2    1    2  501    0  0.45939978928E+02 -0.11926344417E+03 -0.31405487974E+03  0.38009895468E+03  0.17178619584E+03 0.  0.
         24    2    5    5    0    0  0.11613610845E+02 -0.13844421493E+03 -0.18451321863E+03  0.24463924304E+03  0.80632219273E+02 0.  0.
          5    1    5    5  501    0  0.34326368083E+02  0.19180770761E+02 -0.12954166112E+03  0.13545971164E+03  0.47000000000E+01 0. -1.
        -13    1    6    6    0    0  0.10082057345E+02 -0.31870365713E+02 -0.22546709322E+01  0.33503009298E+02  0.00000000000E+00 0.  1.
         14    1    6    6    0    0  0.15315535006E+01 -0.10657384922E+03 -0.18225854770E+03  0.21113623375E+03  0.00000000000E+00 0. -1.
         -5    1    3    3    0  503 -0.82816530406E+02  0.83573898658E+02 -0.40525287406E+03  0.42201321801E+03  0.47000000000E+01 0.  1.
         13    1    4    4    0    0 -0.15395878836E+02 -0.69589089437E+01 -0.22994831316E+03  0.23056818130E+03  0.00000000000E+00 0. -1.
        -14    1    4    4    0    0  0.52272430314E+02  0.42648454454E+02 -0.25891807829E+03  0.26756283169E+03  0.00000000000E+00 0.  1.
</event>
<event>
12    1  0.8135779E-002  0.2685473E+03  0.7818608E-02  0.1102180E+00
         21   -1    0    0  501  502  0.00000000000E+00  0.00000000000E+00  0.21883025065E+03  0.21883025065E+03  0.00000000000E+00 0. -1.
         21   -1    0    0  502  503 -0.00000000000E+00 -0.00000000000E+00 -0.57271403600E+03  0.57271403600E+03  0.00000000000E+00 0.  1.
         -6    2    1    2    0  503 -0.14321747321E+03 -0.14728667583E+03 -0.43503414540E+03  0.51100372304E+03  0.17223672022E+03 0.  0.
        -24    2    3    3    0    0 -0.26279088742E+01 -0.74345866964E+02 -0.20077507065E+03  0.22818719011E+03  0.78895823066E+02 0.  0.
          6    2    1    2  501    0  0.14321747321E+03  0.14728667583E+03  0.81150360042E+02  0.28054056360E+03  0.17295380130E+03 0.  0.
         24    2    5    5    0    0  0.88625321678E+02  0.58286637916E+01  0.23484904489E+02  0.11825049323E+03  0.74452786685E+02 0.  0.
          5    1    5    5  501    0  0.54592151528E+02  0.14145801204E+03  0.57665455553E+02  0.16229007038E+03  0.47000000000E+01 0. -1.
        -13    1    6    6    0    0  0.10008771420E+03  0.10439807369E+02  0.28991675574E+02  0.10472371921E+03  0.00000000000E+00 0.  1.
         14    1    6    6    0    0 -0.11462392526E+02 -0.46111435777E+01 -0.55067710849E+01  0.13526774017E+02  0.00000000000E+00 0. -1.
         -5    1    3    3    0  503 -0.14058956433E+03 -0.72940808868E+02 -0.23425907474E+03  0.28281653293E+03  0.47000000000E+01 0.  1.
         11    1    4    4    0    0 -0.16268793304E+02 -0.15809708362E+02 -0.47801933096E+01  0.23183415670E+02  0.00000000000E+00 0. -1.
        -12    1    4    4    0    0  0.13640884430E+02 -0.58536158602E+02 -0.19599487734E+03  0.20500377444E+03  0.00000000000E+00 0.  1.
</event>
<event>
12    1  0.8135779E-002  0.1743189E+03  0.7818608E-02  0.1173578E+00
         21   -1    0    0  501  502  0.00000000000E+00  0.00000000000E+00  0.63593284305E+02  0.63593284305E+02  0.00000000000E+00 0.  1.
         21   -1    0    0  502  503 -0.00000000000E+00 -0.00000000000E+00 -0.51658311461E+03  0.51658311461E+03  0.00000000000E+00 0.  1.
         -6    2    1    2    0  503  0.23827586915E+01  0.19402522087E+02 -0.30732939308E+03  0.35301115974E+03  0.17257864193E+03 0.  0.
        -24    2    3    3    0    0  0.33089514676E+01  0.79173961670E+02 -0.20562577094E+03  0.23494677232E+03  0.81477375871E+02 0.  0.
          6    2    1    2  501    0 -0.23827586915E+01 -0.19402522087E+02 -0.14566043722E+03  0.22716523917E+03  0.17321936241E+03 0.  0.
         24    2    5    5    0    0  0.12296854427E+02 -0.52086784929E+02 -0.21643975727E+02  0.97991229397E+02  0.79180638798E+02 0.  0.
          5    1    5    5  501    0 -0.14679613119E+02  0.32684262842E+02 -0.12401646150E+03  0.12917400977E+03  0.47000000000E+01 0. -1.
        -11    1    6    6    0    0  0.25438519488E+02 -0.19396862634E+01  0.19252280489E+02  0.31961397975E+02  0.00000000000E+00 0.  1.
         12    1    6    6    0    0 -0.13141665061E+02 -0.50147098666E+02 -0.40896256215E+02  0.66029831422E+02  0.00000000000E+00 0. -1.
         -5    1    3    3    0  503 -0.92619277610E+00 -0.59771439582E+02 -0.10170362214E+03  0.11806438743E+03  0.47000000000E+01 0.  1.
         13    1    4    4    0    0  0.31400044352E+02  0.30323066232E+02 -0.37227989362E+02  0.57370500460E+02  0.00000000000E+00 0. -1.
        -14    1    4    4    0    0 -0.28091092885E+02  0.48850895438E+02 -0.16839778158E+03  0.17757627186E+03  0.00000000000E+00 0.  1.
</event>
<event>
12    1  0.8135779E-002  0.2349824E+03  0.7818608E-02  0.1125602E+00
         21   -1    0    0  501  502  0.00000000000E+00  0.00000000000E+00  0.49831232284E+03  0.49831232284E+03  0.00000000000E+00 0. -1.
         21   -1    0    0  502  503 -0.00000000000E+00 -0.00000000000E+00 -0.34386373101E+03  0.34386373101E+03  0.00000000000E+00 0. -1.
         -6    2    1    2    0  503 -0.68232493974E+02  0.12138256086E+03 -0.27479931171E+03  0.35281882351E+03  0.17197982786E+03 0.  0.
        -24    2    3    3    0    0  0.21527554913E+01  0.12616474524E+03 -0.16925127925E+03  0.22577776799E+03  0.80046409623E+02 0.  0.
          6    2    1    2  501    0  0.68232493974E+02 -0.12138256086E+03  0.42924790354E+03  0.48935723034E+03  0.18928110543E+03 0.  0.
         24    2    5    5    0    0  0.82426197654E+01 -0.31305491040E+02  0.33298157448E+03  0.34443670168E+03  0.81926418027E+02 0.  0.
          5    1    5    5  501    0  0.59989874209E+02 -0.90077069821E+02  0.96266329064E+02  0.14492052866E+03  0.47000000000E+01 0. -1.
        -13    1    6    6    0    0  0.16852819386E+02  0.36814936028E+01  0.11029846539E+02  0.20475068525E+02  0.00000000000E+00 0.  1.
         14    1    6    6    0    0 -0.86101996210E+01 -0.34986984643E+02  0.32195172794E+03  0.32396163315E+03  0.00000000000E+00 0. -1.
         -5    1    3    3    0  503 -0.70385249465E+02 -0.47821843842E+01 -0.10554803246E+03  0.12704105552E+03  0.47000000000E+01 0.  1.
         13    1    4    4    0    0 -0.35595814472E+02  0.34780784437E+02 -0.67913422416E+02  0.84196187077E+02  0.00000000000E+00 0. -1.
        -14    1    4    4    0    0  0.37748569963E+02  0.91383960808E+02 -0.10133785683E+03  0.14158158092E+03  0.00000000000E+00 0.  1.
</event>
<event>
12    1  0.8135779E-002  0.1726870E+03  0.7818608E-02  0.1175218E+00
         21   -1    0    0  501  502  0.00000000000E+00  0.00000000000E+00  0.15876910038E+03  0.15876910038E+03  0.00000000000E+00 0.  1.
         21   -1    0    0  502  503 -0.00000000000E+00 -0.00000000000E+00 -0.22012990301E+03  0.22012990301E+03  0.00000000000E+00 0.  1.
         -6    2    1    2    0  503  0.17107396169E+02 -0.78174244726E+01 -0.10397927485E+03  0.20157505893E+03  0.17165966228E+03 0.  0.
        -24    2    3    3    0    0  0.31749884331E+02  0.16013936937E+01 -0.13809024675E+03  0.16299054132E+03  0.80538069849E+02 0.  0.
          6    2    1    2  501    0 -0.17107396169E+02  0.78174244726E+01  0.42618472222E+02  0.17732394446E+03  0.17109550543E+03 0.  0.
         24    2    5    5    0    0 -0.47140720113E+02 -0.29744806469E+02 -0.19751820732E+02  0.98424862191E+02  0.78678574405E+02 0.  0.
          5    1    5    5  501    0  0.30033323944E+02  0.37562230942E+02  0.62370292954E+02  0.78899082274E+02  0.47000000000E+01 0. -1.
        -11    1    6    6    0    0 -0.46579796696E+02  0.16721783018E+02 -0.53730003009E+01  0.49781167320E+02  0.00000000000E+00 0.  1.
         12    1    6    6    0    0 -0.56092341657E+00 -0.46466589487E+02 -0.14378820431E+02  0.48643694870E+02  0.00000000000E+00 0. -1.
         -5    1    3    3    0  503 -0.14642488162E+02 -0.94188181663E+01  0.34110971901E+02  0.38584517611E+02  0.47000000000E+01 0.  1.
         13    1    4    4    0    0  0.31328655141E+02  0.20606961777E+02 -0.18344292589E+02  0.41744994637E+02  0.00000000000E+00 0. -1.
        -14    1    4    4    0    0  0.42122919025E+00 -0.19005568084E+02 -0.11974595416E+03  0.12124554668E+03  0.00000000000E+00 0.  1.
</event>
<event>
12    1  0.8135779E-002  0.3169690E+03  0.7818608E-02  0.1077166E+00
         21   -1    0    0  501  502  0.00000000000E+00  0.00000000000E+00  0.35336305268E+03  0.35336305268E+03  0.00000000000E+00 0.  1.
         21   -1    0    0  502  503 -0.00000000000E+00 -0.00000000000E+00 -0.28473108731E+03  0.28473108731E+03  0.00000000000E+00 0. -1.
         -6    2    1    2    0  503 -0.20749803485E+03 -0.16731355789E+03  0.12976408477E+02  0.31723448063E+03  0.17152278975E+03 0.  0.
        -24    2    3    3    0    0 -0.68336524250E+02 -0.93620968583E+01  0.42909949038E+01  0.10649265639E+03  0.81023106730E+02 0.  0.
          6    2    1    2  501    0  0.20749803485E+03  0.16731355789E+03  0.55655556894E+02  0.32085965937E+03  0.16971776241E+03 0.  0.
         24    2    5    5    0    0  0.13324925807E+03  0.34066881571E+02  0.75928314797E+02  0.16690956253E+03  0.56371764932E+02 0.  0.
          5    1    5    5  501    0  0.74248776777E+02  0.13324667632E+03 -0.20272757902E+02  0.15395009683E+03  0.47000000000E+01 0. -1.
        -11    1    6    6    0    0  0.24328070568E+01  0.16465223939E+02  0.84203300991E+01  0.18652723890E+02  0.00000000000E+00 0.  1.
         12    1    6    6    0    0  0.13081645101E+03  0.17601657632E+02  0.67507984698E+02  0.14825683864E+03  0.00000000000E+00 0. -1.
         -5    1    3    3    0  503 -0.13916151060E+03 -0.15795146103E+03  0.86854135727E+01  0.21074182423E+03  0.47000000000E+01 0.  1.
         13    1    4    4    0    0  0.17200872765E+02  0.31833536564E+00 -0.89568719066E+01  0.19395796339E+02  0.00000000000E+00 0. -1.
        -14    1    4    4    0    0 -0.85537397015E+02 -0.96804322240E+01  0.13247866810E+02  0.87096860053E+02  0.00000000000E+00 0.  1.
</event>
<event>
12    1  0.8135779E-002  0.1988012E+03  0.7818608E-02  0.1151114E+00
         21   -1    0    0  503  502  0.00000000000E+00  0.00000000000E+00  0.91835527198E+02  0.91835527198E+02  0.00000000000E+00 0.  1.
         21   -1    0    0  501  503 -0.00000000000E+00 -0.00000000000E+00 -0.43562030817E+03  0.43562030817E+03  0.00000000000E+00 0.  1.
          6    2    1    2  501    0 -0.68892851804E+02 -0.67918204262E+02 -0.20887099340E+03  0.28719839626E+03  0.17174609001E+03 0.  0.
         24    2    3    3    0    0 -0.67047435872E+01 -0.97999238556E+02 -0.14700780193E+03  0.19434704255E+03  0.80688752469E+02 0.  0.
         -6    2    1    2    0  502  0.68892851804E+02  0.67918204262E+02 -0.13491378757E+03  0.24025743910E+03  0.17367440648E+03 0.  0.
        -24    2    5    5    0    0  0.62858328171E+02 -0.21513764803E+02 -0.44327855656E+02  0.11273334872E+03  0.79560276715E+02 0.  0.
          5    1    3    3  501    0 -0.62188108217E+02  0.30081034294E+02 -0.61863191477E+02  0.92851353719E+02  0.47000000000E+01 0. -1.
        -13    1    4    4    0    0 -0.17502048386E+02 -0.74599343322E+02 -0.14996517147E+03  0.16840705560E+03  0.00000000000E+00 0.  1.
         14    1    4    4    0    0  0.10797304799E+02 -0.23399895234E+02  0.29573695485E+01  0.25939986942E+02  0.00000000000E+00 0. -1.
         -5    1    5    5    0  502  0.60345236337E+01  0.89431969065E+02 -0.90585931910E+02  0.12752409038E+03  0.47000000000E+01 0.  1.
         13    1    6    6    0    0  0.42388383481E+02 -0.11346382901E+02 -0.67291003341E+02  0.80334267842E+02  0.00000000000E+00 0. -1.
        -14    1    6    6    0    0  0.20469944690E+02 -0.10167381902E+02  0.22963147685E+02  0.32399080882E+02  0.00000000000E+00 0.  1.
</event>
<event>
12    1  0.8135779E-002  0.1847333E+03  0.7818608E-02  0.1163379E+00
         21   -1    0    0  503  502  0.00000000000E+00  0.00000000000E+00  0.65655993980E+02  0.65655993980E+02  0.00000000000E+00 0.  1.
         21   -1    0    0  501  503 -0.00000000000E+00 -0.00000000000E+00 -0.52490210528E+03  0.52490210528E+03  0.00000000000E+00 0.  1.
          6    2    1    2  501    0 -0.88911153331E+01 -0.67123929617E+02 -0.19803897827E+03  0.27082433716E+03  0.17187702239E+03 0.  0.
         24    2    3    3    0    0 -0.38484626129E+01 -0.11316639531E+03 -0.14966459350E+03  0.20368635913E+03  0.79165640613E+02 0.  0.
         -6    2    1    2    0  502  0.88911153331E+01  0.67123929617E+02 -0.26120713304E+03  0.31973376210E+03  0.17151046155E+03 0.  0.
        -24    2    5    5    0    0 -0.36456529696E+02  0.66651039617E+01 -0.64250375749E+02  0.10872254735E+03  0.79492008092E+02 0.  0.
          5    1    3    3  501    0 -0.50426527202E+01  0.46042465691E+02 -0.48374384763E+02  0.67137978034E+02  0.47000000000E+01 0. -1.
        -11    1    4    4    0    0  0.16297353185E+02 -0.86589565684E+02 -0.56341712213E+02  0.10458367531E+03  0.00000000000E+00 0.  1.
         12    1    4    4    0    0 -0.20145815798E+02 -0.26576829624E+02 -0.93322881291E+02  0.99102683816E+02  0.00000000000E+00 0. -1.
         -5    1    5    5    0  502  0.45347645029E+02  0.60458825655E+02 -0.19695675729E+03  0.21101121475E+03  0.47000000000E+01 0.  1.
         13    1    6    6    0    0 -0.53174435874E+02  0.20726477904E+01 -0.72165303392E+02  0.89664081510E+02  0.00000000000E+00 0. -1.
        -14    1    6    6    0    0  0.16717906178E+02  0.45924561714E+01  0.79149276432E+01  0.19058465842E+02  0.00000000000E+00 0.  1.
</event>
<event>
12    1  0.8135779E-002  0.2446777E+03  0.7818608E-02  0.1116764E+00
         21   -1    0    0  503  502  0.00000000000E+00  0.00000000000E+00  0.65571302721E+02  0.65571302721E+02  0.00000000000E+00 0. -1.
         21   -1    0    0  501  503 -0.00000000000E+00 -0.00000000000E+00 -0.16336244844E+04  0.16336244844E+04  0.00000000000E+00 0.  1.
          6    2    1    2  501    0 -0.13651898039E+02  0.17285300203E+03 -0.13484687215E+04  0.13704336669E+04  0.17220919844E+03 0.  0.
         24    2    3    3    0    0  0.18739355770E+02  0.40012061991E+02 -0.32605103898E+03  0.33890280643E+03  0.81201623322E+02 0.  0.
         -6    2    1    2    0  502  0.13651898039E+02 -0.17285300203E+03 -0.21958446018E+03  0.32876212016E+03  0.17263447475E+03 0.  0.
        -24    2    5    5    0    0  0.73859577289E+02 -0.10182200331E+03 -0.11764721690E+03  0.19061850292E+03  0.81679792447E+02 0.  0.
          5    1    3    3  501    0 -0.32391253809E+02  0.13284094004E+03 -0.10224176825E+04  0.10315308605E+04  0.47000000000E+01 0. -1.
        -11    1    4    4    0    0  0.37802160346E+02  0.44196998424E+02 -0.30375041642E+03  0.30926799620E+03  0.00000000000E+00 0.  1.
         12    1    4    4    0    0 -0.19062804576E+02 -0.41849364330E+01 -0.22300622558E+02  0.29634810235E+02  0.00000000000E+00 0. -1.
         -5    1    5    5    0  502 -0.60207679251E+02 -0.71030998713E+02 -0.10193724328E+03  0.13814361725E+03  0.47000000000E+01 0.  1.
         11    1    6    6    0    0  0.21028192369E+02  0.47686208970E+00  0.57939727596E+01  0.21817020697E+02  0.00000000000E+00 0. -1.
        -12    1    6    6    0    0  0.52831384920E+02 -0.10229886540E+03 -0.12344118966E+03  0.16880148222E+03  0.00000000000E+00 0.  1.
</event>
<event>
12    1  0.8135779E-002  0.1969226E+03  0.7818608E-02  0.1152839E+00
         21   -1    0    0  501  502  0.00000000000E+00  0.00000000000E+00  0.13999740082E+04  0.13999740082E+04  0.00000000000E+00 0. -1.
         21   -1    0    0  502  503 -0.00000000000E+00 -0.00000000000E+00 -0.39837505077E+02  0.39837505077E+02  0.00000000000E+00 0. -1.
         -6    2    1    2    0  503  0.75271614269E+02 -0.60524855647E+02  0.10851027530E+04  0.11028265920E+04  0.17160837204E+03 0.  0.
        -24    2    3    3    0    0  0.12709481641E+01  0.18204825100E+02  0.28622190874E+03  0.29665839952E+03  0.75830033611E+02 0.  0.
          6    2    1    2  501    0 -0.75271614269E+02  0.60524855647E+02  0.27503375010E+03  0.33698492127E+03  0.16907453801E+03 0.  0.
         24    2    5    5    0    0 -0.20908781195E+02  0.35590132512E+02  0.42126673060E+02  0.96475348543E+02  0.76347898662E+02 0.  0.
          5    1    5    5  501    0 -0.54362833075E+02  0.24934723136E+02  0.23290707704E+03  0.24050957272E+03  0.47000000000E+01 0. -1.
        -11    1    6    6    0    0  0.27883956736E+02  0.17357777839E+02  0.68107129868E+01  0.33543901177E+02  0.00000000000E+00 0.  1.
         12    1    6    6    0    0 -0.48792737931E+02  0.18232354673E+02  0.35315960073E+02  0.62931447366E+02  0.00000000000E+00 0. -1.
         -5    1    3    3    0  503  0.74000666105E+02 -0.78729680747E+02  0.79888084428E+03  0.80616819249E+03  0.47000000000E+01 0.  1.
         13    1    4    4    0    0  0.16314554421E+02 -0.30880528127E+01  0.10368331518E+02  0.19575572906E+02  0.00000000000E+00 0. -1.
        -14    1    4    4    0    0 -0.15043606256E+02  0.21292877913E+02  0.27585357722E+03  0.27708282662E+03  0.00000000000E+00 0.  1.
</event>
<event>
12    1  0.8135779E-002  0.1727868E+03  0.7818608E-02  0.1175246E+00
         21   -1    0    0  501  502  0.00000000000E+00  0.00000000000E+00  0.24655902838E+03  0.24655902838E+03  0.00000000000E+00 0. -1.
         21   -1    0    0  502  503 -0.00000000000E+00 -0.00000000000E+00 -0.12527069482E+03  0.12527069482E+03  0.00000000000E+00 0. -1.
         -6    2    1    2    0  503 -0.11673759701E+02 -0.54280798680E+00  0.97346301228E+02  0.19739200854E+03  0.17132055150E+03 0.  0.
        -24    2    3    3    0    0  0.55934110226E+02  0.16663572053E+02  0.76620349917E+02  0.12446369684E+03  0.78830416016E+02 0.  0.
          6    2    1    2  501    0  0.11673759701E+02  0.54280798680E+00  0.23942032341E+02  0.17443771466E+03  0.17239119489E+03 0.  0.
         24    2    5    5    0    0  0.43274382251E+02  0.34450962564E+02  0.61152312378E+02  0.11481341397E+03  0.79893514984E+02 0.  0.
          5    1    5    5  501    0 -0.31600622550E+02 -0.33908154577E+02 -0.37210280037E+02  0.59624300690E+02  0.47000000000E+01 0. -1.
        -11    1    6    6    0    0  0.13950059489E+02  0.52702607673E+02  0.58812282722E+02  0.80193850227E+02  0.00000000000E+00 0.  1.
         12    1    6    6    0    0  0.29324322763E+02 -0.18251645109E+02  0.23400296558E+01  0.34619563739E+02  0.00000000000E+00 0. -1.
         -5    1    3    3    0  503 -0.67607869927E+02 -0.17206380040E+02  0.20725951311E+02  0.72928311703E+02  0.47000000000E+01 0.  1.
         13    1    4    4    0    0  0.51216078165E+02  0.39570783442E+02  0.77608861041E+02  0.10105478156E+03  0.00000000000E+00 0. -1.
        -14    1    4    4    0    0  0.47180320603E+01 -0.22907211389E+02 -0.98851112443E+00  0.23408915276E+02  0.00000000000E+00 0.  1.
</event>
<event>
12    1  0.8135779E-002  0.2193313E+03  0.7818608E-02  0.1134553E+00
         21   -1    0    0  503  502  0.00000000000E+00  0.00000000000E+00  0.23219865244E+03  0.23219865244E+03  0.00000000000E+00 0. -1.
         21   -1    0    0  501  503 -0.00000000000E+00 -0.00000000000E+00 -0.21044054349E+03  0.21044054349E+03  0.00000000000E+00 0.  1.
          6    2    1    2  501    0 -0.12789908797E+03 -0.43827546684E+02 -0.20105916920E+02  0.21934830268E+03  0.17155290567E+03 0.  0.
         24    2    3    3    0    0 -0.15145346408E+03 -0.42857798828E+02  0.16612628985E+02  0.17546105330E+03  0.75734134182E+02 0.  0.
         -6    2    1    2    0  502  0.12789908797E+03  0.43827546684E+02  0.41864025860E+02  0.22329089325E+03  0.17270551755E+03 0.  0.
        -24    2    5    5    0    0  0.13938528444E+03  0.70125965436E+02  0.32666547014E+01  0.17496505545E+03  0.79096087438E+02 0.  0.
          5    1    3    3  501    0  0.23554376113E+02 -0.96974785534E+00 -0.36718545904E+02  0.43887249382E+02  0.47000000000E+01 0. -1.
        -11    1    4    4    0    0 -0.15324506243E+02 -0.31589349277E+02 -0.95448788562E+01  0.36384504830E+02  0.00000000000E+00 0.  1.
         12    1    4    4    0    0 -0.13612895784E+03 -0.11268449551E+02  0.26157507841E+02  0.13907654847E+03  0.00000000000E+00 0. -1.
         -5    1    5    5    0  502 -0.11486196472E+02 -0.26298418752E+02  0.38597371159E+02  0.48325837796E+02  0.47000000000E+01 0.  1.
         11    1    6    6    0    0  0.80544287234E+02  0.30379568178E+02  0.40109267136E+02  0.94968698416E+02  0.00000000000E+00 0. -1.
        -12    1    6    6    0    0  0.58840997210E+02  0.39746397258E+02 -0.36842612435E+02  0.79996357034E+02  0.00000000000E+00 0.  1.
</event>
<event>
12    1  0.8135779E-002  0.2280204E+03  0.7818608E-02  0.1128152E+00
         21   -1    0    0  501  502  0.00000000000E+00  0.00000000000E+00  0.15817637306E+03  0.15817637306E+03  0.00000000000E+00 0.  1.
         21   -1    0    0  502  503 -0.00000000000E+00 -0.00000000000E+00 -0.64985285949E+03  0.64985285949E+03  0.00000000000E+00 0.  1.
         -6    2    1    2    0  503 -0.14670424894E+03 -0.24022096662E+02 -0.53008173533E+03  0.57679717774E+03  0.17207306683E+03 0.  0.
        -24    2    3    3    0    0 -0.60898183957E+02 -0.44232959854E+02 -0.14151267622E+03  0.17832614557E+03  0.78161583373E+02 0.  0.
          6    2    1    2  501    0  0.14670424894E+03  0.24022096662E+02  0.38405248905E+02  0.23123205481E+03  0.17289911001E+03 0.  0.
         24    2    5    5    0    0  0.36857289645E+02 -0.41662874729E+02 -0.56929229128E+01  0.95778709737E+02  0.77761796128E+02 0.  0.
          5    1    5    5  501    0  0.10984695930E+03  0.65684971391E+02  0.44098171818E+02  0.13545334507E+03  0.47000000000E+01 0. -1.
        -13    1    6    6    0    0  0.13387152266E+02 -0.30589663488E+02  0.34450888560E+02  0.47977151652E+02  0.00000000000E+00 0.  1.
         14    1    6    6    0    0  0.23470137378E+02 -0.11073211242E+02 -0.40143811473E+02  0.47801558085E+02  0.00000000000E+00 0. -1.
         -5    1    3    3    0  503 -0.85806064988E+02  0.20210863192E+02 -0.38856905911E+03  0.39847103217E+03  0.47000000000E+01 0.  1.
         11    1    4    4    0    0 -0.37884736294E+02 -0.52980892904E+02 -0.13909313403E+03  0.15358752615E+03  0.00000000000E+00 0. -1.
        -12    1    4    4    0    0 -0.23013447663E+02  0.87479330505E+01 -0.24195421929E+01  0.24738619412E+02  0.00000000000E+00 0.  1.
</event>
<event>
12    1  0.8135779E-002  0.1962614E+03  0.7818608E-02  0.1153087E+00
         21   -1    0    0  501  502  0.00000000000E+00  0.00000000000E+00  0.17854893596E+03  0.17854893596E+03  0.00000000000E+00 0.  1.
         21   -1    0    0  502  503 -0.00000000000E+00 -0.00000000000E+00 -0.22220854433E+03  0.22220854433E+03  0.00000000000E+00 0.  1.
         -6    2    1    2    0  503 -0.24462915743E+02  0.92149220414E+02 -0.58094488187E+02  0.20467901413E+03  0.17154770822E+03 0.  0.
        -24    2    3    3    0    0 -0.30433161792E+02 -0.39448543760E+01 -0.64910292332E+02  0.10804434005E+03  0.80737191888E+02 0.  0.
          6    2    1    2  501    0  0.24462915743E+02 -0.92149220414E+02  0.14434879809E+02  0.19607846616E+03  0.17072927713E+03 0.  0.
         24    2    5    5    0    0  0.35213723324E+02 -0.11253852961E+03 -0.29999468185E+02  0.14580118427E+03  0.80331129004E+02 0.  0.
          5    1    5    5  501    0 -0.10750807581E+02  0.20389309192E+02  0.44434347995E+02  0.50277281894E+02  0.47000000000E+01 0. -1.
        -11    1    6    6    0    0  0.11295430096E+02 -0.11660003111E+03 -0.17296016356E+02  0.11841581895E+03  0.00000000000E+00 0.  1.
         12    1    6    6    0    0  0.23918293228E+02  0.40615015030E+01 -0.12703451829E+02  0.27385365321E+02  0.00000000000E+00 0. -1.
         -5    1    3    3    0  503  0.59702460491E+01  0.96094074790E+02  0.68158041452E+01  0.96634674076E+02  0.47000000000E+01 0.  1.
         11    1    4    4    0    0 -0.51882043781E+02  0.13025128348E+02 -0.23521282835E+02  0.58435016741E+02  0.00000000000E+00 0. -1.
        -12    1    4    4    0    0  0.21448881989E+02 -0.16969982724E+02 -0.41389009497E+02  0.49609323311E+02  0.00000000000E+00 0.  1.
</event>
<event>
12    1  0.8135779E-002  0.2138732E+03  0.7818608E-02  0.1138933E+00
         21   -1    0    0  503  502  0.00000000000E+00  0.00000000000E+00  0.52333107241E+03  0.52333107241E+03  0.00000000000E+00 0.  1.
         21   -1    0    0  501  503 -0.00000000000E+00 -0.00000000000E+00 -0.97868141748E+02  0.97868141748E+02  0.00000000000E+00 0.  1.
          6    2    1    2  501    0  0.10651662205E+03  0.67602914726E+02  0.10629555204E+03  0.23699931106E+03  0.17015870300E+03 0.  0.
         24    2    3    3    0    0  0.13808440928E+03  0.39808253166E+02  0.57634477868E+02  0.17250854784E+03  0.76062243809E+02 0.  0.
         -6    2    1    2    0  502 -0.10651662205E+03 -0.67602914726E+02  0.31916737862E+03  0.38419990310E+03  0.17270149134E+03 0.  0.
        -24    2    5    5    0    0 -0.50808935867E+02  0.28342579467E+02  0.11764569338E+03  0.15410869557E+03  0.80772093609E+02 0.  0.
          5    1    3    3  501    0 -0.31567787223E+02  0.27794661559E+02  0.48661074168E+02  0.64490763219E+02  0.47000000000E+01 0. -1.
        -13    1    4    4    0    0  0.37269956914E+02 -0.22556156351E+02  0.96481724136E+01  0.44619694179E+02  0.00000000000E+00 0.  1.
         14    1    4    4    0    0  0.10081445236E+03  0.62364409517E+02  0.47986305455E+02  0.12788885366E+03  0.00000000000E+00 0. -1.
         -5    1    5    5    0  502 -0.55707686186E+02 -0.95945494192E+02  0.20152168524E+03  0.23009120752E+03  0.47000000000E+01 0.  1.
         11    1    6    6    0    0 -0.15144547276E+02 -0.54897850230E+01 -0.88619637926E+01  0.18385577338E+02  0.00000000000E+00 0. -1.
        -12    1    6    6    0    0 -0.35664388591E+02  0.33832364490E+02  0.12650765717E+03  0.13572311823E+03  0.00000000000E+00 0.  1.
</event>
<event>
12    1  0.8135779E-002  0.2412053E+03  0.7818608E-02  0.1119095E+00
         21   -1    0    0  503  502  0.00000000000E+00  0.00000000000E+00  0.24958329658E+03  0.24958329658E+03  0.00000000000E+00 0. -1.
         21   -1    0    0  501  503 -0.00000000000E+00 -0.00000000000E+00 -0.39426516104E+03  0.39426516104E+03  0.00000000000E+00 0. -1.
          6    2    1    2  501    0  0.71614177129E+02  0.15281620872E+03 -0.27859577911E+03  0.36850456555E+03  0.17233288334E+03 0.  0.
         24    2    3    3    0    0  0.22318769263E+02  0.13761790748E+02 -0.15183062065E+03  0.17393410583E+03  0.80703292748E+02 0.  0.
         -6    2    1    2    0  502 -0.71614177129E+02 -0.15281620872E+03  0.13391391465E+03  0.27534389207E+03  0.17146410221E+03 0.  0.
        -24    2    5    5    0    0 -0.22036321390E+02 -0.98415723035E+01  0.23537747390E+02  0.87981412529E+02  0.81266520736E+02 0.  0.
          5    1    3    3  501    0  0.49295407866E+02  0.13905441797E+03 -0.12676515847E+03  0.19457045972E+03  0.47000000000E+01 0. -1.
        -13    1    4    4    0    0 -0.68457837602E+00  0.18778162881E+02  0.14587712132E+01  0.18847176505E+02  0.00000000000E+00 0.  1.
         14    1    4    4    0    0  0.23003347639E+02 -0.50163721337E+01 -0.15328939186E+03  0.15508692933E+03  0.00000000000E+00 0. -1.
         -5    1    5    5    0  502 -0.49577855739E+02 -0.14297463642E+03  0.11037616726E+03  0.18736247954E+03  0.47000000000E+01 0.  1.
         11    1    6    6    0    0  0.14158346272E+01 -0.35057267070E+02  0.37015765397E+02  0.51001798499E+02  0.00000000000E+00 0. -1.
        -12    1    6    6    0    0 -0.23452156017E+02  0.25215694767E+02 -0.13478018007E+02  0.36979614030E+02  0.00000000000E+00 0.  1.
</event>
<event>
12    1  0.8135779E-002  0.3032411E+03  0.7818608E-02  0.1083856E+00
         21   -1    0    0  503  502  0.00000000000E+00  0.00000000000E+00  0.35392884259E+03  0.35392884259E+03  0.00000000000E+00 0. -1.
         21   -1    0    0  501  503 -0.00000000000E+00 -0.00000000000E+00 -0.47525700911E+03  0.47525700911E+03  0.00000000000E+00 0. -1.
          6    2    1    2  501    0  0.22616647641E+03 -0.10111868953E+03 -0.34071232656E+03  0.45490712263E+03  0.17169547555E+03 0.  0.
         24    2    3    3    0    0  0.13820421768E+03 -0.13253603107E+03 -0.25074855833E+03  0.32513818218E+03  0.78573485935E+02 0.  0.
         -6    2    1    2    0  502 -0.22616647641E+03  0.10111868953E+03  0.21938416003E+03  0.37427872907E+03  0.17486821591E+03 0.  0.
        -24    2    5    5    0    0 -0.13983712379E+03  0.12359982744E+02  0.18495026996E+03  0.24567605437E+03  0.80267870096E+02 0.  0.
          5    1    3    3  501    0  0.87962258733E+02  0.31417341537E+02 -0.89963768227E+02  0.12976894045E+03  0.47000000000E+01 0. -1.
        -11    1    4    4    0    0  0.91052062068E+02 -0.94813714756E+02 -0.22259628779E+03  0.25851349259E+03  0.00000000000E+00 0.  1.
         12    1    4    4    0    0  0.47152155611E+02 -0.37722316309E+02 -0.28152270540E+02  0.66624689591E+02  0.00000000000E+00 0. -1.
         -5    1    5    5    0  502 -0.86329352626E+02  0.88758706784E+02  0.34433890079E+02  0.12860267470E+03  0.47000000000E+01 0.  1.
         13    1    6    6    0    0 -0.10244449917E+03  0.19199757979E+01  0.69335947500E+02  0.12371756275E+03  0.00000000000E+00 0. -1.
        -14    1    6    6    0    0 -0.37392624622E+02  0.10440006946E+02  0.11561432246E+03  0.12195849162E+03  0.00000000000E+00 0.  1.
</event>
<event>
12    1  0.8135779E-002  0.2293319E+03  0.7818608E-02  0.1127727E+00
         21   -1    0    0  503  502  0.00000000000E+00  0.00000000000E+00  0.52738280661E+03  0.52738280661E+03  0.00000000000E+00 0. -1.
         21   -1    0    0  501  503 -0.00000000000E+00 -0.00000000000E+00 -0.99479135265E+02  0.99479135265E+02  0.00000000000E+00 0. -1.
          6    2    1    2  501    0 -0.31055324624E+02 -0.14844451928E+03  0.18038439626E+03  0.29177327521E+03  0.17202588531E+03 0.  0.
         24    2    3    3    0    0 -0.13206869580E+01 -0.56084540391E+02  0.16714843952E+03  0.19373351323E+03  0.80292299919E+02 0.  0.
         -6    2    1    2    0  502  0.31055324624E+02  0.14844451928E+03  0.24751927508E+03  0.33508866667E+03  0.16738702010E+03 0.  0.
        -24    2    5    5    0    0  0.37136858344E+02  0.11748662463E+03  0.26176183488E+03  0.30015563355E+03  0.79949314771E+02 0.  0.
          5    1    3    3  501    0 -0.29734637666E+02 -0.92359978894E+02  0.13235956737E+02  0.98039761981E+02  0.47000000000E+01 0. -1.
        -13    1    4    4    0    0  0.23303206509E+02  0.89752004311E+01  0.24281459110E+02  0.34830775370E+02  0.00000000000E+00 0.  1.
         14    1    4    4    0    0 -0.24623893467E+02 -0.65059740822E+02  0.14286698041E+03  0.15890273786E+03  0.00000000000E+00 0. -1.
         -5    1    5    5    0  502 -0.60815337201E+01  0.30957894652E+02 -0.14242559799E+02  0.34933033125E+02  0.47000000000E+01 0.  1.
         13    1    6    6    0    0  0.40723085114E+02  0.13616421652E+02  0.78136120433E+02  0.89157332374E+02  0.00000000000E+00 0. -1.
        -14    1    6    6    0    0 -0.35862267697E+01  0.10387020298E+03  0.18362571445E+03  0.21099830117E+03  0.00000000000E+00 0.  1.
</event>
<event>
12    1  0.8135779E-002  0.2009588E+03  0.7818608E-02  0.1148941E+00
         21   -1    0    0  501  502  0.00000000000E+00  0.00000000000E+00  0.73481050868E+03  0.73481050868E+03  0.00000000000E+00 0.  1.
         21   -1    0    0  502  503 -0.00000000000E+00 -0.00000000000E+00 -0.71026576437E+02  0.71026576437E+02  0.00000000000E+00 0.  1.
         -6    2    1    2    0  503 -0.85268305320E+02  0.59188110112E+02  0.52362325994E+03  0.56086163688E+03  0.17207713707E+03 0.  0.
        -24    2    3    3    0    0 -0.10934086087E+02  0.13338626649E+02  0.40751164202E+03  0.41549400259E+03  0.79196304247E+02 0.  0.
          6    2    1    2  501    0  0.85268305320E+02 -0.59188110112E+02  0.14016067230E+03  0.24497544824E+03  0.17202918330E+03 0.  0.
         24    2    5    5    0    0  0.81662026584E+02  0.23237285802E+02  0.41352381046E+02  0.11616504664E+03  0.67643481623E+02 0.  0.
          5    1    5    5  501    0  0.36062787363E+01 -0.82425395915E+02  0.98808291258E+02  0.12881040160E+03  0.47000000000E+01 0. -1.
        -13    1    6    6    0    0  0.54925685690E+02  0.26552282048E+02  0.58260914820E+02  0.84357506045E+02  0.00000000000E+00 0.  1.
         14    1    6    6    0    0  0.26736340894E+02 -0.33149962457E+01 -0.16908533774E+02  0.31807540598E+02  0.00000000000E+00 0. -1.
         -5    1    3    3    0  503 -0.74334219233E+02  0.45849483464E+02  0.11611161792E+03  0.14536763429E+03  0.47000000000E+01 0.  1.
         11    1    4    4    0    0  0.32192941770E+02  0.57986602869E+01  0.10943387476E+03  0.11421813737E+03  0.00000000000E+00 0. -1.
        -12    1    4    4    0    0 -0.43127027857E+02  0.75399663620E+01  0.29807776727E+03  0.30127586522E+03  0.00000000000E+00 0.  1.
</event>
<event>
12    1  0.8135779E-002  0.2241755E+03  0.7818608E-02  0.1130943E+00
         21   -1    0    0  501  502  0.00000000000E+00  0.00000000000E+00  0.57568574610E+03  0.57568574610E+03  0.00000000000E+00 0.  1.
         21   -1    0    0  502  503 -0.00000000000E+00 -0.00000000000E+00 -0.88561072716E+02  0.88561072716E+02  0.00000000000E+00 0.  1.
         -6    2    1    2    0  503 -0.14322027954E+03  0.11139359169E+02  0.19914934686E+03  0.29930237908E+03  0.17112953565E+03 0.  0.
        -24    2    3    3    0    0 -0.30645623051E+02 -0.43055803789E+02  0.10286719603E+03  0.14149708277E+03  0.81527958170E+02 0.  0.
          6    2    1    2  501    0  0.14322027954E+03 -0.11139359169E+02  0.28797532653E+03  0.36494443974E+03  0.17210032428E+03 0.  0.
         24    2    5    5    0    0  0.11270481764E+03 -0.44943600786E+02  0.11093117684E+03  0.18207661561E+03  0.78255126253E+02 0.  0.
          5    1    5    5  501    0  0.30515461901E+02  0.33804241616E+02  0.17704414969E+03  0.18286782414E+03  0.47000000000E+01 0. -1.
        -11    1    6    6    0    0  0.49572909957E+02 -0.60349167055E+02  0.72589727235E+02  0.10662440558E+03  0.00000000000E+00 0.  1.
         12    1    6    6    0    0  0.63131907682E+02  0.15405566269E+02  0.38341449607E+02  0.75452210025E+02  0.00000000000E+00 0. -1.
         -5    1    3    3    0  503 -0.11257465649E+03  0.54195162958E+02  0.96282150835E+02  0.15780529630E+03  0.47000000000E+01 0.  1.
         11    1    4    4    0    0 -0.25487867714E+02 -0.51390525705E+02  0.11341593706E+03  0.12709757004E+03  0.00000000000E+00 0. -1.
        -12    1    4    4    0    0 -0.51577553371E+01  0.83347219162E+01 -0.10548741031E+02  0.14399512730E+02  0.00000000000E+00 0.  1.
</event>
<event>
12    1  0.8135779E-002  0.2907056E+03  0.7818608E-02  0.1090170E+00
         21   -1    0    0  503  502  0.00000000000E+00  0.00000000000E+00  0.64303665955E+02  0.64303665955E+02  0.00000000000E+00 0. -1.
         21   -1    0    0  501  503 -0.00000000000E+00 -0.00000000000E+00 -0.20049261951E+04  0.20049261951E+04  0.00000000000E+00 0. -1.
          6    2    1    2  501    0  0.23145396767E+03 -0.39420723117E+02 -0.15819992446E+04  0.16084872819E+04  0.17141993386E+03 0.  0.
         24    2    3    3    0    0  0.53110459056E+02 -0.41429803300E+02 -0.42952875749E+03  0.44228800347E+03  0.81157717080E+02 0.  0.
         -6    2    1    2    0  502 -0.23145396767E+03  0.39420723117E+02 -0.35862328460E+03  0.46074257916E+03  0.16896192302E+03 0.  0.
        -24    2    5    5    0    0 -0.78339269333E+02  0.48686616288E+02 -0.93481799459E+02  0.15438973558E+03  0.81178296969E+02 0.  0.
          5    1    3    3  501    0  0.17834350861E+03  0.20090801831E+01 -0.11524704871E+04  0.11661992785E+04  0.47000000000E+01 0. -1.
        -13    1    4    4    0    0 -0.88691565519E+01 -0.40664018442E+02 -0.13340851667E+03  0.13974997908E+03  0.00000000000E+00 0.  1.
         14    1    4    4    0    0  0.61979615608E+02 -0.76578485781E+00 -0.29612024082E+03  0.30253802439E+03  0.00000000000E+00 0. -1.
         -5    1    5    5    0  502 -0.15311469833E+03 -0.92658931708E+01 -0.26514148514E+03  0.30635284357E+03  0.47000000000E+01 0.  1.
         13    1    6    6    0    0 -0.94720715432E+02  0.35141452550E+02 -0.71216358027E+02  0.12360705995E+03  0.00000000000E+00 0. -1.
        -14    1    6    6    0    0  0.16381446099E+02  0.13545163737E+02 -0.22265441432E+02  0.30782675633E+02  0.00000000000E+00 0.  1.
</event>
<event>
12    1  0.8135779E-002  0.1810744E+03  0.7818608E-02  0.1167551E+00
         21   -1    0    0  501  502  0.00000000000E+00  0.00000000000E+00  0.21080819634E+03  0.21080819634E+03  0.00000000000E+00 0.  1.
         21   -1    0    0  502  503 -0.00000000000E+00 -0.00000000000E+00 -0.17619607128E+03  0.17619607128E+03  0.00000000000E+00 0.  1.
         -6    2    1    2    0  503  0.32365939673E+02 -0.29858057843E+02  0.87724101605E+02  0.19830129095E+03  0.17230445821E+03 0.  0.
        -24    2    3    3    0    0  0.47796040530E+02 -0.73716284037E+02  0.26147459040E+02  0.12100054757E+03  0.78986649980E+02 0.  0.
          6    2    1    2  501    0 -0.32365939673E+02  0.29858057843E+02 -0.53111976550E+02  0.18870297667E+03  0.17563847438E+03 0.  0.
         24    2    5    5    0    0 -0.35125888558E+02  0.44833921544E+01 -0.10162048171E+03  0.13368792374E+03  0.79320929140E+02 0.  0.
          5    1    5    5  501    0  0.27599488848E+01  0.25374665689E+02  0.48508505157E+02  0.55015052933E+02  0.47000000000E+01 0. -1.
        -11    1    6    6    0    0  0.45783042033E+01 -0.31892637098E+02 -0.47032198975E+02  0.57009901867E+02  0.00000000000E+00 0.  1.
         12    1    6    6    0    0 -0.39704192761E+02  0.36376029252E+02 -0.54588282732E+02  0.76678021874E+02  0.00000000000E+00 0. -1.
         -5    1    3    3    0  503 -0.15430100857E+02  0.43858226194E+02  0.61576642564E+02  0.77300743378E+02  0.47000000000E+01 0.  1.
         13    1    4    4    0    0  0.28664713984E+02  0.10576272508E+02  0.14374564108E+02  0.33766128906E+02  0.00000000000E+00 0. -1.
        -14    1    4    4    0    0  0.19131326545E+02 -0.84292556545E+02  0.11772894933E+02  0.87234418663E+02  0.00000000000E+00 0.  1.
</event>
<event>
12    1  0.8135779E-002  0.1879789E+03  0.7818608E-02  0.1160701E+00
         21   -1    0    0  501  502  0.00000000000E+00  0.00000000000E+00  0.27103072113E+03  0.27103072113E+03  0.00000000000E+00 0.  1.
         21   -1    0    0  502  503 -0.00000000000E+00 -0.00000000000E+00 -0.23290748668E+03  0.23290748668E+03  0.00000000000E+00 0. -1.
         -6    2    1    2    0  503 -0.38775537951E+02  0.64241186789E+02 -0.14915516142E+03  0.23859074697E+03  0.17043418066E+03 0.  0.
        -24    2    3    3    0    0 -0.35323428555E+02  0.90148301857E+02 -0.48176580152E+02  0.13417877665E+03  0.79426068116E+02 0.  0.
          6    2    1    2  501    0  0.38775537951E+02 -0.64241186789E+02  0.18727839587E+03  0.26534746083E+03  0.17235314035E+03 0.  0.
         24    2    5    5    0    0  0.93670299700E+02 -0.39592377924E+02  0.10547834714E+03  0.16368952155E+03  0.72985589782E+02 0.  0.
          5    1    5    5  501    0 -0.54894761750E+02 -0.24648808865E+02  0.81800048733E+02  0.10165793928E+03  0.47000000000E+01 0. -1.
        -13    1    6    6    0    0 -0.42416275733E+00 -0.11945573032E+02  0.49170344387E+02  0.50602365520E+02  0.00000000000E+00 0.  1.
         14    1    6    6    0    0  0.94094462458E+02 -0.27646804892E+02  0.56308002752E+02  0.11308715603E+03  0.00000000000E+00 0. -1.
         -5    1    3    3    0  503 -0.34521093954E+01 -0.25907115068E+02 -0.10097858127E+03  0.10441197032E+03  0.47000000000E+01 0.  1.
         11    1    4    4    0    0 -0.16088989838E+02 -0.81264019101E+01 -0.25960953381E+02  0.31604827202E+02  0.00000000000E+00 0. -1.
        -12    1    4    4    0    0 -0.19234438717E+02  0.98274703767E+02 -0.22215626771E+02  0.10257394945E+03  0.00000000000E+00 0.  1.
</event>
<event>
12    1  0.8135779E-002  0.2697038E+03  0.7818608E-02  0.1101788E+00
         21   -1    0    0  503  502  0.00000000000E+00  0.00000000000E+00  0.33037179580E+03  0.33037179580E+03  0.00000000000E+00 0. -1.
         21   -1    0    0  501  503 -0.00000000000E+00 -0.00000000000E+00 -0.25380836839E+03  0.25380836839E+03  0.00000000000E+00 0. -1.
          6    2    1    2  501    0  0.18600830246E+03 -0.87347361361E+02 -0.70884300090E+02  0.27886331638E+03  0.17467545650E+03 0.  0.
         24    2    3    3    0    0  0.70514807580E+02 -0.10868993908E+03 -0.51408604487E+02  0.15971783513E+03  0.77981416360E+02 0.  0.
         -6    2    1    2    0  502 -0.18600830246E+03  0.87347361361E+02  0.14744772751E+03  0.30531684781E+03  0.17102308349E+03 0.  0.
        -24    2    5    5    0    0 -0.41883085042E+02  0.29098155953E+02  0.11134134268E+03  0.14565843352E+03  0.78858031765E+02 0.  0.
          5    1    3    3  501    0  0.11549349488E+03  0.21342577718E+02 -0.19475695603E+02  0.11914548125E+03  0.47000000000E+01 0. -1.
        -13    1    4    4    0    0  0.25248240273E+02 -0.21349746010E+02 -0.51669946731E+02  0.61343856146E+02  0.00000000000E+00 0.  1.
         14    1    4    4    0    0  0.45266567307E+02 -0.87340193068E+02  0.26134224452E+00  0.98373978982E+02  0.00000000000E+00 0. -1.
         -5    1    5    5    0  502 -0.14412521742E+03  0.58249205408E+02  0.36106384830E+02  0.15965841429E+03  0.47000000000E+01 0.  1.
         13    1    6    6    0    0 -0.13721014567E+02  0.54342603270E+02  0.68648475593E+02  0.88622784723E+02  0.00000000000E+00 0. -1.
        -14    1    6    6    0    0 -0.28162070476E+02 -0.25244447317E+02  0.42692867084E+02  0.57035648797E+02  0.00000000000E+00 0.  1.
</event>
<event>
12    1  0.8135779E-002  0.2175409E+03  0.7818608E-02  0.1135867E+00
         21   -1    0    0  501  502  0.00000000000E+00  0.00000000000E+00  0.33324830053E+03  0.33324830053E+03  0.00000000000E+00 0.  1.
         21   -1    0    0  502  503 -0.00000000000E+00 -0.00000000000E+00 -0.19179528514E+03  0.19179528514E+03  0.00000000000E+00 0. -1.
         -6    2    1    2    0  503  0.33011048091E+02 -0.12970426744E+03 -0.63574496477E+02  0.22664018332E+03  0.17149673410E+03 0.  0.
        -24    2    3    3    0    0 -0.30851850444E+02 -0.19623260070E+02 -0.88534646107E+01  0.88030012986E+02  0.79586370310E+02 0.  0.
          6    2    1    2  501    0 -0.33011048091E+02  0.12970426744E+03  0.20502751187E+03  0.29840340235E+03  0.17057368972E+03 0.  0.
         24    2    5    5    0    0 -0.53888227869E+02  0.83897728514E+02  0.21240574256E+03  0.24730913720E+03  0.78120675327E+02 0.  0.
          5    1    5    5  501    0  0.20877179777E+02  0.45806538924E+02 -0.73782306942E+01  0.51094265156E+02  0.47000000000E+01 0. -1.
        -13    1    6    6    0    0  0.76266369541E+01  0.43065471358E+01  0.82725397092E+02  0.83187759097E+02  0.00000000000E+00 0.  1.
         14    1    6    6    0    0 -0.61514864823E+02  0.79591181378E+02  0.12968034547E+03  0.16412137810E+03  0.00000000000E+00 0. -1.
         -5    1    3    3    0  503  0.63862898536E+02 -0.11008100737E+03 -0.54721031866E+02  0.13861017034E+03  0.47000000000E+01 0.  1.
         13    1    4    4    0    0 -0.25138753146E+02 -0.44662425030E+02  0.14557313353E+02  0.53278555643E+02  0.00000000000E+00 0. -1.
        -14    1    4    4    0    0 -0.57130972981E+01  0.25039164960E+02 -0.23410777964E+02  0.34751457344E+02  0.00000000000E+00 0.  1.
</event>
<event>
12    1  0.8135779E-002  0.2310742E+03  0.7818608E-02  0.1125924E+00
         21   -1    0    0  503  502  0.00000000000E+00  0.00000000000E+00  0.47039794479E+03  0.47039794479E+03  0.00000000000E+00 0.  1.
         21   -1    0    0  501  503 -0.00000000000E+00 -0.00000000000E+00 -0.25337461912E+03  0.25337461912E+03  0.00000000000E+00 0.  1.
          6    2    1    2  501    0 -0.11644858915E+03 -0.10067775634E+03 -0.16048440742E+03  0.28115828926E+03  0.17204201249E+03 0.  0.
         24    2    3    3    0    0 -0.11272329266E+03 -0.64984925190E+02 -0.43955551859E+02  0.15913812615E+03  0.80394473971E+02 0.  0.
         -6    2    1    2    0  502  0.11644858915E+03  0.10067775634E+03  0.37750773309E+03  0.44261427464E+03  0.17233404492E+03 0.  0.
        -24    2    5    5    0    0  0.14684531024E+03  0.81027607592E+02  0.26171996257E+03  0.32121004572E+03  0.80929205693E+02 0.  0.
          5    1    3    3  501    0 -0.37252964963E+01 -0.35692831151E+02 -0.11652885556E+03  0.12202016312E+03  0.47000000000E+01 0. -1.
        -11    1    4    4    0    0 -0.19225625346E+02 -0.11638540645E+02 -0.46300481531E+02  0.51466638595E+02  0.00000000000E+00 0.  1.
         12    1    4    4    0    0 -0.93497667309E+02 -0.53346384545E+02  0.23449296718E+01  0.10767148755E+03  0.00000000000E+00 0. -1.
         -5    1    5    5    0  502 -0.30396721084E+02  0.19650148750E+02  0.11578777052E+03  0.12140422892E+03  0.47000000000E+01 0.  1.
         13    1    6    6    0    0  0.25200119664E+02 -0.84966699569E+01  0.11575589071E+02  0.29004028923E+02  0.00000000000E+00 0. -1.
        -14    1    6    6    0    0  0.12164519057E+03  0.89524277549E+02  0.25014437350E+03  0.29220601680E+03  0.00000000000E+00 0.  1.
</event>
<event>
12    1  0.8135779E-002  0.2488591E+03  0.7818608E-02  0.1114110E+00
         21   -1    0    0  501  502  0.00000000000E+00  0.00000000000E+00  0.40664761082E+03  0.40664761082E+03  0.00000000000E+00 0. -1.
         21   -1    0    0  502  503 -0.00000000000E+00 -0.00000000000E+00 -0.19613910591E+03  0.19613910591E+03  0.00000000000E+00 0. -1.
         -6    2    1    2    0  503  0.26685549561E+02 -0.17633493944E+03  0.24834808599E+03  0.35157873692E+03  0.17356470557E+03 0.  0.
        -24    2    3    3    0    0  0.56615815934E+01 -0.75022837586E+02  0.21723686456E+03  0.24343000919E+03  0.80036456596E+02 0.  0.
          6    2    1    2  501    0 -0.26685549561E+02  0.17633493944E+03 -0.37839581077E+02  0.25120797981E+03  0.17282212185E+03 0.  0.
         24    2    5    5    0    0 -0.39579381733E+02  0.59730214939E+02 -0.72959529684E+02  0.12865834303E+03  0.78074645211E+02 0.  0.
          5    1    5    5  501    0  0.12893832172E+02  0.11660472450E+03  0.35119948607E+02  0.12254963678E+03  0.47000000000E+01 0. -1.
        -13    1    6    6    0    0  0.29206442718E+01 -0.86627293738E+01 -0.41030670714E+02  0.42036757515E+02  0.00000000000E+00 0.  1.
         14    1    6    6    0    0 -0.42500026005E+02  0.68392944313E+02 -0.31928858970E+02  0.86621585516E+02  0.00000000000E+00 0. -1.
         -5    1    3    3    0  503  0.21023967967E+02 -0.10131210186E+03  0.31111221425E+02  0.10814872773E+03  0.47000000000E+01 0.  1.
         13    1    4    4    0    0 -0.31121029285E+02 -0.57262715573E+02  0.10077531757E+03  0.12001333963E+03  0.00000000000E+00 0. -1.
        -14    1    4    4    0    0  0.36782610879E+02 -0.17760122013E+02  0.11646154699E+03  0.12341666956E+03  0.00000000000E+00 0.  1.
</event>
<event>
12    1  0.8135779E-002  0.2790930E+03  0.7818608E-02  0.1096634E+00
         21   -1    0    0  501  502  0.00000000000E+00  0.00000000000E+00  0.53171666482E+03  0.53171666482E+03  0.00000000000E+00 0. -1.
         21   -1    0    0  502  503 -0.00000000000E+00 -0.00000000000E+00 -0.24982428773E+03  0.24982428773E+03  0.00000000000E+00 0. -1.
         -6    2    1    2    0  503  0.17023486218E+03  0.13262893633E+03 -0.11194981986E+03  0.30070857506E+03  0.17698175582E+03 0.  0.
        -24    2    3    3    0    0  0.17805032647E+03  0.82140857384E+02 -0.44706976556E+02  0.21612833166E+03  0.79143558082E+02 0.  0.
          6    2    1    2  501    0 -0.17023486218E+03 -0.13262893633E+03  0.39384219695E+03  0.48083237749E+03  0.17180732259E+03 0.  0.
         24    2    5    5    0    0 -0.76941523183E+02 -0.75241762652E+02  0.10119472276E+03  0.16832386729E+03  0.80692202515E+02 0.  0.
          5    1    5    5  501    0 -0.93293339001E+02 -0.57387173676E+02  0.29264747418E+03  0.31250851020E+03  0.47000000000E+01 0. -1.
        -13    1    6    6    0    0  0.12957911329E+02 -0.15291696426E+02  0.38481060675E+02  0.43388195126E+02  0.00000000000E+00 0.  1.
         14    1    6    6    0    0 -0.89899434511E+02 -0.59950066226E+02  0.62713662089E+02  0.12493567216E+03  0.00000000000E+00 0. -1.
         -5    1    3    3    0  503 -0.78154642870E+01  0.50488078944E+02 -0.67242843302E+02  0.84580243395E+02  0.47000000000E+01 0.  1.
         13    1    4    4    0    0  0.84029140384E+02  0.19637093599E+01  0.18787686260E+01  0.84073077497E+02  0.00000000000E+00 0. -1.
        -14    1    4    4    0    0  0.94021186086E+02  0.80177148024E+02 -0.46585745182E+02  0.13205525416E+03  0.00000000000E+00 0.  1.
</event>
<event>
12    1  0.8135779E-002  0.2011659E+03  0.7818608E-02  0.1148821E+00
         21   -1    0    0  503  502  0.00000000000E+00  0.00000000000E+00  0.28382713601E+03  0.28382713601E+03  0.00000000000E+00 0. -1.
         21   -1    0    0  501  503 -0.00000000000E+00 -0.00000000000E+00 -0.16075655348E+03  0.16075655348E+03  0.00000000000E+00 0. -1.
          6    2    1    2  501    0 -0.10358110016E+03 -0.11455350889E+02 -0.13605284449E+02  0.20162540373E+03  0.17206809782E+03 0.  0.
         24    2    3    3    0    0 -0.11782772968E+03 -0.12098318290E+02 -0.59097466024E+02  0.15371915733E+03  0.78149380378E+02 0.  0.
         -6    2    1    2    0  502  0.10358110016E+03  0.11455350889E+02  0.13667586698E+03  0.24295828577E+03  0.17172118865E+03 0.  0.
        -24    2    5    5    0    0  0.12779134422E+03  0.35555245631E+02  0.73962124493E+02  0.17138982665E+03  0.79430936477E+02 0.  0.
          5    1    3    3  501    0  0.14246629513E+02  0.64296740057E+00  0.45492181574E+02  0.47906246398E+02  0.47000000000E+01 0. -1.
        -13    1    4    4    0    0 -0.65837817774E+02  0.25275246379E+02 -0.55225645364E+02  0.89573032965E+02  0.00000000000E+00 0.  1.
         14    1    4    4    0    0 -0.51989911903E+02 -0.37373564669E+02 -0.38718206602E+01  0.64146124364E+02  0.00000000000E+00 0. -1.
         -5    1    5    5    0  502 -0.24210244056E+02 -0.24099894741E+02  0.62713742489E+02  0.71568459120E+02  0.47000000000E+01 0.  1.
         13    1    6    6    0    0  0.39612382630E+02  0.30276350461E+02  0.65971365142E+02  0.82692316896E+02  0.00000000000E+00 0. -1.
        -14    1    6    6    0    0  0.88178961590E+02  0.52788951701E+01  0.79907593506E+01  0.88697509753E+02  0.00000000000E+00 0.  1.
</event>
<event>
12    1  0.8135779E-002  0.2598471E+03  0.7818608E-02  0.1108539E+00
         21   -1    0    0  503  502  0.00000000000E+00  0.00000000000E+00  0.60989266716E+03  0.60989266716E+03  0.00000000000E+00 0. -1.
         21   -1    0    0  501  503 -0.00000000000E+00 -0.00000000000E+00 -0.15732467287E+03  0.15732467287E+03  0.00000000000E+00 0. -1.
          6    2    1    2  501    0 -0.18913133686E+03 -0.99889565918E+01  0.70059070662E+01  0.25142078590E+03  0.16520559014E+03 0.  0.
         24    2    3    3    0    0 -0.14101977684E+03 -0.45021859931E+02  0.61714032204E+02  0.17044489146E+03  0.57700034004E+02 0.  0.
         -6    2    1    2    0  502  0.18913133686E+03  0.99889565918E+01  0.44556208722E+03  0.51579655412E+03  0.17790466501E+03 0.  0.
        -24    2    5    5    0    0  0.15838701694E+03  0.69233023876E+02  0.29574878457E+03  0.35171977829E+03  0.79748355040E+02 0.  0.
          5    1    3    3  501    0 -0.48111560026E+02  0.35032903339E+02 -0.54708125137E+02  0.80975894441E+02  0.47000000000E+01 0. -1.
        -13    1    4    4    0    0 -0.64530501175E+02 -0.50586937690E+02  0.36085340546E+02  0.89584460980E+02  0.00000000000E+00 0.  1.
         14    1    4    4    0    0 -0.76489275661E+02  0.55650777593E+01  0.25628691658E+02  0.80860430482E+02  0.00000000000E+00 0. -1.
         -5    1    5    5    0  502  0.30744319918E+02 -0.59244067285E+02  0.14981330265E+03  0.16407677583E+03  0.47000000000E+01 0.  1.
         13    1    6    6    0    0  0.40873010545E+02  0.10348192584E+02  0.14835873704E+03  0.15423359860E+03  0.00000000000E+00 0. -1.
        -14    1    6    6    0    0  0.11751400640E+03  0.58884831292E+02  0.14739004753E+03  0.19748617969E+03  0.00000000000E+00 0.  1.
</event>
<event>
12    1  0.8135779E-002  0.2446381E+03  0.7818608E-02  0.1116914E+00
         21   -1    0    0  501  502  0.00000000000E+00  0.00000000000E+00  0.53862220810E+03  0.53862220810E+03  0.00000000000E+00 0. -1.
         21   -1    0    0  502  503 -0.00000000000E+00 -0.00000000000E+00 -0.11702671366E+03  0.11702671366E+03  0.00000000000E+00 0.  1.
         -6    2    1    2    0  503  0.16847750671E+03  0.35706953166E+02  0.13372802014E+03  0.27787189046E+03  0.17224966578E+03 0.  0.
        -24    2    3    3    0    0  0.14236543434E+03  0.87922290244E+02  0.10145877831E+03  0.21100130112E+03  0.78926670778E+02 0.  0.
          6    2    1    2  501    0 -0.16847750671E+03 -0.35706953166E+02  0.28786747429E+03  0.37777703131E+03  0.17374736216E+03 0.  0.
         24    2    5    5    0    0 -0.17252279604E+03  0.14325069414E+02  0.25507377782E+03  0.31763483167E+03  0.76550188709E+02 0.  0.
          5    1    5    5  501    0  0.40452893280E+01 -0.50032022581E+02  0.32793696478E+02  0.60142199644E+02  0.47000000000E+01 0. -1.
        -13    1    6    6    0    0 -0.72429133879E+02 -0.19877512767E+02  0.61613973608E+02  0.97146161489E+02  0.00000000000E+00 0.  1.
         14    1    6    6    0    0 -0.10009366216E+03  0.34202582181E+02  0.19345980421E+03  0.22048867018E+03  0.00000000000E+00 0. -1.
         -5    1    3    3    0  503  0.26112072369E+02 -0.52215337078E+02  0.32269241837E+02  0.66870589337E+02  0.47000000000E+01 0.  1.
         11    1    4    4    0    0  0.16120115082E+02  0.21579655499E+02  0.54603601178E+02  0.60885900694E+02  0.00000000000E+00 0. -1.
        -12    1    4    4    0    0  0.12624531926E+03  0.66342634745E+02  0.46855177128E+02  0.15011540042E+03  0.00000000000E+00 0.  1.
</event>
<event>
12    1  0.8135779E-002  0.2171041E+03  0.7818608E-02  0.1136543E+00
         21   -1    0    0  501  502  0.00000000000E+00  0.00000000000E+00  0.10674587914E+04  0.10674587914E+04  0.00000000000E+00 0. -1.
         21   -1    0    0  502  503 -0.00000000000E+00 -0.00000000000E+00 -0.25222471195E+03  0.25222471195E+03  0.00000000000E+00 0.  1.
         -6    2    1    2    0  503  0.97601986505E+02  0.95824471852E+02 -0.19201375255E+03  0.28983353833E+03  0.16859929298E+03 0.  0.
        -24    2    3    3    0    0  0.11414895558E+03  0.70107221834E+02 -0.84466080363E+02  0.17792388312E+03  0.81101065595E+02 0.  0.
          6    2    1    2  501    0 -0.97601986505E+02 -0.95824471852E+02  0.10072478320E+04  0.10298499651E+04  0.16533081449E+03 0.  0.
         24    2    5    5    0    0 -0.79853746301E+02  0.24156045920E+01  0.40986126873E+03  0.42416117643E+03  0.74457961600E+02 0.  0.
          5    1    5    5  501    0 -0.17748240204E+02 -0.98240076444E+02  0.59738656332E+03  0.60568878864E+03  0.47000000000E+01 0. -1.
        -11    1    6    6    0    0 -0.94068348488E+02  0.24175356536E+01  0.33514010552E+03  0.34809996982E+03  0.00000000000E+00 0.  1.
         12    1    6    6    0    0  0.14214602187E+02 -0.19310616184E-02  0.74721163213E+02  0.76061206610E+02  0.00000000000E+00 0. -1.
         -5    1    3    3    0  503 -0.16546969077E+02  0.25717250018E+02 -0.10754767219E+03  0.11190965520E+03  0.47000000000E+01 0.  1.
         11    1    4    4    0    0  0.40671160151E+02  0.12795930181E+02  0.11498647153E+02  0.44159913763E+02  0.00000000000E+00 0. -1.
        -12    1    4    4    0    0  0.73477795431E+02  0.57311291654E+02 -0.95964727515E+02  0.13376396936E+03  0.00000000000E+00 0.  1.
</event>
<event>
12    1  0.8135779E-002  0.1881362E+03  0.7818608E-02  0.1160915E+00
         21   -1    0    0  501  502  0.00000000000E+00  0.00000000000E+00  0.30423431659E+04  0.30423431659E+04  0.00000000000E+00 0. -1.
         21   -1    0    0  502  503 -0.00000000000E+00 -0.00000000000E+00 -0.28874655623E+02  0.28874655623E+02  0.00000000000E+00 0. -1.
         -6    2    1    2    0  503  0.59400027102E+02 -0.30361716753E+02  0.30790570836E+03  0.35912171514E+03  0.17237251515E+03 0.  0.
        -24    2    3    3    0    0  0.12123744109E+02  0.20122166608E+02  0.63737221106E+02  0.10530286324E+03  0.80463487941E+02 0.  0.
          6    2    1    2  501    0 -0.59400027102E+02  0.30361716753E+02  0.27055628019E+04  0.27120961063E+04  0.17591196115E+03 0.  0.
         24    2    5    5    0    0 -0.85090606178E+02  0.11750312399E+02  0.25745010235E+04  0.25771677180E+04  0.79746132699E+02 0.  0.
          5    1    5    5  501    0  0.25690579076E+02  0.18611404354E+02  0.13106177840E+03  0.13492838835E+03  0.47000000000E+01 0. -1.
        -13    1    6    6    0    0 -0.58333493774E+02 -0.30021400336E+02  0.12253428285E+04  0.12270978479E+04  0.00000000000E+00 0.  1.
         14    1    6    6    0    0 -0.26757112403E+02  0.41771712734E+02  0.13491581950E+04  0.13500698701E+04  0.00000000000E+00 0. -1.
         -5    1    3    3    0  503  0.47276282993E+02 -0.50483883361E+02  0.24416848726E+03  0.25381885190E+03  0.47000000000E+01 0.  1.
         13    1    4    4    0    0  0.71736449955E+01  0.37678786274E+02  0.74735044868E+02  0.84002851434E+02  0.00000000000E+00 0. -1.
        -14    1    4    4    0    0  0.49500991138E+01 -0.17556619666E+02 -0.10997823762E+02  0.21300011804E+02  0.00000000000E+00 0.  1.
</event>
<event>
12    1  0.8135779E-002  0.1885637E+03  0.7818608E-02  0.1159792E+00
         21   -1    0    0  501  502  0.00000000000E+00  0.00000000000E+00  0.11300564869E+03  0.11300564869E+03  0.00000000000E+00 0. -1.
         21   -1    0    0  502  503 -0.00000000000E+00 -0.00000000000E+00 -0.43935541734E+03  0.43935541734E+03  0.00000000000E+00 0. -1.
         -6    2    1    2    0  503  0.69674804176E+02 -0.33391956483E+02 -0.31040406045E+03  0.36312434734E+03  0.17186916474E+03 0.  0.
        -24    2    3    3    0    0  0.63658297078E+02 -0.86320907715E+02 -0.24333073004E+03  0.27734210041E+03  0.78772575046E+02 0.  0.
          6    2    1    2  501    0 -0.69674804176E+02  0.33391956483E+02 -0.15945708206E+02  0.18923671869E+03  0.17200775854E+03 0.  0.
         24    2    5    5    0    0  0.33117951843E+01 -0.17655371893E+02 -0.47387189587E+02  0.94666479335E+02  0.79959467412E+02 0.  0.
          5    1    5    5  501    0 -0.72986599361E+02  0.51047328376E+02  0.31441481382E+02  0.94570239357E+02  0.47000000000E+01 0. -1.
        -11    1    6    6    0    0  0.30191146927E+02 -0.95544128545E+01 -0.56821741599E+02  0.65049999816E+02  0.00000000000E+00 0.  1.
         12    1    6    6    0    0 -0.26879351743E+02 -0.81009590382E+01  0.94345520117E+01  0.29616479519E+02  0.00000000000E+00 0. -1.
         -5    1    3    3    0  503  0.60165070985E+01  0.52928951233E+02 -0.67073330407E+02  0.85782246929E+02  0.47000000000E+01 0.  1.
         13    1    4    4    0    0 -0.71736136047E+01 -0.41613143804E+02 -0.12813160834E+03  0.13491042778E+03  0.00000000000E+00 0. -1.
        -14    1    4    4    0    0  0.70831910683E+02 -0.44707763911E+02 -0.11519912171E+03  0.14243167263E+03  0.00000000000E+00 0.  1.
</event>
<event>
12    1  0.8135779E-002  0.2003653E+03  0.7818608E-02  0.1149762E+00
         21   -1    0    0  503  502  0.00000000000E+00  0.00000000000E+00  0.24890003261E+03  0.24890003261E+03  0.00000000000E+00 0.  1.
         21   -1    0    0  501  503 -0.00000000000E+00 -0.00000000000E+00 -0.17343678406E+03  0.17343678406E+03  0.00000000000E+00 0. -1.
          6    2    1    2  501    0  0.99069617144E+02 -0.17039262284E+01 -0.20831356648E+02  0.20144532444E+03  0.17415102903E+03 0.  0.
         24    2    3    3    0    0 -0.14979377856E+02 -0.19703871355E+02  0.13119583918E+02  0.81004767940E+02  0.76006740750E+02 0.  0.
         -6    2    1    2    0  502 -0.99069617144E+02  0.17039262284E+01  0.96294605199E+02  0.22089149222E+03  0.17234473575E+03 0.  0.
        -24    2    5    5    0    0 -0.25952435536E+01  0.10637105410E+02  0.94036413358E+02  0.12386419771E+03  0.79872455434E+02 0.  0.
          5    1    3    3  501    0  0.11404899500E+03  0.17999945126E+02 -0.33950940566E+02  0.12044055650E+03  0.47000000000E+01 0. -1.
        -13    1    4    4    0    0 -0.28349544129E+02  0.16641948400E+02  0.24088630213E+02  0.40754302894E+02  0.00000000000E+00 0.  1.
         14    1    4    4    0    0  0.13370166273E+02 -0.36345819754E+02 -0.10969046295E+02  0.40250465046E+02  0.00000000000E+00 0. -1.
         -5    1    5    5    0  502 -0.96474373590E+02 -0.89331791814E+01  0.22581918403E+01  0.97027294512E+02  0.47000000000E+01 0.  1.
         13    1    6    6    0    0  0.11647147098E+02 -0.39219479431E+01 -0.11228641886E+02  0.16646924935E+02  0.00000000000E+00 0. -1.
        -14    1    6    6    0    0 -0.14242390652E+02  0.14559053353E+02  0.10526505524E+03  0.10721727278E+03  0.00000000000E+00 0.  1.
</event>
<event>
12    1  0.8135779E-002  0.1938853E+03  0.7818608E-02  0.1155201E+00
         21   -1    0    0  503  502  0.00000000000E+00  0.00000000000E+00  0.14067562334E+03  0.14067562334E+03  0.00000000000E+00 0. -1.
         21   -1    0    0  501  503 -0.00000000000E+00 -0.00000000000E+00 -0.27523175340E+03  0.27523175340E+03  0.00000000000E+00 0. -1.
          6    2    1    2  501    0 -0.58941705599E+02  0.69319958312E+02 -0.10524296505E+03  0.21981873273E+03  0.17019051762E+03 0.  0.
         24    2    3    3    0    0 -0.94570037278E+02  0.15211396357E+02 -0.49140299688E+02  0.13398917165E+03  0.79771238776E+02 0.  0.
         -6    2    1    2    0  502  0.58941705599E+02 -0.69319958312E+02 -0.29313165003E+02  0.19608864401E+03  0.17120780761E+03 0.  0.
        -24    2    5    5    0    0  0.90548316340E+02 -0.93977398140E+02 -0.20591228034E+02  0.15479543190E+03  0.80665222448E+02 0.  0.
          5    1    3    3  501    0  0.35628331679E+02  0.54108561955E+02 -0.56102665362E+02  0.85829561083E+02  0.47000000000E+01 0. -1.
        -11    1    4    4    0    0 -0.45103398280E+02  0.17080847447E+02  0.17209586863E+02  0.51207829147E+02  0.00000000000E+00 0.  1.
         12    1    4    4    0    0 -0.49466638998E+02 -0.18694510899E+01 -0.66349886551E+02  0.82781342503E+02  0.00000000000E+00 0. -1.
         -5    1    5    5    0  502 -0.31606610741E+02  0.24657439828E+02 -0.87219369695E+01  0.41293212104E+02  0.47000000000E+01 0.  1.
         11    1    6    6    0    0  0.22832746920E+02 -0.48148217138E+02  0.27468753043E+02  0.59950959452E+02  0.00000000000E+00 0. -1.
        -12    1    6    6    0    0  0.67715569420E+02 -0.45829181002E+02 -0.48059981076E+02  0.94844472450E+02  0.00000000000E+00 0.  1.
</event>
<event>
12    1  0.8135779E-002  0.1899285E+03  0.7818608E-02  0.1160782E+00
         21   -1    0    0  503  502  0.00000000000E+00  0.00000000000E+00  0.28325956051E+02  0.28325956051E+02  0.00000000000E+00 0.  1.
         21   -1    0    0  501  503 -0.00000000000E+00 -0.00000000000E+00 -0.15189694198E+04  0.15189694198E+04  0.00000000000E+00 0.  1.
          6    2    1    2  501    0  0.11031641938E+02  0.58389192941E+02 -0.38041937276E+03  0.42094269603E+03  0.17012600977E+03 0.  0.
         24    2    3    3    0    0  0.28041155583E+02 -0.28169797424E+02 -0.21430565160E+03  0.23280008862E+03  0.81787071482E+02 0.  0.
         -6    2    1    2    0  502 -0.11031641938E+02 -0.58389192941E+02 -0.11102240909E+04  0.11263526798E+04  0.18039354792E+03 0.  0.
        -24    2    5    5    0    0  0.20016236528E+02 -0.10464950963E+03 -0.68492483207E+03  0.69739401363E+03  0.76708637486E+02 0.  0.
          5    1    3    3  501    0 -0.17009513645E+02  0.86558990366E+02 -0.16611372115E+03  0.18814260741E+03  0.47000000000E+01 0. -1.
        -13    1    4    4    0    0  0.15898004143E+02 -0.50781430239E+02 -0.80111564247E+02  0.96173608225E+02  0.00000000000E+00 0.  1.
         14    1    4    4    0    0  0.12143151440E+02  0.22611632814E+02 -0.13419408735E+03  0.13662648040E+03  0.00000000000E+00 0. -1.
         -5    1    5    5    0  502 -0.31047878466E+02  0.46260316693E+02 -0.42529925888E+03  0.42895866614E+03  0.47000000000E+01 0.  1.
         11    1    6    6    0    0 -0.13255555034E+01 -0.46132819788E+02 -0.11262129165E+03  0.12171092594E+03  0.00000000000E+00 0. -1.
        -12    1    6    6    0    0  0.21341792031E+02 -0.58516689847E+02 -0.57230354042E+03  0.57568308769E+03  0.00000000000E+00 0.  1.
</event>
<event>
12    1  0.8135779E-002  0.1892783E+03  0.7818608E-02  0.1159305E+00
         21   -1    0    0  501  502  0.00000000000E+00  0.00000000000E+00  0.51441677023E+03  0.51441677023E+03  0.00000000000E+00 0.  1.
         21   -1    0    0  502  503 -0.00000000000E+00 -0.00000000000E+00 -0.82384222240E+02  0.82384222240E+02  0.00000000000E+00 0.  1.
         -6    2    1    2    0  503 -0.69592693264E+02  0.32103658577E+02  0.96851595189E+02  0.21186909691E+03  0.17214672488E+03 0.  0.
        -24    2    3    3    0    0 -0.95544707348E+02  0.65283622851E+02  0.52575636014E+02  0.15057580507E+03  0.80734955597E+02 0.  0.
          6    2    1    2  501    0  0.69592693264E+02 -0.32103658577E+02  0.33518095281E+03  0.38493189556E+03  0.17306792090E+03 0.  0.
         24    2    5    5    0    0  0.72230685723E+02 -0.57409711468E+02  0.33781481592E+03  0.35892453983E+03  0.78707232888E+02 0.  0.
          5    1    5    5  501    0 -0.26379924593E+01  0.25306052891E+02 -0.26338631117E+01  0.26007355729E+02  0.47000000000E+01 0. -1.
        -11    1    6    6    0    0  0.89185291666E+02 -0.45830135039E+02  0.26759947292E+03  0.28576895464E+03  0.00000000000E+00 0.  1.
         12    1    6    6    0    0 -0.16954605942E+02 -0.11579576429E+02  0.70215342993E+02  0.73155585190E+02  0.00000000000E+00 0. -1.
         -5    1    3    3    0  503  0.25952014084E+02 -0.33179964274E+02  0.44275959175E+02  0.61293291844E+02  0.47000000000E+01 0.  1.
         11    1    4    4    0    0  0.69193425714E+01  0.32858609565E+02  0.10862871052E+02  0.35292598256E+02  0.00000000000E+00 0. -1.
        -12    1    4    4    0    0 -0.10246404992E+03  0.32425013287E+02  0.41712764962E+02  0.11528320681E+03  0.00000000000E+00 0.  1.
</event>
<event>
12    1  0.8135779E-002  0.2377297E+03  0.7818608E-02  0.1121367E+00
         21   -1    0    0  501  502  0.00000000000E+00  0.00000000000E+00  0.65318479335E+02  0.65318479335E+02  0.00000000000E+00 0.  1.
         21   -1    0    0  502  503 -0.00000000000E+00 -0.00000000000E+00 -0.88186625080E+03  0.88186625080E+03  0.00000000000E+00 0.  1.
         -6    2    1    2    0  503 -0.18783954963E+02 -0.16351221768E+03 -0.47577824600E+03  0.53186497559E+03  0.17154104638E+03 0.  0.
        -24    2    3    3    0    0 -0.15993473905E+02 -0.84689293292E+02 -0.12585599067E+03  0.17313316076E+03  0.81898066892E+02 0.  0.
          6    2    1    2  501    0  0.18783954963E+02  0.16351221768E+03 -0.34076952546E+03  0.41531975455E+03  0.17110682844E+03 0.  0.
         24    2    5    5    0    0  0.75785903754E+02  0.99283086549E+02 -0.18420691278E+03  0.23669012335E+03  0.80556770624E+02 0.  0.
          5    1    5    5  501    0 -0.57001948790E+02  0.64229131128E+02 -0.15656261268E+03  0.17862963120E+03  0.47000000000E+01 0. -1.
        -13    1    6    6    0    0  0.37892240180E+02  0.93114032654E+02 -0.89881796364E+02  0.13485096314E+03  0.00000000000E+00 0.  1.
         14    1    6    6    0    0  0.37893663574E+02  0.61690538946E+01 -0.94325116414E+02  0.10183916021E+03  0.00000000000E+00 0. -1.
         -5    1    3    3    0  503 -0.27904810586E+01 -0.78822924385E+02 -0.34992225534E+03  0.35873181483E+03  0.47000000000E+01 0.  1.
         11    1    4    4    0    0 -0.11449115037E+02  0.15126039070E+02 -0.19632883239E+02  0.27300721554E+02  0.00000000000E+00 0. -1.
        -12    1    4    4    0    0 -0.45443588675E+01 -0.99815332361E+02 -0.10622310743E+03  0.14583243920E+03  0.00000000000E+00 0.  1.
</event>
<event>
12    1  0.8135779E-002  0.5038202E+03  0.7818608E-02  0.1012787E+00
         21   -1    0    0  503  502  0.00000000000E+00  0.00000000000E+00  0.35979257413E+03  0.35979257413E+03  0.00000000000E+00 0.  1.
         21   -1    0    0  501  503 -0.00000000000E+00 -0.00000000000E+00 -0.91138881788E+03  0.91138881788E+03  0.00000000000E+00 0.  1.
          6    2    1    2  501    0  0.86150967950E+02 -0.46625018147E+03 -0.57789988778E+03  0.76668314334E+03  0.17036296833E+03 0.  0.
         24    2    3    3    0    0  0.80615026368E+02 -0.47736791435E+03 -0.54590791320E+03  0.73204462328E+03  0.59118293757E+02 0.  0.
         -6    2    1    2    0  502 -0.86150967950E+02  0.46625018147E+03  0.26303644031E+02  0.50449824867E+03  0.17033901556E+03 0.  0.
        -24    2    5    5    0    0 -0.86464089040E+02  0.34096185024E+03  0.77594935499E+02  0.36903552107E+03  0.80219821658E+02 0.  0.
          5    1    3    3  501    0  0.55359415826E+01  0.11117732882E+02 -0.31991974585E+02  0.34638520053E+02  0.47000000000E+01 0. -1.
        -11    1    4    4    0    0  0.27535275187E+02 -0.13896074368E+03 -0.20131712850E+03  0.24616430669E+03  0.00000000000E+00 0.  1.
         12    1    4    4    0    0  0.53079751181E+02 -0.33840717067E+03 -0.34459078470E+03  0.48588031659E+03  0.00000000000E+00 0. -1.
         -5    1    5    5    0  502  0.31312108970E+00  0.12528833123E+03 -0.51291291467E+02  0.13546272760E+03  0.47000000000E+01 0.  1.
         11    1    6    6    0    0 -0.97041478935E+01  0.48462891917E-01  0.83294984298E+01  0.12788798970E+02  0.00000000000E+00 0. -1.
        -12    1    6    6    0    0 -0.76759941147E+02  0.34091338735E+03  0.69265437069E+02  0.35624672210E+03  0.00000000000E+00 0.  1.
</event>
<event>
12    1  0.8135779E-002  0.1837130E+03  0.7818608E-02  0.1164418E+00
         21   -1    0    0  503  502  0.00000000000E+00  0.00000000000E+00  0.13945865385E+03  0.13945865385E+03  0.00000000000E+00 0.  1.
         21   -1    0    0  501  503 -0.00000000000E+00 -0.00000000000E+00 -0.91912079714E+03  0.91912079714E+03  0.00000000000E+00 0.  1.
          6    2    1    2  501    0  0.64070915716E+02  0.22852856458E+01 -0.84423556623E+03  0.86384835635E+03  0.17143508015E+03 0.  0.
         24    2    3    3    0    0  0.23061147808E+02 -0.35814050557E+02 -0.23250031771E+03  0.24953942367E+03  0.79994146507E+02 0.  0.
         -6    2    1    2    0  502 -0.64070915716E+02 -0.22852856458E+01  0.64573422941E+02  0.19473109464E+03  0.17216320019E+03 0.  0.
        -24    2    5    5    0    0 -0.14198019915E+02 -0.59548624338E+02  0.63424733644E+02  0.11864032529E+03  0.79405336829E+02 0.  0.
          5    1    3    3  501    0  0.41009767907E+02  0.38099336203E+02 -0.61173524853E+03  0.61430893268E+03  0.47000000000E+01 0. -1.
        -13    1    4    4    0    0  0.16653280414E+02 -0.43207400762E+02 -0.23493690044E+03  0.23945679865E+03  0.00000000000E+00 0.  1.
         14    1    4    4    0    0  0.64078673943E+01  0.73933502049E+01  0.24365827391E+01  0.10082625017E+02  0.00000000000E+00 0. -1.
         -5    1    5    5    0  502 -0.49872895800E+02  0.57263338693E+02  0.11486892971E+01  0.76090769354E+02  0.47000000000E+01 0.  1.
         11    1    6    6    0    0  0.33133359236E+02 -0.25091872364E+02  0.29613994456E+02  0.51033422584E+02  0.00000000000E+00 0. -1.
        -12    1    6    6    0    0 -0.47331379151E+02 -0.34456751974E+02  0.33810739188E+02  0.67606902705E+02  0.00000000000E+00 0.  1.
</event>
<event>
12    1  0.8135779E-002  0.2036569E+03  0.7818608E-02  0.1147088E+00
         21   -1    0    0  503  502  0.00000000000E+00  0.00000000000E+00  0.29701309573E+03  0.29701309573E+03  0.00000000000E+00 0. -1.
         21   -1    0    0  501  503 -0.00000000000E+00 -0.00000000000E+00 -0.37538575109E+03  0.37538575109E+03  0.00000000000E+00 0.  1.
          6    2    1    2  501    0 -0.84958682775E+02  0.61677284731E+02 -0.30628495106E+03  0.36675174613E+03  0.17226231976E+03 0.  0.
         24    2    3    3    0    0 -0.12430107106E+03  0.68560463940E+02 -0.24323734293E+03  0.29197011360E+03  0.77012003983E+02 0.  0.
         -6    2    1    2    0  502  0.84958682775E+02 -0.61677284731E+02  0.22791229570E+03  0.30564710068E+03  0.17451094634E+03 0.  0.
        -24    2    5    5    0    0  0.76968491616E+02  0.19116613355E+02  0.17529995596E+03  0.20878820633E+03  0.81073096243E+02 0.  0.
          5    1    3    3  501    0  0.39342388286E+02 -0.68831792090E+01 -0.63047608134E+02  0.74781632528E+02  0.47000000000E+01 0. -1.
        -11    1    4    4    0    0 -0.45363318012E+02  0.81543411437E-01 -0.13092064444E+03  0.13855703667E+03  0.00000000000E+00 0.  1.
         12    1    4    4    0    0 -0.78937753048E+02  0.68478920528E+02 -0.11231669849E+03  0.15341307693E+03  0.00000000000E+00 0. -1.
         -5    1    5    5    0  502  0.79901911585E+01 -0.80793898086E+02  0.52612339740E+02  0.96858894355E+02  0.47000000000E+01 0.  1.
         11    1    6    6    0    0  0.72757121862E+02  0.38627944064E+01  0.17836264109E+03  0.19267005917E+03  0.00000000000E+00 0. -1.
        -12    1    6    6    0    0  0.42113697538E+01  0.15253818949E+02 -0.30626851306E+01  0.16118147162E+02  0.00000000000E+00 0.  1.
</event>
<event>
12    1  0.8135779E-002  0.1754197E+03  0.7818608E-02  0.1172508E+00
         21   -1    0    0  503  502  0.00000000000E+00  0.00000000000E+00  0.15538605388E+03  0.15538605388E+03  0.00000000000E+00 0. -1.
         21   -1    0    0  501  503 -0.00000000000E+00 -0.00000000000E+00 -0.42686721123E+03  0.42686721123E+03  0.00000000000E+00 0. -1.
          6    2    1    2  501    0  0.61982771244E+01  0.74798215179E+01 -0.34916552814E+03  0.39040191951E+03  0.17436377590E+03 0.  0.
         24    2    3    3    0    0 -0.53506464026E+02  0.32966125489E+01 -0.12237415731E+03  0.15579891178E+03  0.80150216392E+02 0.  0.
         -6    2    1    2    0  502 -0.61982771244E+01 -0.74798215179E+01  0.77684370781E+02  0.19185134560E+03  0.17515053804E+03 0.  0.
        -24    2    5    5    0    0 -0.21982205035E+02 -0.84004782647E+01  0.12349972103E+03  0.14315723602E+03  0.68469173769E+02 0.  0.
          5    1    3    3  501    0  0.59704741151E+02  0.41832089690E+01 -0.22679137083E+03  0.23460300773E+03  0.47000000000E+01 0. -1.
        -13    1    4    4    0    0 -0.86770477607E+01  0.15538932269E+02 -0.10450681746E+03  0.10601143556E+03  0.00000000000E+00 0.  1.
         14    1    4    4    0    0 -0.44829416265E+02 -0.12242319720E+02 -0.17867339845E+02  0.49787476216E+02  0.00000000000E+00 0. -1.
         -5    1    5    5    0  502  0.15783927911E+02  0.92065674680E+00 -0.45815350253E+02  0.48694109581E+02  0.47000000000E+01 0.  1.
         11    1    6    6    0    0 -0.25209303382E+02  0.18160766859E+02  0.21693531553E+02  0.37893689991E+02  0.00000000000E+00 0. -1.
        -12    1    6    6    0    0  0.32270983465E+01 -0.26561245124E+02  0.10180618948E+03  0.10526354603E+03  0.00000000000E+00 0.  1.
</event>
<event>
12    1  0.8135779E-002  0.1855862E+03  0.7818608E-02  0.1162577E+00
         21   -1    0    0  501  502  0.00000000000E+00  0.00000000000E+00  0.65677639266E+03  0.65677639266E+03  0.00000000000E+00 0. -1.
         21   -1    0    0  502  503 -0.00000000000E+00 -0.00000000000E+00 -0.71651429298E+02  0.71651429298E+02  0.00000000000E+00 0. -1.
         -6    2    1    2    0  503 -0.30058355191E+02  0.62083379954E+02  0.10372229613E+03  0.21260419568E+03  0.17229155093E+03 0.  0.
        -24    2    3    3    0    0 -0.57875622888E+02  0.61650083240E+02  0.13028617693E+03  0.17385219068E+03  0.78101061552E+02 0.  0.
          6    2    1    2  501    0  0.30058355191E+02 -0.62083379954E+02  0.48140266723E+03  0.51582362627E+03  0.17195241965E+03 0.  0.
         24    2    5    5    0    0 -0.10806356468E+02 -0.91369390202E+02  0.40885946278E+03  0.42743696683E+03  0.84090174848E+02 0.  0.
          5    1    5    5  501    0  0.40864711658E+02  0.29286010248E+02  0.72543204450E+02  0.88386659440E+02  0.47000000000E+01 0. -1.
        -11    1    6    6    0    0  0.19975572992E+02 -0.51494209113E+02  0.97746858715E+02  0.11227254997E+03  0.00000000000E+00 0.  1.
         12    1    6    6    0    0 -0.30781929460E+02 -0.39875181088E+02  0.31111260407E+03  0.31516441686E+03  0.00000000000E+00 0. -1.
         -5    1    3    3    0  503  0.27817267697E+02  0.43329671399E+00 -0.26563880805E+02  0.38752005001E+02  0.47000000000E+01 0.  1.
         13    1    4    4    0    0 -0.44265782296E+02  0.80538174536E+01  0.17567994528E+02  0.48300702785E+02  0.00000000000E+00 0. -1.
        -14    1    4    4    0    0 -0.13609840592E+02  0.53596265786E+02  0.11271818241E+03  0.12555148789E+03  0.00000000000E+00 0.  1.
</event>
<event>
12    1  0.8135779E-002  0.1929789E+03  0.7818608E-02  0.1155833E+00
         21   -1    0    0  501  502  0.00000000000E+00  0.00000000000E+00  0.53999467805E+03  0.53999467805E+03  0.00000000000E+00 0.  1.
         21   -1    0    0  502  503 -0.00000000000E+00 -0.00000000000E+00 -0.68930975999E+02  0.68930975999E+02  0.00000000000E+00 0.  1.
         -6    2    1    2    0  503  0.28216149914E+02  0.82841097245E+02  0.24031594577E+03  0.30820869000E+03  0.17199431470E+03 0.  0.
        -24    2    3    3    0    0  0.19748168848E+02  0.64487449014E+02  0.48912314354E+02  0.11568335861E+03  0.80259601980E+02 0.  0.
          6    2    1    2  501    0 -0.28216149914E+02 -0.82841097245E+02  0.23074775628E+03  0.30071696405E+03  0.17183529013E+03 0.  0.
         24    2    5    5    0    0 -0.59054035135E+02 -0.86424374063E+01  0.18386128667E+03  0.20756736760E+03  0.75611960473E+02 0.  0.
          5    1    5    5  501    0  0.30837885221E+02 -0.74198659838E+02  0.46886469606E+02  0.93149596450E+02  0.47000000000E+01 0. -1.
        -11    1    6    6    0    0 -0.19973577258E+02 -0.24616118382E+02  0.18077807520E+02  0.36492522487E+02  0.00000000000E+00 0.  1.
         12    1    6    6    0    0 -0.39080457876E+02  0.15973680976E+02  0.16578347915E+03  0.17107484511E+03  0.00000000000E+00 0. -1.
         -5    1    3    3    0  503  0.84679810660E+01  0.18353648230E+02  0.19140363142E+03  0.19252533139E+03  0.47000000000E+01 0.  1.
         11    1    4    4    0    0 -0.24685481592E+02  0.45590379203E+02  0.42372661910E+02  0.66957435395E+02  0.00000000000E+00 0. -1.
        -12    1    4    4    0    0  0.44433650440E+02  0.18897069811E+02  0.65396524447E+01  0.48725923213E+02  0.00000000000E+00 0.  1.
</event>
<event>
12    1  0.8135779E-002  0.1741730E+03  0.7818608E-02  0.1173617E+00
         21   -1    0    0  503  502  0.00000000000E+00  0.00000000000E+00  0.17502343673E+03  0.17502343673E+03  0.00000000000E+00 0.  1.
         21   -1    0    0  501  503 -0.00000000000E+00 -0.00000000000E+00 -0.50711320230E+03  0.50711320230E+03  0.00000000000E+00 0.  1.
          6    2    1    2  501    0  0.26572398347E+02  0.35734885826E+01 -0.44287338398E+03  0.47589185124E+03  0.17209694264E+03 0.  0.
         24    2    3    3    0    0 -0.49509471859E+02  0.21023880583E+02 -0.21881239932E+03  0.23857690860E+03  0.78402065412E+02 0.  0.
         -6    2    1    2    0  502 -0.26572398347E+02 -0.35734885826E+01  0.11078361842E+03  0.20624478779E+03  0.17188670747E+03 0.  0.
        -24    2    5    5    0    0 -0.72970915070E+02 -0.23629463111E+02  0.47686190915E+02  0.12526059287E+03  0.86793648099E+02 0.  0.
          5    1    3    3  501    0  0.76081870206E+02 -0.17450392001E+02 -0.22406098466E+03  0.23731494264E+03  0.47000000000E+01 0. -1.
        -13    1    4    4    0    0 -0.18085023263E+02  0.33546402481E+02 -0.19105407447E+03  0.19481809094E+03  0.00000000000E+00 0.  1.
         14    1    4    4    0    0 -0.31424448596E+02 -0.12522521897E+02 -0.27758324849E+02  0.43758817656E+02  0.00000000000E+00 0. -1.
         -5    1    5    5    0  502  0.46398516723E+02  0.20055974529E+02  0.63097427501E+02  0.80984194913E+02  0.47000000000E+01 0.  1.
         11    1    6    6    0    0  0.51931317787E+01  0.23548576011E+02  0.57441184534E+01  0.24789089265E+02  0.00000000000E+00 0. -1.
        -12    1    6    6    0    0 -0.78164046849E+02 -0.47178039122E+02  0.41942072462E+02  0.10047150361E+03  0.00000000000E+00 0.  1.
</event>
<event>
12    1  0.8135779E-002  0.2282646E+03  0.7818608E-02  0.1128005E+00
         21   -1    0    0  501  502  0.00000000000E+00  0.00000000000E+00  0.86194134365E+02  0.86194134365E+02  0.00000000000E+00 0.  1.
         21   -1    0    0  502  503 -0.00000000000E+00 -0.00000000000E+00 -0.92891149748E+03  0.92891149748E+03  0.00000000000E+00 0.  1.
         -6    2    1    2    0  503 -0.74525197974E+02 -0.12964522083E+03 -0.72178455837E+03  0.75678514027E+03  0.17143194399E+03 0.  0.
        -24    2    3    3    0    0 -0.87870901033E+02 -0.13648271267E+03 -0.71846678950E+03  0.74072411057E+03  0.78286999328E+02 0.  0.
          6    2    1    2  501    0  0.74525197974E+02  0.12964522083E+03 -0.12093280475E+03  0.25832049158E+03  0.17246113964E+03 0.  0.
         24    2    5    5    0    0  0.50389543554E+02  0.12922820356E+03 -0.15055966884E+03  0.21981666328E+03  0.80075694706E+02 0.  0.
          5    1    5    5  501    0  0.24135654420E+02  0.41701727143E+00  0.29626864085E+02  0.38503828293E+02  0.47000000000E+01 0. -1.
        -11    1    6    6    0    0  0.68998809481E+02  0.81417273485E+02 -0.11775335682E+03  0.15891966893E+03  0.00000000000E+00 0.  1.
         12    1    6    6    0    0 -0.18609265927E+02  0.47810930075E+02 -0.32806312019E+02  0.60896994353E+02  0.00000000000E+00 0. -1.
         -5    1    3    3    0  503  0.13345703059E+02  0.68374918348E+01 -0.33177688662E+01  0.16061029699E+02  0.47000000000E+01 0.  1.
         11    1    4    4    0    0  0.34178497535E+01 -0.40699401017E+02 -0.95618327536E+02  0.10397589865E+03  0.00000000000E+00 0. -1.
        -12    1    4    4    0    0 -0.91288750786E+02 -0.95783311649E+02 -0.62284846196E+03  0.63674821192E+03  0.00000000000E+00 0.  1.
</event>
<event>
12    1  0.8135779E-002  0.2484685E+03  0.7818608E-02  0.1114309E+00
         21   -1    0    0  503  502  0.00000000000E+00  0.00000000000E+00  0.57254891893E+02  0.57254891893E+02  0.00000000000E+00 0.  1.
         21   -1    0    0  501  503 -0.00000000000E+00 -0.00000000000E+00 -0.18406558558E+04  0.18406558558E+04  0.00000000000E+00 0. -1.
          6    2    1    2  501    0 -0.14042892956E+03 -0.11087419308E+03 -0.15029998003E+04  0.15233991546E+04  0.17240421591E+03 0.  0.
         24    2    3    3    0    0 -0.16717993083E+03 -0.78894542800E+02 -0.13504916873E+04  0.13652247932E+04  0.76403273338E+02 0.  0.
         -6    2    1    2    0  502  0.14042892956E+03  0.11087419308E+03 -0.28040116366E+03  0.37451159312E+03  0.17210679780E+03 0.  0.
        -24    2    5    5    0    0  0.28120383992E+02  0.29130652982E+02 -0.18490886454E+03  0.20588156926E+03  0.80972720323E+02 0.  0.
          5    1    3    3  501    0  0.26751001267E+02 -0.31979650277E+02 -0.15250811295E+03  0.15817436144E+03  0.47000000000E+01 0. -1.
        -13    1    4    4    0    0 -0.74701802761E+02 -0.42859836294E+02 -0.37828258205E+03  0.38796267447E+03  0.00000000000E+00 0.  1.
         14    1    4    4    0    0 -0.92478128071E+02 -0.36034706506E+02 -0.97220910527E+03  0.97726211868E+03  0.00000000000E+00 0. -1.
         -5    1    5    5    0  502  0.11230854557E+03  0.81743540094E+02 -0.95492299121E+02  0.16863002386E+03  0.47000000000E+01 0.  1.
         13    1    6    6    0    0 -0.96506813600E+01 -0.22593189568E+02 -0.34030443733E+02  0.41972121298E+02  0.00000000000E+00 0. -1.
        -14    1    6    6    0    0  0.37771065352E+02  0.51723842551E+02 -0.15087842080E+03  0.16390944796E+03  0.00000000000E+00 0.  1.
</event>
<event>
12    1  0.8135779E-002  0.2271090E+03  0.7818608E-02  0.1128706E+00
         21   -1    0    0  501  502  0.00000000000E+00  0.00000000000E+00  0.69880574244E+02  0.69880574244E+02  0.00000000000E+00 0.  1.
         21   -1    0    0  502  503 -0.00000000000E+00 -0.00000000000E+00 -0.10660292355E+04  0.10660292355E+04  0.00000000000E+00 0. -1.
         -6    2    1    2    0  503  0.98369800273E+01  0.14836433443E+03 -0.81327483635E+03  0.84438997913E+03  0.17166751442E+03 0.  0.
        -24    2    3    3    0    0  0.61549969793E+02  0.11681281979E+03 -0.44523127418E+03  0.47136466492E+03  0.80747298263E+02 0.  0.
          6    2    1    2  501    0 -0.98369800273E+01 -0.14836433443E+03 -0.18287382488E+03  0.29151983059E+03  0.17155825218E+03 0.  0.
         24    2    5    5    0    0  0.52712083811E+02 -0.79386125447E+02 -0.14352147898E+03  0.19032162986E+03  0.80889969539E+02 0.  0.
          5    1    5    5  501    0 -0.62549063838E+02 -0.68978208984E+02 -0.39352345894E+02  0.10119820072E+03  0.47000000000E+01 0. -1.
        -13    1    6    6    0    0  0.15680654203E+02 -0.83668515467E+02 -0.80849236207E+02  0.11740060644E+03  0.00000000000E+00 0.  1.
         14    1    6    6    0    0  0.37031429608E+02  0.42823900208E+01 -0.62672242775E+02  0.72921023427E+02  0.00000000000E+00 0. -1.
         -5    1    3    3    0  503 -0.51712989766E+02  0.31551514637E+02 -0.36804356217E+03  0.37302531421E+03  0.47000000000E+01 0.  1.
         11    1    4    4    0    0 -0.35162856643E+01  0.80933488612E+01 -0.14789771308E+03  0.14816072386E+03  0.00000000000E+00 0. -1.
        -12    1    4    4    0    0  0.65066255458E+02  0.10871947093E+03 -0.29733356110E+03  0.32320394105E+03  0.00000000000E+00 0.  1.
</event>
<event>
12    1  0.8135779E-002  0.2584706E+03  0.7818608E-02  0.1108239E+00
         21   -1    0    0  503  502  0.00000000000E+00  0.00000000000E+00  0.51974798345E+03  0.51974798345E+03  0.00000000000E+00 0.  1.
         21   -1    0    0  501  503 -0.00000000000E+00 -0.00000000000E+00 -0.13103107504E+03  0.13103107504E+03  0.00000000000E+00 0. -1.
          6    2    1    2  501    0 -0.14332894224E+03 -0.12764315195E+03  0.14419626863E+03  0.29497377408E+03  0.17140887837E+03 0.  0.
         24    2    3    3    0    0 -0.13554125691E+03 -0.12352312988E+03  0.17289063670E+03  0.26459155257E+03  0.80548876421E+02 0.  0.
         -6    2    1    2    0  502  0.14332894224E+03  0.12764315195E+03  0.24452063978E+03  0.35580528441E+03  0.17312162549E+03 0.  0.
        -24    2    5    5    0    0  0.74518854937E+02  0.65500702179E+02  0.40916663749E+02  0.13203490828E+03  0.76913210208E+02 0.  0.
          5    1    3    3  501    0 -0.77876853338E+01 -0.41200220680E+01 -0.28694368073E+02  0.30382221509E+02  0.47000000000E+01 0. -1.
        -13    1    4    4    0    0 -0.10397522353E+03 -0.44178214835E+02  0.80092536961E+02  0.13848240412E+03  0.00000000000E+00 0.  1.
         14    1    4    4    0    0 -0.31566033374E+02 -0.79344915045E+02  0.92798099741E+02  0.12610914845E+03  0.00000000000E+00 0. -1.
         -5    1    5    5    0  502  0.68810087304E+02  0.62142449769E+02  0.20360397603E+03  0.22377037613E+03  0.47000000000E+01 0.  1.
         11    1    6    6    0    0 -0.13871625234E+02  0.17616192093E+02 -0.24432110499E+01  0.22554855147E+02  0.00000000000E+00 0. -1.
        -12    1    6    6    0    0  0.88390480171E+02  0.47884510087E+02  0.43359874799E+02  0.10948005313E+03  0.00000000000E+00 0.  1.
</event>
<event>
12    1  0.8135779E-002  0.2184026E+03  0.7818608E-02  0.1135742E+00
         21   -1    0    0  503  502  0.00000000000E+00  0.00000000000E+00  0.10261884389E+04  0.10261884389E+04  0.00000000000E+00 0.  1.
         21   -1    0    0  501  503 -0.00000000000E+00 -0.00000000000E+00 -0.68811155533E+02  0.68811155533E+02  0.00000000000E+00 0.  1.
          6    2    1    2  501    0 -0.12357415533E+03 -0.32288285214E+02  0.16425577377E+03  0.27327581891E+03  0.17716266185E+03 0.  0.
         24    2    3    3    0    0 -0.65470069590E+02  0.25664946430E+02  0.20505355522E+02  0.10768314218E+03  0.78931426050E+02 0.  0.
         -6    2    1    2    0  502  0.12357415533E+03  0.32288285214E+02  0.79312150965E+03  0.82172377558E+03  0.17284423350E+03 0.  0.
        -24    2    5    5    0    0  0.13131697347E+03  0.73567073357E+02  0.58348650203E+03  0.60787145270E+03  0.79968388420E+02 0.  0.
          5    1    3    3  501    0 -0.58104085743E+02 -0.57953231643E+02  0.14375041825E+03  0.16559267672E+03  0.47000000000E+01 0. -1.
        -13    1    4    4    0    0 -0.57007091938E+02 -0.19122346877E+02  0.11193518574E+02  0.61161814389E+02  0.00000000000E+00 0.  1.
         14    1    4    4    0    0 -0.84629776521E+01  0.44787293307E+02  0.93118369487E+01  0.46521327795E+02  0.00000000000E+00 0. -1.
         -5    1    5    5    0  502 -0.77428181369E+01 -0.41278788143E+02  0.20963500761E+03  0.21385232288E+03  0.47000000000E+01 0.  1.
         13    1    6    6    0    0  0.14169008371E+03  0.67907367911E+02  0.51719716382E+03  0.54053713721E+03  0.00000000000E+00 0. -1.
        -14    1    6    6    0    0 -0.10373110238E+02  0.56597054461E+01  0.66289338212E+02  0.67334315488E+02  0.00000000000E+00 0.  1.
</event>
<event>
12    1  0.8135779E-002  0.2211684E+03  0.7818608E-02  0.1133100E+00
         21   -1    0    0  501  502  0.00000000000E+00  0.00000000000E+00  0.26854141720E+03  0.26854141720E+03  0.00000000000E+00 0. -1.
         21   -1    0    0  502  503 -0.00000000000E+00 -0.00000000000E+00 -0.18324211367E+03  0.18324211367E+03  0.00000000000E+00 0.  1.
         -6    2    1    2    0  503 -0.89295465371E+02 -0.10562155006E+03  0.62825103341E+02  0.22947618575E+03  0.17199632044E+03 0.  0.
        -24    2    3    3    0    0 -0.52810222217E+02 -0.55298741306E+02 -0.35725649160E+02  0.11286615674E+03  0.74937153457E+02 0.  0.
          6    2    1    2  501    0  0.89295465371E+02  0.10562155006E+03  0.22474200192E+02  0.22230734511E+03  0.17258584543E+03 0.  0.
         24    2    5    5    0    0  0.36526492457E+02 -0.14448221803E+02  0.16888742669E+02  0.90950571577E+02  0.80273539082E+02 0.  0.
          5    1    5    5  501    0  0.52768972913E+02  0.12006977186E+03  0.55854575226E+01  0.13135677353E+03  0.47000000000E+01 0. -1.
        -11    1    6    6    0    0  0.15864148540E-01  0.30933048407E+02  0.86961092971E+01  0.32132165385E+02  0.00000000000E+00 0.  1.
         12    1    6    6    0    0  0.36510628309E+02 -0.45381270210E+02  0.81926333721E+01  0.58818406192E+02  0.00000000000E+00 0. -1.
         -5    1    3    3    0  503 -0.36485243154E+02 -0.50322808752E+02  0.98550752501E+02  0.11661002902E+03  0.47000000000E+01 0.  1.
         13    1    4    4    0    0 -0.13582995377E+02  0.13787253794E+02  0.93814310001E+01  0.21508077046E+02  0.00000000000E+00 0. -1.
        -14    1    4    4    0    0 -0.39227226839E+02 -0.69085995100E+02 -0.45107080160E+02  0.91358079692E+02  0.00000000000E+00 0.  1.
</event>
<event>
12    1  0.8135779E-002  0.2559290E+03  0.7818608E-02  0.1109898E+00
         21   -1    0    0  503  502  0.00000000000E+00  0.00000000000E+00  0.56611865975E+02  0.56611865975E+02  0.00000000000E+00 0. -1.
         21   -1    0    0  501  503 -0.00000000000E+00 -0.00000000000E+00 -0.12298120160E+04  0.12298120160E+04  0.00000000000E+00 0. -1.
          6    2    1    2  501    0 -0.53987669368E+02  0.18155601966E+03 -0.42336045869E+03  0.49470567883E+03  0.17211151607E+03 0.  0.
         24    2    3    3    0    0 -0.77281699491E+02  0.58733211064E+02 -0.16282751954E+03  0.20569433557E+03  0.79845522146E+02 0.  0.
         -6    2    1    2    0  502  0.53987669368E+02 -0.18155601966E+03 -0.74983969137E+03  0.79171820318E+03  0.16935434384E+03 0.  0.
        -24    2    5    5    0    0  0.16658821386E+01 -0.17859516120E+03 -0.59813306295E+03  0.63114632766E+03  0.93185402079E+02 0.  0.
          5    1    3    3  501    0  0.23294030123E+02  0.12282280860E+03 -0.26053293915E+03  0.28901134326E+03  0.47000000000E+01 0. -1.
        -11    1    4    4    0    0 -0.10288542567E+02  0.53232390690E+01  0.83448113763E+01  0.14276794431E+02  0.00000000000E+00 0.  1.
         12    1    4    4    0    0 -0.66993156924E+02  0.53409971995E+02 -0.17117233092E+03  0.19141754114E+03  0.00000000000E+00 0. -1.
         -5    1    5    5    0  502  0.52321787229E+02 -0.29608584623E+01 -0.15170662842E+03  0.16057187552E+03  0.47000000000E+01 0.  1.
         11    1    6    6    0    0  0.39990460665E+02 -0.13028679913E+03 -0.46233133982E+03  0.48200016053E+03  0.00000000000E+00 0. -1.
        -12    1    6    6    0    0 -0.38324578527E+02 -0.48308362062E+02 -0.13580172313E+03  0.14914616713E+03  0.00000000000E+00 0.  1.
</event>
<event>
12    1  0.8135779E-002  0.2851888E+03  0.7818608E-02  0.1092904E+00
         21   -1    0    0  503  502  0.00000000000E+00  0.00000000000E+00  0.26393997891E+03  0.26393997891E+03  0.00000000000E+00 0. -1.
         21   -1    0    0  501  503 -0.00000000000E+00 -0.00000000000E+00 -0.34716360975E+03  0.34716360975E+03  0.00000000000E+00 0.  1.
          6    2    1    2  501    0 -0.22285564797E+03  0.44360220634E+02 -0.14421807581E+03  0.31958021262E+03  0.17233743035E+03 0.  0.
         24    2    3    3    0    0 -0.65972373423E+02  0.72814693135E+01 -0.18971396078E+01  0.10448829154E+03  0.80677320726E+02 0.  0.
         -6    2    1    2    0  502  0.22285564797E+03 -0.44360220634E+02  0.60994444971E+02  0.29152337604E+03  0.17214263694E+03 0.  0.
        -24    2    5    5    0    0  0.48000052285E+02 -0.43923808652E+02  0.13664914281E+02  0.11031398259E+03  0.88029193383E+02 0.  0.
          5    1    3    3  501    0 -0.15688327455E+03  0.37078751320E+02 -0.14232093620E+03  0.21509192108E+03  0.47000000000E+01 0. -1.
        -11    1    4    4    0    0 -0.62537709497E+02  0.19794921745E+01 -0.34383068092E+02  0.71393829354E+02  0.00000000000E+00 0.  1.
         12    1    4    4    0    0 -0.34346639263E+01  0.53019771391E+01  0.32485928484E+02  0.33094462185E+02  0.00000000000E+00 0. -1.
         -5    1    5    5    0  502  0.17485559568E+03 -0.43641198181E+00  0.47329530690E+02  0.18120939345E+03  0.47000000000E+01 0.  1.
         11    1    6    6    0    0 -0.15299917303E+02  0.26744744269E+01  0.26455621981E+02  0.30678008693E+02  0.00000000000E+00 0. -1.
        -12    1    6    6    0    0  0.63299969588E+02 -0.46598283079E+02 -0.12790707700E+02  0.79635973901E+02  0.00000000000E+00 0.  1.
</event>
<event>
12    1  0.8135779E-002  0.3672769E+03  0.7818608E-02  0.1055776E+00
         21   -1    0    0  501  502  0.00000000000E+00  0.00000000000E+00  0.27374002222E+03  0.27374002222E+03  0.00000000000E+00 0. -1.
         21   -1    0    0  502  503 -0.00000000000E+00 -0.00000000000E+00 -0.12000846681E+04  0.12000846681E+04  0.00000000000E+00 0.  1.
         -6    2    1    2    0  503 -0.31758787513E+03  0.67108308857E+02 -0.10292150818E+04  0.10927836090E+04  0.17183348874E+03 0.  0.
        -24    2    3    3    0    0 -0.22268025177E+03  0.96378515062E+02 -0.85243768029E+03  0.88996215637E+03  0.80668012918E+02 0.  0.
          6    2    1    2  501    0  0.31758787513E+03 -0.67108308857E+02  0.10287043595E+03  0.38104108133E+03  0.17100992814E+03 0.  0.
         24    2    5    5    0    0  0.11829634596E+03 -0.35426375291E+02  0.10349902009E+03  0.17919127670E+03  0.78411816397E+02 0.  0.
          5    1    5    5  501    0  0.19929152917E+03 -0.31681933566E+02 -0.62858414009E+00  0.20184980463E+03  0.47000000000E+01 0. -1.
        -13    1    6    6    0    0  0.34133830713E+02  0.19664797212E+02  0.74145792668E+01  0.40084892843E+02  0.00000000000E+00 0.  1.
         14    1    6    6    0    0  0.84162515250E+02 -0.55091172503E+02  0.96084440822E+02  0.13910638385E+03  0.00000000000E+00 0. -1.
         -5    1    3    3    0  503 -0.94907623365E+02 -0.29270206205E+02 -0.17677740155E+03  0.20282145262E+03  0.47000000000E+01 0.  1.
         11    1    4    4    0    0 -0.12207142519E+03  0.89196233052E+02 -0.58234174246E+03  0.60164716059E+03  0.00000000000E+00 0. -1.
        -12    1    4    4    0    0 -0.10060882658E+03  0.71822820098E+01 -0.27009593782E+03  0.28831499578E+03  0.00000000000E+00 0.  1.
</event>
<event>
12    1  0.8135779E-002  0.2286444E+03  0.7818608E-02  0.1127731E+00
         21   -1    0    0  501  502  0.00000000000E+00  0.00000000000E+00  0.12959971856E+04  0.12959971856E+04  0.00000000000E+00 0.  1.
         21   -1    0    0  502  503 -0.00000000000E+00 -0.00000000000E+00 -0.92004272432E+02  0.92004272432E+02  0.00000000000E+00 0.  1.
         -6    2    1    2    0  503 -0.13725290167E+03  0.61408207666E+02  0.80829009291E+02  0.24180102313E+03  0.17124566873E+03 0.  0.
        -24    2    3    3    0    0 -0.16488336647E+01  0.20400581538E+02  0.34415168521E+02  0.92648673923E+02  0.83549210503E+02 0.  0.
          6    2    1    2  501    0  0.13725290167E+03 -0.61408207666E+02  0.11231639039E+04  0.11462004349E+04  0.17224678518E+03 0.  0.
         24    2    5    5    0    0  0.13906610845E+03 -0.10184147139E+03  0.92966237194E+03  0.94845547442E+03  0.74730136743E+02 0.  0.
          5    1    5    5  501    0 -0.18132067761E+01  0.40433263720E+02  0.19350153197E+03  0.19774496052E+03  0.47000000000E+01 0. -1.
        -13    1    6    6    0    0  0.63442268170E+02 -0.34399828000E+02  0.57793157657E+03  0.58242010333E+03  0.00000000000E+00 0.  1.
         14    1    6    6    0    0  0.75623840276E+02 -0.67441643387E+02  0.35173079537E+03  0.36603537109E+03  0.00000000000E+00 0. -1.
         -5    1    3    3    0  503 -0.13560406801E+03  0.41007626128E+02  0.46413840770E+02  0.14915234921E+03  0.47000000000E+01 0.  1.
         11    1    4    4    0    0  0.40956837094E+01  0.13982773002E+02 -0.26974318558E+02  0.30657893397E+02  0.00000000000E+00 0. -1.
        -12    1    4    4    0    0 -0.57445173741E+01  0.64178085363E+01  0.61389487079E+02  0.61990780525E+02  0.00000000000E+00 0.  1.
</event>
<event>
12    1  0.8135779E-002  0.1749031E+03  0.7818608E-02  0.1172899E+00
         21   -1    0    0  501  502  0.00000000000E+00  0.00000000000E+00  0.81031123052E+02  0.81031123052E+02  0.00000000000E+00 0. -1.
         21   -1    0    0  502  503 -0.00000000000E+00 -0.00000000000E+00 -0.38155524103E+03  0.38155524103E+03  0.00000000000E+00 0. -1.
         -6    2    1    2    0  503 -0.26193164228E+02 -0.14586112712E+02 -0.17562120146E+03  0.24766352647E+03  0.17203365776E+03 0.  0.
        -24    2    3    3    0    0  0.25198629128E+02 -0.38575116978E+02 -0.16646902755E+03  0.19002290678E+03  0.79207054036E+02 0.  0.
          6    2    1    2  501    0  0.26193164228E+02  0.14586112712E+02 -0.12490291652E+03  0.21492283762E+03  0.17231439591E+03 0.  0.
         24    2    5    5    0    0  0.81182825134E+02  0.30262092453E+02 -0.82008797090E+02  0.14328768822E+03  0.79369222369E+02 0.  0.
          5    1    5    5  501    0 -0.54989660907E+02 -0.15675979740E+02 -0.42894119427E+02  0.71635149395E+02  0.47000000000E+01 0. -1.
        -11    1    6    6    0    0 -0.89534300067E+01 -0.17220405697E+01  0.78674032119E+01  0.12042647795E+02  0.00000000000E+00 0.  1.
         12    1    6    6    0    0  0.90136255141E+02  0.31984133022E+02 -0.89876200301E+02  0.13124504043E+03  0.00000000000E+00 0. -1.
         -5    1    3    3    0  503 -0.51391793356E+02  0.23989004266E+02 -0.91521739104E+01  0.57640619681E+02  0.47000000000E+01 0.  1.
         11    1    4    4    0    0  0.82842003055E+01 -0.28184020580E+02 -0.16758506031E+03  0.17014029338E+03  0.00000000000E+00 0. -1.
        -12    1    4    4    0    0  0.16914428822E+02 -0.10391096398E+02  0.11160327611E+01  0.19882613406E+02  0.00000000000E+00 0.  1.
</event>
<event>
12    1  0.8135779E-002  0.3887027E+03  0.7818608E-02  0.1047894E+00
         21   -1    0    0  501  502  0.00000000000E+00  0.00000000000E+00  0.35527707533E+03  0.35527707533E+03  0.00000000000E+00 0. -1.
         21   -1    0    0  502  503 -0.00000000000E+00 -0.00000000000E+00 -0.73190996835E+03  0.73190996835E+03  0.00000000000E+00 0. -1.
         -6    2    1    2    0  503 -0.30020851960E+03  0.17353550575E+03 -0.54127992783E+03  0.66638857373E+03  0.17564180579E+03 0.  0.
        -24    2    3    3    0    0 -0.24354378165E+03  0.64362769487E+02 -0.39644725997E+03  0.47631445517E+03  0.79049924670E+02 0.  0.
          6    2    1    2  501    0  0.30020851960E+03 -0.17353550575E+03  0.16464703480E+03  0.42079846994E+03  0.17240353604E+03 0.  0.
         24    2    5    5    0    0  0.22401543625E+03 -0.86025475563E+02  0.49805134464E+02  0.25747626261E+03  0.78931465620E+02 0.  0.
          5    1    5    5  501    0  0.76193083352E+02 -0.87510030184E+02  0.11484190034E+03  0.16332220733E+03  0.47000000000E+01 0. -1.
        -13    1    6    6    0    0  0.22933469772E+00 -0.74021070669E+01 -0.10392231682E+02  0.12760966373E+02  0.00000000000E+00 0.  1.
         14    1    6    6    0    0  0.22378610155E+03 -0.78623368496E+02  0.60197366146E+02  0.24471529624E+03  0.00000000000E+00 0. -1.
         -5    1    3    3    0  503 -0.56664737952E+02  0.10917273626E+03 -0.14483266785E+03  0.19007411856E+03  0.47000000000E+01 0.  1.
         13    1    4    4    0    0 -0.16526225214E+02  0.22451424655E+02 -0.18559324392E+02  0.33490761573E+02  0.00000000000E+00 0. -1.
        -14    1    4    4    0    0 -0.22701755644E+03  0.41911344832E+02 -0.37788793558E+03  0.44282369360E+03  0.00000000000E+00 0.  1.
</event>
<event>
12    1  0.8135779E-002  0.2146951E+03  0.7818608E-02  0.1138977E+00
         21   -1    0    0  501  502  0.00000000000E+00  0.00000000000E+00  0.13967346607E+03  0.13967346607E+03  0.00000000000E+00 0. -1.
         21   -1    0    0  502  503 -0.00000000000E+00 -0.00000000000E+00 -0.77234353607E+03  0.77234353607E+03  0.00000000000E+00 0.  1.
         -6    2    1    2    0  503 -0.61251402077E+02  0.11295284923E+03 -0.66297720610E+03  0.69519333735E+03  0.16506035284E+03 0.  0.
        -24    2    3    3    0    0 -0.76467603117E+01  0.34338692472E+02 -0.15082973762E+03  0.17426074791E+03  0.79872271593E+02 0.  0.
          6    2    1    2  501    0  0.61251402077E+02 -0.11295284923E+03  0.30307136100E+02  0.21682366478E+03  0.17199970554E+03 0.  0.
         24    2    5    5    0    0  0.17311299073E+02 -0.14975731437E+02 -0.35916838671E+02  0.90578058534E+02  0.79940051164E+02 0.  0.
          5    1    5    5  501    0  0.43940103004E+02 -0.97977117791E+02  0.66223974772E+02  0.12624560625E+03  0.47000000000E+01 0. -1.
        -11    1    6    6    0    0 -0.24954110942E+02 -0.27619110071E+02 -0.71261429998E+01  0.37898612218E+02  0.00000000000E+00 0.  1.
         12    1    6    6    0    0  0.42265410015E+02  0.12643378634E+02 -0.28790695672E+02  0.52679446317E+02  0.00000000000E+00 0. -1.
         -5    1    3    3    0  503 -0.53604641765E+02  0.78614156756E+02 -0.51214746848E+03  0.52093258944E+03  0.47000000000E+01 0.  1.
         11    1    4    4    0    0 -0.29637808300E+02 -0.80922040557E+01 -0.24830190458E+02  0.39502174693E+02  0.00000000000E+00 0. -1.
        -12    1    4    4    0    0  0.21991047989E+02  0.42430896528E+02 -0.12599954716E+03  0.13475857322E+03  0.00000000000E+00 0.  1.
</event>
<event>
12    1  0.8135779E-002  0.1985559E+03  0.7818608E-02  0.1151094E+00
         21   -1    0    0  503  502  0.00000000000E+00  0.00000000000E+00  0.10763903657E+04  0.10763903657E+04  0.00000000000E+00 0. -1.
         21   -1    0    0  501  503 -0.00000000000E+00 -0.00000000000E+00 -0.44758877089E+02  0.44758877089E+02  0.00000000000E+00 0. -1.
          6    2    1    2  501    0 -0.81927645764E+02  0.36696095233E+02  0.27456801459E+03  0.33848100943E+03  0.17641727967E+03 0.  0.
         24    2    3    3    0    0 -0.13549828143E+02 -0.28536448427E+02  0.20040470490E+03  0.21825997468E+03  0.80482569951E+02 0.  0.
         -6    2    1    2    0  502  0.81927645764E+02 -0.36696095233E+02  0.75706347403E+03  0.78266823337E+03  0.17710369070E+03 0.  0.
        -24    2    5    5    0    0  0.24019458722E+02 -0.58990059865E+02  0.23375392726E+03  0.25567169569E+03  0.81672246839E+02 0.  0.
          5    1    3    3  501    0 -0.68377817621E+02  0.65232543660E+02  0.74163309682E+02  0.12022103476E+03  0.47000000000E+01 0. -1.
        -11    1    4    4    0    0 -0.17168272085E+02 -0.14521171058E+02  0.20240268857E+03  0.20364788807E+03  0.00000000000E+00 0.  1.
         12    1    4    4    0    0  0.36184439420E+01 -0.14015277368E+02 -0.19979836639E+01  0.14612086606E+02  0.00000000000E+00 0. -1.
         -5    1    5    5    0  502  0.57908187043E+02  0.22293964632E+02  0.52330954677E+03  0.52699653768E+03  0.47000000000E+01 0.  1.
         13    1    6    6    0    0  0.32226087399E+02 -0.45098405496E+00  0.14832303199E+03  0.15178420838E+03  0.00000000000E+00 0. -1.
        -14    1    6    6    0    0 -0.82066286778E+01 -0.58539075810E+02  0.85430895274E+02  0.10388748730E+03  0.00000000000E+00 0.  1.
</event>
<event>
12    1  0.8135779E-002  0.1875554E+03  0.7818608E-02  0.1160766E+00
         21   -1    0    0  501  502  0.00000000000E+00  0.00000000000E+00  0.16042614383E+03  0.16042614383E+03  0.00000000000E+00 0.  1.
         21   -1    0    0  502  503 -0.00000000000E+00 -0.00000000000E+00 -0.25911085172E+03  0.25911085172E+03  0.00000000000E+00 0.  1.
         -6    2    1    2    0  503 -0.71591531359E+02 -0.10040026177E+01 -0.13197934861E+03  0.22904933803E+03  0.17297021537E+03 0.  0.
        -24    2    3    3    0    0 -0.29210562903E+02  0.60576643748E+02 -0.10946578097E+03  0.15083633897E+03  0.79032001090E+02 0.  0.
          6    2    1    2  501    0  0.71591531359E+02  0.10040026177E+01  0.33294640720E+02  0.19048765752E+03  0.17335125954E+03 0.  0.
         24    2    5    5    0    0  0.10177892358E+03  0.33790821661E+02  0.48532981811E+02  0.14315319660E+03  0.81465443334E+02 0.  0.
          5    1    5    5  501    0 -0.30187392224E+02 -0.32786819044E+02 -0.15238341091E+02  0.47334460930E+02  0.47000000000E+01 0. -1.
        -11    1    6    6    0    0  0.51246201909E+02  0.40780293433E+02  0.62219476513E+02  0.90335313140E+02  0.00000000000E+00 0.  1.
         12    1    6    6    0    0  0.50532721674E+02 -0.69894717719E+01 -0.13686494702E+02  0.52817883455E+02  0.00000000000E+00 0. -1.
         -5    1    3    3    0  503 -0.42380968456E+02 -0.61580646365E+02 -0.22513567640E+02  0.78212999060E+02  0.47000000000E+01 0.  1.
         13    1    4    4    0    0  0.15835723669E+02 -0.14743892287E+01  0.14786842986E+01  0.15972804230E+02  0.00000000000E+00 0. -1.
        -14    1    4    4    0    0 -0.45046286572E+02  0.62051032976E+02 -0.11094446527E+03  0.13486353474E+03  0.00000000000E+00 0.  1.
</event>
<event>
12    1  0.8135779E-002  0.3432230E+03  0.7818608E-02  0.1065530E+00
         21   -1    0    0  501  502  0.00000000000E+00  0.00000000000E+00  0.82779143775E+03  0.82779143775E+03  0.00000000000E+00 0.  1.
         21   -1    0    0  502  503 -0.00000000000E+00 -0.00000000000E+00 -0.14527698655E+03  0.14527698655E+03  0.00000000000E+00 0. -1.
         -6    2    1    2    0  503  0.28703937996E+03  0.75010511531E+02  0.26777994820E+03  0.43532534705E+03  0.17258005284E+03 0.  0.
        -24    2    3    3    0    0  0.15492054573E+03 -0.74758009798E+01  0.83382291942E+02  0.19390462768E+03  0.81179646069E+02 0.  0.
          6    2    1    2  501    0 -0.28703937996E+03 -0.75010511531E+02  0.41473450301E+03  0.53774307724E+03  0.17071826689E+03 0.  0.
         24    2    5    5    0    0 -0.20548353166E+03 -0.60534438973E+02  0.38832827546E+03  0.45067820532E+03  0.80150453163E+02 0.  0.
          5    1    5    5  501    0 -0.81555848308E+02 -0.14476072557E+02  0.26406227541E+02  0.87064871923E+02  0.47000000000E+01 0. -1.
        -11    1    6    6    0    0 -0.12472793036E+03  0.21823649051E+01  0.24058571689E+03  0.27100425550E+03  0.00000000000E+00 0.  1.
         12    1    6    6    0    0 -0.80755601293E+02 -0.62716803879E+02  0.14774255857E+03  0.17967394982E+03  0.00000000000E+00 0. -1.
         -5    1    3    3    0  503  0.13211883424E+03  0.82486312511E+02  0.18439765626E+03  0.24142071938E+03  0.47000000000E+01 0.  1.
         13    1    4    4    0    0  0.15926335382E+02  0.25774412882E+02  0.43994182538E+01  0.30615737768E+02  0.00000000000E+00 0. -1.
        -14    1    4    4    0    0  0.13899421034E+03 -0.33250213861E+02  0.78982873688E+02  0.16328888991E+03  0.00000000000E+00 0.  1.
</event>
<event>
12    1  0.8135779E-002  0.2679881E+03  0.7818608E-02  0.1103951E+00
         21   -1    0    0  501  502  0.00000000000E+00  0.00000000000E+00  0.29586035014E+03  0.29586035014E+03  0.00000000000E+00 0. -1.
         21   -1    0    0  502  503 -0.00000000000E+00 -0.00000000000E+00 -0.27466055020E+03  0.27466055020E+03  0.00000000000E+00 0. -1.
         -6    2    1    2    0  503  0.18911610710E+02  0.20688024022E+03 -0.99946240250E+02  0.27642230061E+03  0.15252198046E+03 0.  0.
        -24    2    3    3    0    0 -0.42071535817E+02  0.12257612878E+03 -0.71780675719E+02  0.16852644160E+03  0.80335388470E+02 0.  0.
          6    2    1    2  501    0 -0.18911610710E+02 -0.20688024022E+03  0.12114604019E+03  0.29409859972E+03  0.16929424235E+03 0.  0.
         24    2    5    5    0    0  0.72497818916E+01 -0.58575952800E+02  0.10286162464E+03  0.14232577613E+03  0.78691874700E+02 0.  0.
          5    1    5    5  501    0 -0.26161392602E+02 -0.14830428742E+03  0.18284415549E+02  0.15177282359E+03  0.47000000000E+01 0. -1.
        -13    1    6    6    0    0  0.18342892508E+02  0.13706043188E+02  0.39062159235E+02  0.45278798676E+02  0.00000000000E+00 0.  1.
         14    1    6    6    0    0 -0.11093110616E+02 -0.72281995988E+02  0.63799465406E+02  0.97046977456E+02  0.00000000000E+00 0. -1.
         -5    1    3    3    0  503  0.60983146527E+02  0.84304111440E+02 -0.28165564531E+02  0.10789585901E+03  0.47000000000E+01 0.  1.
         13    1    4    4    0    0  0.39197016260E+01 -0.96310557916E+01 -0.13151981521E+02  0.16765915258E+02  0.00000000000E+00 0. -1.
        -14    1    4    4    0    0 -0.45991237443E+02  0.13220718457E+03 -0.58628694198E+02  0.15176052635E+03  0.00000000000E+00 0.  1.
</event>
<event>
12    1  0.8135779E-002  0.2192211E+03  0.7818608E-02  0.1136124E+00
         21   -1    0    0  503  502  0.00000000000E+00  0.00000000000E+00  0.27864150506E+03  0.27864150506E+03  0.00000000000E+00 0. -1.
         21   -1    0    0  501  503 -0.00000000000E+00 -0.00000000000E+00 -0.17578185198E+03  0.17578185198E+03  0.00000000000E+00 0.  1.
          6    2    1    2  501    0  0.48874346417E+02  0.12633578112E+03 -0.19429743703E+01  0.21922974586E+03  0.17236146608E+03 0.  0.
         24    2    3    3    0    0 -0.27070646590E+02  0.29056120164E+02  0.16798051794E+02  0.94312611484E+02  0.83878579596E+02 0.  0.
         -6    2    1    2    0  502 -0.48874346417E+02 -0.12633578112E+03  0.10480262745E+03  0.23519361119E+03  0.16119247097E+03 0.  0.
        -24    2    5    5    0    0 -0.74642758599E+02 -0.14279981390E+03  0.97776540450E+02  0.20346773310E+03  0.76652059926E+02 0.  0.
          5    1    3    3  501    0  0.75944993008E+02  0.97279660952E+02 -0.18741026165E+02  0.12491713437E+03  0.47000000000E+01 0. -1.
        -11    1    4    4    0    0  0.22678085871E+02  0.32528042548E+02 -0.48467360905E+01  0.39948216250E+02  0.00000000000E+00 0.  1.
         12    1    4    4    0    0 -0.49748732462E+02 -0.34719223845E+01  0.21644787885E+02  0.54364395234E+02  0.00000000000E+00 0. -1.
         -5    1    5    5    0  502  0.25768412182E+02  0.16464032786E+02  0.70260870015E+01  0.31725878089E+02  0.47000000000E+01 0.  1.
         11    1    6    6    0    0 -0.32913261133E+02 -0.81007230527E+01  0.36209290668E+02  0.49598560494E+02  0.00000000000E+00 0. -1.
        -12    1    6    6    0    0 -0.41729497466E+02 -0.13469909085E+03  0.61567249782E+02  0.15386917261E+03  0.00000000000E+00 0.  1.
</event>
<event>
12    1  0.8135779E-002  0.2243631E+03  0.7818608E-02  0.1130699E+00
         21   -1    0    0  503  502  0.00000000000E+00  0.00000000000E+00  0.33079020264E+03  0.33079020264E+03  0.00000000000E+00 0.  1.
         21   -1    0    0  501  503 -0.00000000000E+00 -0.00000000000E+00 -0.21832163424E+03  0.21832163424E+03  0.00000000000E+00 0. -1.
          6    2    1    2  501    0 -0.14345799833E+03 -0.50088138750E+01 -0.95020325702E+02  0.24351335257E+03  0.17223415771E+03 0.  0.
         24    2    3    3    0    0 -0.10579026803E+03 -0.16809790988E+02 -0.13218203961E+03  0.18909640716E+03  0.82530053465E+02 0.  0.
         -6    2    1    2    0  502  0.14345799833E+03  0.50088138750E+01  0.20748889411E+03  0.30559848431E+03  0.17243406548E+03 0.  0.
        -24    2    5    5    0    0  0.17020975161E+03 -0.50354335026E+01  0.14648643560E+03  0.23807120721E+03  0.78885415359E+02 0.  0.
          5    1    3    3  501    0 -0.37667730302E+02  0.11800977113E+02  0.37161713903E+02  0.54416945404E+02  0.47000000000E+01 0. -1.
        -11    1    4    4    0    0 -0.70300116565E+02 -0.50274077917E+02 -0.85945567077E+02  0.12188613457E+03  0.00000000000E+00 0.  1.
         12    1    4    4    0    0 -0.35490151462E+02  0.33464286928E+02 -0.46236472528E+02  0.67210272595E+02  0.00000000000E+00 0. -1.
         -5    1    5    5    0  502 -0.26751753278E+02  0.10044247378E+02  0.61002458508E+02  0.67527277103E+02  0.47000000000E+01 0.  1.
         13    1    6    6    0    0  0.38906628565E+02 -0.25782259463E+02  0.10370315425E+02  0.47812070561E+02  0.00000000000E+00 0. -1.
        -14    1    6    6    0    0  0.13130312304E+03  0.20746825961E+02  0.13611612017E+03  0.19025913665E+03  0.00000000000E+00 0.  1.
</event>
<event>
12    1  0.8135779E-002  0.2142963E+03  0.7818608E-02  0.1138363E+00
         21   -1    0    0  503  502  0.00000000000E+00  0.00000000000E+00  0.32826649172E+03  0.32826649172E+03  0.00000000000E+00 0. -1.
         21   -1    0    0  501  503 -0.00000000000E+00 -0.00000000000E+00 -0.18275641938E+03  0.18275641938E+03  0.00000000000E+00 0.  1.
          6    2    1    2  501    0 -0.12080900059E+03 -0.38700410374E+02 -0.51841379297E+02  0.21969748377E+03  0.17171755699E+03 0.  0.
         24    2    3    3    0    0 -0.13560142840E+03 -0.66371286522E+01 -0.76823052830E+02  0.17618835865E+03  0.81907004691E+02 0.  0.
         -6    2    1    2    0  502  0.12080900059E+03  0.38700410374E+02  0.19735145163E+03  0.29132542734E+03  0.17271471496E+03 0.  0.
        -24    2    5    5    0    0  0.10428228725E+03  0.76842120687E+02  0.19769755181E+03  0.24949084709E+03  0.79886506006E+02 0.  0.
          5    1    3    3  501    0  0.14792427816E+02 -0.32063281722E+02  0.24981673533E+02  0.43509125112E+02  0.47000000000E+01 0. -1.
        -11    1    4    4    0    0 -0.41740198951E+02 -0.35015617263E+02 -0.51369839062E+02  0.74881226126E+02  0.00000000000E+00 0.  1.
         12    1    4    4    0    0 -0.93861229453E+02  0.28378488611E+02 -0.25453213768E+02  0.10130713253E+03  0.00000000000E+00 0. -1.
         -5    1    5    5    0  502  0.16526713337E+02 -0.38141710312E+02 -0.34610017998E+00  0.41834580249E+02  0.47000000000E+01 0.  1.
         13    1    6    6    0    0  0.35455605730E+02  0.73294104063E+02  0.12620125736E+03  0.15018616124E+03  0.00000000000E+00 0. -1.
        -14    1    6    6    0    0  0.68826681521E+02  0.35480166231E+01  0.71496294450E+02  0.99304685848E+02  0.00000000000E+00 0.  1.
</event>
<event>
12    1  0.8135779E-002  0.1723460E+03  0.7818608E-02  0.1175532E+00
         21   -1    0    0  501  502  0.00000000000E+00  0.00000000000E+00  0.22241389108E+02  0.22241389108E+02  0.00000000000E+00 0.  1.
         21   -1    0    0  502  503 -0.00000000000E+00 -0.00000000000E+00 -0.13777389578E+04  0.13777389578E+04  0.00000000000E+00 0.  1.
         -6    2    1    2    0  503 -0.77907819827E+01  0.76693947576E+01 -0.80581997606E+03  0.82404428219E+03  0.17199892234E+03 0.  0.
        -24    2    3    3    0    0  0.38470756595E+02  0.50279035845E+02 -0.60292649833E+03  0.61157413188E+03  0.80588931253E+02 0.  0.
          6    2    1    2  501    0  0.77907819827E+01 -0.76693947576E+01 -0.54967759260E+03  0.57593606469E+03  0.17157324647E+03 0.  0.
         24    2    5    5    0    0  0.61672638677E+02  0.26131969580E+02 -0.40650091967E+03  0.41919603667E+03  0.77433360203E+02 0.  0.
          5    1    5    5  501    0 -0.53881856694E+02 -0.33801364338E+02 -0.14317667293E+03  0.15674002802E+03  0.47000000000E+01 0. -1.
        -13    1    6    6    0    0  0.67807828268E+01  0.23359360019E+02 -0.28268448122E+03  0.28372901621E+03  0.00000000000E+00 0.  1.
         14    1    6    6    0    0  0.54891855850E+02  0.27726095609E+01 -0.12381643845E+03  0.13546702047E+03  0.00000000000E+00 0. -1.
         -5    1    3    3    0  503 -0.46261538578E+02 -0.42609641087E+02 -0.20289347773E+03  0.21247015031E+03  0.47000000000E+01 0.  1.
         13    1    4    4    0    0  0.12089573021E+02  0.52026416535E+02 -0.17837752016E+03  0.18620270001E+03  0.00000000000E+00 0. -1.
        -14    1    4    4    0    0  0.26381183575E+02 -0.17473806900E+01 -0.42454897817E+03  0.42537143187E+03  0.00000000000E+00 0.  1.
</event>
<event>
12    1  0.8135779E-002  0.2685816E+03  0.7818608E-02  0.1102267E+00
         21   -1    0    0  501  502  0.00000000000E+00  0.00000000000E+00  0.50740302643E+03  0.50740302643E+03  0.00000000000E+00 0. -1.
         21   -1    0    0  502  503 -0.00000000000E+00 -0.00000000000E+00 -0.24764382290E+03  0.24764382290E+03  0.00000000000E+00 0.  1.
         -6    2    1    2    0  503  0.11222676743E+03 -0.17264976179E+03 -0.11707530485E+03  0.29298927161E+03  0.17243346165E+03 0.  0.
        -24    2    3    3    0    0  0.86726766778E+02 -0.10337412197E+03 -0.39461928920E+01  0.15782400137E+03  0.81762471837E+02 0.  0.
          6    2    1    2  501    0 -0.11222676743E+03  0.17264976179E+03  0.37683450838E+03  0.46205757773E+03  0.17055840893E+03 0.  0.
         24    2    5    5    0    0 -0.90227689016E+02  0.36492032291E+02  0.21846567322E+03  0.25199648018E+03  0.79386846274E+02 0.  0.
          5    1    5    5  501    0 -0.21999078418E+02  0.13615772950E+03  0.15836883515E+03  0.21006109754E+03  0.47000000000E+01 0. -1.
        -11    1    6    6    0    0 -0.15410487047E+02  0.22282837706E+02  0.81104517032E+01  0.28280512620E+02  0.00000000000E+00 0.  1.
         12    1    6    6    0    0 -0.74817201969E+02  0.14209194585E+02  0.21035522152E+03  0.22371596756E+03  0.00000000000E+00 0. -1.
         -5    1    3    3    0  503  0.25500000655E+02 -0.69275639822E+02 -0.11312911196E+03  0.13516527024E+03  0.47000000000E+01 0.  1.
         13    1    4    4    0    0 -0.89069385894E+01 -0.34863197471E+02  0.14405753478E+02  0.38759538519E+02  0.00000000000E+00 0. -1.
        -14    1    4    4    0    0  0.95633705368E+02 -0.68510924497E+02 -0.18351946370E+02  0.11906446285E+03  0.00000000000E+00 0.  1.
</event>
<event>
12    1  0.8135779E-002  0.1729615E+03  0.7818608E-02  0.1174976E+00
         21   -1    0    0  501  502  0.00000000000E+00  0.00000000000E+00  0.75414106253E+02  0.75414106253E+02  0.00000000000E+00 0.  1.
         21   -1    0    0  502  503 -0.00000000000E+00 -0.00000000000E+00 -0.40242550498E+03  0.40242550498E+03  0.00000000000E+00 0.  1.
         -6    2    1    2    0  503 -0.15746714595E+02 -0.22310104612E+01 -0.19617622796E+03  0.26153547256E+03  0.17222878553E+03 0.  0.
        -24    2    3    3    0    0 -0.12105242323E+02  0.52185106018E+02 -0.51126296468E+02  0.10650016472E+03  0.76541261504E+02 0.  0.
          6    2    1    2  501    0  0.15746714595E+02  0.22310104612E+01 -0.13083517077E+03  0.21630413868E+03  0.17151297930E+03 0.  0.
         24    2    5    5    0    0 -0.45666875255E+02  0.32321578501E+02 -0.10337860903E+03  0.14245954452E+03  0.80482526596E+02 0.  0.
          5    1    5    5  501    0  0.61413589850E+02 -0.30090568040E+02 -0.27456561742E+02  0.73844594155E+02  0.47000000000E+01 0. -1.
        -11    1    6    6    0    0  0.25229634841E+01  0.36062912992E+02 -0.10317189782E+02  0.37594460272E+02  0.00000000000E+00 0.  1.
         12    1    6    6    0    0 -0.48189838739E+02 -0.37413344907E+01 -0.93061419251E+02  0.10486508425E+03  0.00000000000E+00 0. -1.
         -5    1    3    3    0  503 -0.36414722725E+01 -0.54416116479E+02 -0.14504993149E+03  0.15503530784E+03  0.47000000000E+01 0.  1.
         11    1    4    4    0    0 -0.25878120748E+02 -0.11255398453E+02 -0.19392326321E+02  0.34240669502E+02  0.00000000000E+00 0. -1.
        -12    1    4    4    0    0  0.13772878425E+02  0.63440504471E+02 -0.31733970147E+02  0.72259495216E+02  0.00000000000E+00 0.  1.
</event>
<event>
12    1  0.8135779E-002  0.3059953E+03  0.7818608E-02  0.1082605E+00
         21   -1    0    0  503  502  0.00000000000E+00  0.00000000000E+00  0.16320647688E+03  0.16320647688E+03  0.00000000000E+00 0. -1.
         21   -1    0    0  501  503 -0.00000000000E+00 -0.00000000000E+00 -0.97420481215E+03  0.97420481215E+03  0.00000000000E+00 0.  1.
          6    2    1    2  501    0 -0.25170604601E+03  0.19393721761E+02 -0.77135156874E+03  0.82885823548E+03  0.16819834090E+03 0.  0.
         24    2    3    3    0    0 -0.16272744799E+03  0.75100270689E+01 -0.66662780948E+03  0.69084530544E+03  0.79611411473E+02 0.  0.
         -6    2    1    2    0  502  0.25170604601E+03 -0.19393721761E+02 -0.39646766536E+02  0.30855305355E+03  0.17291926069E+03 0.  0.
        -24    2    5    5    0    0  0.32586948582E+02 -0.38666912731E+01 -0.17993949954E+02  0.87769897493E+02  0.79390882044E+02 0.  0.
          5    1    3    3  501    0 -0.88978598018E+02  0.11883694692E+02 -0.10472375926E+03  0.13801293004E+03  0.47000000000E+01 0. -1.
        -13    1    4    4    0    0 -0.98161568118E+02  0.29303887892E+02 -0.27770045076E+03  0.29599316150E+03  0.00000000000E+00 0.  1.
         14    1    4    4    0    0 -0.64565879875E+02 -0.21793860823E+02 -0.38892735872E+03  0.39485214394E+03  0.00000000000E+00 0. -1.
         -5    1    5    5    0  502  0.21911909743E+03 -0.15527030488E+02 -0.21652816582E+02  0.22078315606E+03  0.47000000000E+01 0.  1.
         13    1    6    6    0    0  0.13188628588E+01 -0.20888729646E+02  0.24572358510E+02  0.32278154040E+02  0.00000000000E+00 0. -1.
        -14    1    6    6    0    0  0.31268085723E+02  0.17022038373E+02 -0.42566308464E+02  0.55491743453E+02  0.00000000000E+00 0.  1.
</event>
<event>
12    1  0.8135779E-002  0.2192215E+03  0.7818608E-02  0.1134473E+00
         21   -1    0    0  503  502  0.00000000000E+00  0.00000000000E+00  0.39829619835E+03  0.39829619835E+03  0.00000000000E+00 0.  1.
         21   -1    0    0  501  503 -0.00000000000E+00 -0.00000000000E+00 -0.15520415596E+03  0.15520415596E+03  0.00000000000E+00 0. -1.
          6    2    1    2  501    0  0.41228633853E+02  0.12950371722E+03 -0.90777745208E+01  0.21936314841E+03  0.17194991093E+03 0.  0.
         24    2    3    3    0    0  0.53739422144E+01 -0.47786516059E+01 -0.12874964170E+02  0.80245133260E+02  0.78878399726E+02 0.  0.
         -6    2    1    2    0  502 -0.41228633853E+02 -0.12950371722E+03  0.25216981691E+03  0.33413720589E+03  0.17200884506E+03 0.  0.
        -24    2    5    5    0    0  0.42501496630E+02 -0.76397224042E+02  0.15922838531E+03  0.19815472880E+03  0.79175152675E+02 0.  0.
          5    1    3    3  501    0  0.35854691639E+02  0.13428236883E+03  0.37971896490E+01  0.13911801515E+03  0.47000000000E+01 0. -1.
        -13    1    4    4    0    0 -0.32884678417E+02 -0.16362968234E+02 -0.16176358270E+02  0.40135064108E+02  0.00000000000E+00 0.  1.
         14    1    4    4    0    0  0.38258620632E+02  0.11584316628E+02  0.33013941005E+01  0.40110069152E+02  0.00000000000E+00 0. -1.
         -5    1    5    5    0  502 -0.83730130483E+02 -0.53106493181E+02  0.92941431597E+02  0.13598247709E+03  0.47000000000E+01 0.  1.
         13    1    6    6    0    0  0.27162701235E+02 -0.51715748505E+02  0.29940286271E+02  0.65641082591E+02  0.00000000000E+00 0. -1.
        -14    1    6    6    0    0  0.15338795395E+02 -0.24681475538E+02  0.12928809904E+03  0.13251364621E+03  0.00000000000E+00 0.  1.
</event>
<event>
12    1  0.8135779E-002  0.1780700E+03  0.7818608E-02  0.1170036E+00
         21   -1    0    0  503  502  0.00000000000E+00  0.00000000000E+00  0.25771102126E+03  0.25771102126E+03  0.00000000000E+00 0. -1.
         21   -1    0    0  501  503 -0.00000000000E+00 -0.00000000000E+00 -0.15836541065E+03  0.15836541065E+03  0.00000000000E+00 0. -1.
          6    2    1    2  501    0 -0.36261639406E+02 -0.24726157994E+02 -0.49786958306E+02  0.18489902815E+03  0.17257641789E+03 0.  0.
         24    2    3    3    0    0 -0.62466897177E+02  0.36201102082E+02 -0.10929909780E+02  0.10788729673E+03  0.79420229372E+02 0.  0.
         -6    2    1    2    0  502  0.36261639406E+02  0.24726157994E+02  0.14913256891E+03  0.23117740376E+03  0.17110283317E+03 0.  0.
        -24    2    5    5    0    0 -0.40523278281E+02 -0.76702451729E+00  0.11025262325E+03  0.14129099704E+03  0.78516116198E+02 0.  0.
          5    1    3    3  501    0  0.26205257771E+02 -0.60927260076E+02 -0.38857048526E+02  0.77011731414E+02  0.47000000000E+01 0. -1.
        -11    1    4    4    0    0 -0.52725625626E+02  0.31135419995E+01 -0.37138901365E+02  0.64567667884E+02  0.00000000000E+00 0.  1.
         12    1    4    4    0    0 -0.97412715507E+01  0.33087560083E+02  0.26208991585E+02  0.43319628848E+02  0.00000000000E+00 0. -1.
         -5    1    5    5    0  502  0.76784917687E+02  0.25493182511E+02  0.38879945659E+02  0.89886406720E+02  0.47000000000E+01 0.  1.
         11    1    6    6    0    0 -0.68578412283E+01 -0.10184012590E+02  0.10526578873E+03  0.10597938656E+03  0.00000000000E+00 0. -1.
        -12    1    6    6    0    0 -0.33665437052E+02  0.94169880726E+01  0.49868345183E+01  0.35311610482E+02  0.00000000000E+00 0.  1.
</event>
<event>
12    1  0.8135779E-002  0.2003503E+03  0.7818608E-02  0.1149856E+00
         21   -1    0    0  501  502  0.00000000000E+00  0.00000000000E+00  0.99377012577E+02  0.99377012577E+02  0.00000000000E+00 0. -1.
         21   -1    0    0  502  503 -0.00000000000E+00 -0.00000000000E+00 -0.13108763867E+04  0.13108763867E+04  0.00000000000E+00 0. -1.
         -6    2    1    2    0  503 -0.98727849047E+02  0.22358910816E+01 -0.11926259883E+04  0.12090161210E+04  0.17207860260E+03 0.  0.
        -24    2    3    3    0    0 -0.13785537597E+02 -0.36896433554E+02 -0.82018310775E+03  0.82498184599E+03  0.79645013147E+02 0.  0.
          6    2    1    2  501    0  0.98727849047E+02 -0.22358910816E+01 -0.18873385901E+02  0.20123727836E+03  0.17432168574E+03 0.  0.
         24    2    5    5    0    0  0.85839009805E+02  0.27633781390E+02 -0.72308811416E+02  0.13850168870E+03  0.76303290132E+02 0.  0.
          5    1    5    5  501    0  0.12888839242E+02 -0.29869672472E+02  0.53435425515E+02  0.62735589664E+02  0.47000000000E+01 0. -1.
        -13    1    6    6    0    0  0.21741327430E+02  0.42797550215E+02 -0.49096517182E+02  0.68664281997E+02  0.00000000000E+00 0.  1.
         14    1    6    6    0    0  0.64097682375E+02 -0.15163768824E+02 -0.23212294234E+02  0.69837406699E+02  0.00000000000E+00 0. -1.
         -5    1    3    3    0  503 -0.84942311450E+02  0.39132324636E+02 -0.37244288051E+03  0.38403427497E+03  0.47000000000E+01 0.  1.
         11    1    4    4    0    0 -0.37735999977E+02  0.61430814014E+01 -0.28853841248E+03  0.29106040373E+03  0.00000000000E+00 0. -1.
        -12    1    4    4    0    0  0.23950462380E+02 -0.43039514956E+02 -0.53164469528E+03  0.53392144226E+03  0.00000000000E+00 0.  1.
</event>
<event>
12    1  0.8135779E-002  0.1967274E+03  0.7818608E-02  0.1152708E+00
         21   -1    0    0  501  502  0.00000000000E+00  0.00000000000E+00  0.81424783974E+03  0.81424783974E+03  0.00000000000E+00 0.  1.
         21   -1    0    0  502  503 -0.00000000000E+00 -0.00000000000E+00 -0.59086401850E+02  0.59086401850E+02  0.00000000000E+00 0.  1.
         -6    2    1    2    0  503  0.80020038797E+02 -0.52154391140E+02  0.18344897306E+03  0.26898924559E+03  0.17198372424E+03 0.  0.
        -24    2    3    3    0    0  0.57980586235E+02 -0.70675347667E+02  0.20044198667E+03  0.23523104938E+03  0.82461526940E+02 0.  0.
          6    2    1    2  501    0 -0.80020038797E+02  0.52154391140E+02  0.57171246483E+03  0.60434499600E+03  0.17103930724E+03 0.  0.
         24    2    5    5    0    0 -0.42568751254E+02  0.99791262970E+02  0.38784292989E+03  0.41069075160E+03  0.80463410513E+02 0.  0.
          5    1    5    5  501    0 -0.37451287543E+02 -0.47636871831E+02  0.18386953494E+03  0.19365424440E+03  0.47000000000E+01 0. -1.
        -13    1    6    6    0    0 -0.65272376059E+02  0.65860630391E+02  0.29596846773E+03  0.31015389665E+03  0.00000000000E+00 0.  1.
         14    1    6    6    0    0  0.22703624805E+02  0.33930632579E+02  0.91874462158E+02  0.10053685495E+03  0.00000000000E+00 0. -1.
         -5    1    3    3    0  503  0.22039452561E+02  0.18520956527E+02 -0.16993013608E+02  0.33758196210E+02  0.47000000000E+01 0.  1.
         13    1    4    4    0    0  0.78830596462E+02 -0.50017563457E+02  0.16027036624E+03  0.18547940556E+03  0.00000000000E+00 0. -1.
        -14    1    4    4    0    0 -0.20850010227E+02 -0.20657784210E+02  0.40171620429E+02  0.49751643820E+02  0.00000000000E+00 0.  1.
</event>
<event>
12    1  0.8135779E-002  0.1742409E+03  0.7818608E-02  0.1173552E+00
         21   -1    0    0  503  502  0.00000000000E+00  0.00000000000E+00  0.17586214753E+04  0.17586214753E+04  0.00000000000E+00 0.  1.
         21   -1    0    0  501  503 -0.00000000000E+00 -0.00000000000E+00 -0.17453347124E+02  0.17453347124E+02  0.00000000000E+00 0.  1.
          6    2    1    2  501    0  0.15041326317E+02  0.24802383506E+02  0.77333111850E+03  0.79271742987E+03  0.17180950220E+03 0.  0.
         24    2    3    3    0    0 -0.24427168702E+02  0.44213441875E+02  0.24552953665E+03  0.26306551484E+03  0.79794716098E+02 0.  0.
         -6    2    1    2    0  502 -0.15041326317E+02 -0.24802383506E+02  0.96783700969E+03  0.98335739257E+03  0.17158637615E+03 0.  0.
        -24    2    5    5    0    0 -0.24464334955E+02  0.35474298860E+02  0.31335904554E+03  0.32602523370E+03  0.79004000054E+02 0.  0.
          5    1    3    3  501    0  0.39468495018E+02 -0.19411058369E+02  0.52780158185E+03  0.52965191503E+03  0.47000000000E+01 0. -1.
        -13    1    4    4    0    0 -0.50791167452E+02  0.26640069453E+02  0.11203094950E+03  0.12585853026E+03  0.00000000000E+00 0.  1.
         14    1    4    4    0    0  0.26363998750E+02  0.17573372422E+02  0.13349858715E+03  0.13720698459E+03  0.00000000000E+00 0. -1.
         -5    1    5    5    0  502  0.94230086388E+01 -0.60276682367E+02  0.65447796415E+03  0.65733215887E+03  0.47000000000E+01 0.  1.
         11    1    6    6    0    0  0.18765197314E+02  0.42254360850E+02  0.16135441098E+03  0.16784757843E+03  0.00000000000E+00 0. -1.
        -12    1    6    6    0    0 -0.43229532269E+02 -0.67800619897E+01  0.15200463456E+03  0.15817765527E+03  0.00000000000E+00 0.  1.
</event>
<event>
12    1  0.8135779E-002  0.2102597E+03  0.7818608E-02  0.1141510E+00
         21   -1    0    0  501  502  0.00000000000E+00  0.00000000000E+00  0.36567545927E+03  0.36567545927E+03  0.00000000000E+00 0. -1.
         21   -1    0    0  502  503 -0.00000000000E+00 -0.00000000000E+00 -0.14418748179E+03  0.14418748179E+03  0.00000000000E+00 0. -1.
         -6    2    1    2    0  503  0.11962125972E+03 -0.61646521990E+01  0.75031353201E+01  0.21039353907E+03  0.17280594761E+03 0.  0.
        -24    2    3    3    0    0  0.92274980296E+02  0.42451611974E+02 -0.41962770272E+02  0.13569195973E+03  0.79590341737E+02 0.  0.
          6    2    1    2  501    0 -0.11962125972E+03  0.61646521990E+01  0.21398484216E+03  0.29946940199E+03  0.17188705983E+03 0.  0.
         24    2    5    5    0    0 -0.19087547836E+02  0.22295686169E+02  0.16639025620E+03  0.18697685959E+03  0.80082436019E+02 0.  0.
          5    1    5    5  501    0 -0.10053371188E+03 -0.16131033970E+02  0.47594585962E+02  0.11249254240E+03  0.47000000000E+01 0. -1.
        -11    1    6    6    0    0  0.76797848704E+00 -0.24031622126E+02  0.17365492873E+02  0.29659214347E+02  0.00000000000E+00 0.  1.
         12    1    6    6    0    0 -0.19855526323E+02  0.46327308295E+02  0.14902476333E+03  0.15731764524E+03  0.00000000000E+00 0. -1.
         -5    1    3    3    0  503  0.27346279425E+02 -0.48616264173E+02  0.49465905592E+02  0.74701579344E+02  0.47000000000E+01 0.  1.
         11    1    4    4    0    0  0.60249260723E+02 -0.22405844044E+01 -0.52219453796E+02  0.79761300082E+02  0.00000000000E+00 0. -1.
        -12    1    4    4    0    0  0.32025719574E+02  0.44692196378E+02  0.10256683524E+02  0.55930659644E+02  0.00000000000E+00 0.  1.
</event>
<event>
12    1  0.8135779E-002  0.2135519E+03  0.7818608E-02  0.1138864E+00
         21   -1    0    0  503  502  0.00000000000E+00  0.00000000000E+00  0.28212066871E+03  0.28212066871E+03  0.00000000000E+00 0.  1.
         21   -1    0    0  501  503 -0.00000000000E+00 -0.00000000000E+00 -0.28183759280E+03  0.28183759280E+03  0.00000000000E+00 0. -1.
          6    2    1    2  501    0  0.11933261244E+03 -0.42198695257E+02 -0.18424020754E+03  0.28204405172E+03  0.17199822896E+03 0.  0.
         24    2    3    3    0    0 -0.49586829367E+01 -0.25879720932E+02 -0.43330895060E+02  0.93385207846E+02  0.78414807822E+02 0.  0.
         -6    2    1    2    0  502 -0.11933261244E+03  0.42198695257E+02  0.18452328344E+03  0.28191420978E+03  0.17148112803E+03 0.  0.
        -24    2    5    5    0    0 -0.13509500130E+03 -0.44654166961E+01  0.10568737242E+03  0.18883798772E+03  0.78862954520E+02 0.  0.
          5    1    3    3  501    0  0.12429129538E+03 -0.16318974325E+02 -0.14090931247E+03  0.18865884388E+03  0.47000000000E+01 0. -1.
        -13    1    4    4    0    0  0.11363560028E+02  0.22927082297E+02  0.78502595345E+00  0.25600739538E+02  0.00000000000E+00 0.  1.
         14    1    4    4    0    0 -0.16322242965E+02 -0.48806803229E+02 -0.44115921014E+02  0.67784468308E+02  0.00000000000E+00 0. -1.
         -5    1    5    5    0  502  0.15762388854E+02  0.46664111953E+02  0.78835911023E+02  0.93076222063E+02  0.47000000000E+01 0.  1.
         11    1    6    6    0    0 -0.15905691892E+02 -0.28240340958E+02  0.93008171397E+01  0.33719624723E+02  0.00000000000E+00 0. -1.
        -12    1    6    6    0    0 -0.11918930941E+03  0.23774924262E+02  0.96386555281E+02  0.15511836300E+03  0.00000000000E+00 0.  1.
</event>
<event>
12    1  0.8135779E-002  0.2451847E+03  0.7818608E-02  0.1117005E+00
         21   -1    0    0  503  502  0.00000000000E+00  0.00000000000E+00  0.12215771772E+03  0.12215771772E+03  0.00000000000E+00 0. -1.
         21   -1    0    0  501  503 -0.00000000000E+00 -0.00000000000E+00 -0.50554296383E+03  0.50554296383E+03  0.00000000000E+00 0.  1.
          6    2    1    2  501    0  0.39943211712E+02 -0.16942732670E+03 -0.25708160003E+03  0.35525553773E+03  0.17266866773E+03 0.  0.
         24    2    3    3    0    0  0.28442280016E+02 -0.11520080532E+03 -0.26353237366E+03  0.29925116708E+03  0.77600001250E+02 0.  0.
         -6    2    1    2    0  502 -0.39943211712E+02  0.16942732670E+03 -0.12630364608E+03  0.27244514382E+03  0.16725030996E+03 0.  0.
        -24    2    5    5    0    0  0.26329276697E+02  0.45978731776E+02 -0.23367798864E+02  0.98521376176E+02  0.79706542722E+02 0.  0.
          5    1    3    3  501    0  0.11500931697E+02 -0.54226521377E+02  0.64507736320E+01  0.56004370642E+02  0.47000000000E+01 0. -1.
        -11    1    4    4    0    0  0.11026377232E+02 -0.10837063745E+03 -0.15699793384E+03  0.19108670096E+03  0.00000000000E+00 0.  1.
         12    1    4    4    0    0  0.17415902784E+02 -0.68301678778E+01 -0.10653443982E+03  0.10816446612E+03  0.00000000000E+00 0. -1.
         -5    1    5    5    0  502 -0.66272488409E+02  0.12344859493E+03 -0.10293584721E+03  0.17392376764E+03  0.47000000000E+01 0.  1.
         13    1    6    6    0    0 -0.78791928504E+01  0.92333430775E+01  0.25636809670E+02  0.28365160222E+02  0.00000000000E+00 0. -1.
        -14    1    6    6    0    0  0.34208469547E+02  0.36745388698E+02 -0.49004608534E+02  0.70156215953E+02  0.00000000000E+00 0.  1.
</event>
<event>
12    1  0.8135779E-002  0.2112111E+03  0.7818608E-02  0.1140621E+00
         21   -1    0    0  503  502  0.00000000000E+00  0.00000000000E+00  0.24125408599E+03  0.24125408599E+03  0.00000000000E+00 0. -1.
         21   -1    0    0  501  503 -0.00000000000E+00 -0.00000000000E+00 -0.18797137084E+03  0.18797137084E+03  0.00000000000E+00 0.  1.
          6    2    1    2  501    0  0.92100258439E+02 -0.78944390233E+02 -0.97004306227E+00  0.21115778222E+03  0.17283516324E+03 0.  0.
         24    2    3    3    0    0  0.74822771985E+02  0.17477451450E+02 -0.17319687478E+02  0.11173402266E+03  0.79250310590E+02 0.  0.
         -6    2    1    2    0  502 -0.92100258439E+02  0.78944390233E+02  0.54252758216E+02  0.21806767461E+03  0.17290307858E+03 0.  0.
        -24    2    5    5    0    0 -0.63550035075E+02  0.80737316195E+02  0.99623231105E+02  0.16422624402E+03  0.80550294011E+02 0.  0.
          5    1    3    3  501    0  0.17277486453E+02 -0.96421841683E+02  0.16349644416E+02  0.99423759556E+02  0.47000000000E+01 0. -1.
        -13    1    4    4    0    0  0.86083643034E+02  0.14457635252E+02  0.40583035754E+01  0.87383560485E+02  0.00000000000E+00 0.  1.
         14    1    4    4    0    0 -0.11260871049E+02  0.30198161980E+01 -0.21377991053E+02  0.24350462175E+02  0.00000000000E+00 0. -1.
         -5    1    5    5    0  502 -0.28550223363E+02 -0.17929259617E+01 -0.45370472889E+02  0.53841430588E+02  0.47000000000E+01 0.  1.
         13    1    6    6    0    0 -0.32059781155E+02  0.24816877585E+02  0.90806503609E+02  0.99446106402E+02  0.00000000000E+00 0. -1.
        -14    1    6    6    0    0 -0.31490253920E+02  0.55920438610E+02  0.88167274954E+01  0.64780137620E+02  0.00000000000E+00 0.  1.
</event>
<event>
12    1  0.8135779E-002  0.2115447E+03  0.7818608E-02  0.1141087E+00
         21   -1    0    0  501  502  0.00000000000E+00  0.00000000000E+00  0.17846965111E+03  0.17846965111E+03  0.00000000000E+00 0.  1.
         21   -1    0    0  502  503 -0.00000000000E+00 -0.00000000000E+00 -0.34223752269E+03  0.34223752269E+03  0.00000000000E+00 0. -1.
         -6    2    1    2    0  503 -0.11500121867E+03 -0.22250218103E+02 -0.22021359049E+03  0.30536072951E+03  0.17615560505E+03 0.  0.
        -24    2    3    3    0    0 -0.86414660123E+01  0.32673681350E+02 -0.61308313326E+02  0.10635819478E+03  0.80069419425E+02 0.  0.
          6    2    1    2  501    0  0.11500121867E+03  0.22250218103E+02  0.56445718910E+02  0.21534644429E+03  0.17166135087E+03 0.  0.
         24    2    5    5    0    0  0.10190102095E+03  0.75666708348E+02  0.55814312499E+02  0.16014295450E+03  0.80132762176E+02 0.  0.
          5    1    5    5  501    0  0.13100197718E+02 -0.53416490245E+02  0.63140641095E+00  0.55203489784E+02  0.47000000000E+01 0. -1.
        -13    1    6    6    0    0  0.59189565503E+02 -0.23596150402E+01  0.99602174275E+01  0.60068114493E+02  0.00000000000E+00 0.  1.
         14    1    6    6    0    0  0.42711455447E+02  0.78026323388E+02  0.45854095071E+02  0.10007484001E+03  0.00000000000E+00 0. -1.
         -5    1    3    3    0  503 -0.10635975266E+03 -0.54923899453E+02 -0.15890527717E+03  0.19900253473E+03  0.47000000000E+01 0.  1.
         11    1    4    4    0    0 -0.13183134167E+02  0.42096153461E+02 -0.76266962146E+02  0.88105225030E+02  0.00000000000E+00 0. -1.
        -12    1    4    4    0    0  0.45416681548E+01 -0.94224721111E+01  0.14958648820E+02  0.18252969754E+02  0.00000000000E+00 0.  1.
</event>
<event>
12    1  0.8135779E-002  0.1949542E+03  0.7818608E-02  0.1157721E+00
         21   -1    0    0  501  502  0.00000000000E+00  0.00000000000E+00  0.56034623452E+03  0.56034623452E+03  0.00000000000E+00 0.  1.
         21   -1    0    0  502  503 -0.00000000000E+00 -0.00000000000E+00 -0.21051330426E+03  0.21051330426E+03  0.00000000000E+00 0.  1.
         -6    2    1    2    0  503 -0.45315513576E+02 -0.38540413315E+02 -0.14610420137E+03  0.24362592985E+03  0.18565639447E+03 0.  0.
        -24    2    3    3    0    0 -0.16096818673E+02  0.52796351300E+02 -0.51908795767E+02  0.10912313754E+03  0.78528808635E+02 0.  0.
          6    2    1    2  501    0  0.45315513576E+02  0.38540413315E+02  0.49593713163E+03  0.52723360894E+03  0.16876842311E+03 0.  0.
         24    2    5    5    0    0  0.57328788093E+02  0.26723966927E+02  0.49885612286E+03  0.50949783493E+03  0.82035675989E+02 0.  0.
          5    1    5    5  501    0 -0.12013274518E+02  0.11816446388E+02 -0.29189912305E+01  0.17735774009E+02  0.47000000000E+01 0. -1.
        -13    1    6    6    0    0  0.50688382356E+02  0.49837147408E+02  0.26362447594E+03  0.27304013932E+03  0.00000000000E+00 0.  1.
         14    1    6    6    0    0  0.66404057372E+01 -0.23113180481E+02  0.23523164692E+03  0.23645769561E+03  0.00000000000E+00 0. -1.
         -5    1    3    3    0  503 -0.29218694903E+02 -0.91336764615E+02 -0.94195405603E+02  0.13450279231E+03  0.47000000000E+01 0.  1.
         11    1    4    4    0    0  0.23591014044E+02  0.22769856574E+02  0.53922233017E+01  0.33227674974E+02  0.00000000000E+00 0. -1.
        -12    1    4    4    0    0 -0.39687832716E+02  0.30026494726E+02 -0.57301019069E+02  0.75895462562E+02  0.00000000000E+00 0.  1.
</event>
<event>
12    1  0.8135779E-002  0.2298333E+03  0.7818608E-02  0.1126791E+00
         21   -1    0    0  503  502  0.00000000000E+00  0.00000000000E+00  0.39377037477E+03  0.39377037477E+03  0.00000000000E+00 0. -1.
         21   -1    0    0  501  503 -0.00000000000E+00 -0.00000000000E+00 -0.26472570431E+03  0.26472570431E+03  0.00000000000E+00 0.  1.
          6    2    1    2  501    0  0.82378976360E+02 -0.12771433830E+03 -0.16680137117E+03  0.28398248516E+03  0.17241260540E+03 0.  0.
         24    2    3    3    0    0  0.29404876064E+02 -0.97514766873E+00 -0.33059847857E+02  0.92206671248E+02  0.80892020824E+02 0.  0.
         -6    2    1    2    0  502 -0.82378976360E+02  0.12771433830E+03  0.29584604163E+03  0.37451359392E+03  0.17215778729E+03 0.  0.
        -24    2    5    5    0    0 -0.56050505016E+02  0.13236216025E+03  0.30460452455E+03  0.34599006547E+03  0.79144225599E+02 0.  0.
          5    1    3    3  501    0  0.52974100295E+02 -0.12673919063E+03 -0.13374152331E+03  0.19177581391E+03  0.47000000000E+01 0. -1.
        -11    1    4    4    0    0  0.15447955984E+02  0.39474752624E+02 -0.23089867376E+02  0.48270461095E+02  0.00000000000E+00 0.  1.
         12    1    4    4    0    0  0.13956920080E+02 -0.40449900293E+02 -0.99699804808E+01  0.43936210153E+02  0.00000000000E+00 0. -1.
         -5    1    5    5    0  502 -0.26328471344E+02 -0.46478219503E+01 -0.87584829181E+01  0.28523528450E+02  0.47000000000E+01 0.  1.
         13    1    6    6    0    0 -0.27232391820E+01  0.60638247614E+02  0.19683453346E+03  0.20598118038E+03  0.00000000000E+00 0. -1.
        -14    1    6    6    0    0 -0.53327265834E+02  0.71723912637E+02  0.10776999109E+03  0.14000888509E+03  0.00000000000E+00 0.  1.
</event>
<event>
12    1  0.8135779E-002  0.2103613E+03  0.7818608E-02  0.1141393E+00
         21   -1    0    0  503  502  0.00000000000E+00  0.00000000000E+00  0.14494935620E+03  0.14494935620E+03  0.00000000000E+00 0.  1.
         21   -1    0    0  501  503 -0.00000000000E+00 -0.00000000000E+00 -0.53250195979E+03  0.53250195979E+03  0.00000000000E+00 0.  1.
          6    2    1    2  501    0 -0.12173245955E+03 -0.20809751835E+01  0.28036943219E+02  0.21165464611E+03  0.17084641310E+03 0.  0.
         24    2    3    3    0    0 -0.12177997111E+03  0.17272895551E+02  0.72240624249E+02  0.16317135015E+03  0.79230470368E+02 0.  0.
         -6    2    1    2    0  502  0.12173245955E+03  0.20809751835E+01 -0.41558954680E+03  0.46579666988E+03  0.17154808101E+03 0.  0.
        -24    2    5    5    0    0  0.35203448299E+02  0.56876999561E+02 -0.25316111244E+03  0.27371606086E+03  0.79722376193E+02 0.  0.
          5    1    3    3  501    0  0.47511561064E-01 -0.19353870734E+02 -0.44203681030E+02  0.48483295952E+02  0.47000000000E+01 0. -1.
        -13    1    4    4    0    0 -0.10422693086E+03  0.40195908394E+02  0.37138450925E+02  0.11772097819E+03  0.00000000000E+00 0.  1.
         14    1    4    4    0    0 -0.17553040250E+02 -0.22923012843E+02  0.35102173324E+02  0.45450371967E+02  0.00000000000E+00 0. -1.
         -5    1    5    5    0  502  0.86529011251E+02 -0.54796024378E+02 -0.16242843436E+03  0.19208060903E+03  0.47000000000E+01 0.  1.
         11    1    6    6    0    0 -0.23800162515E+02  0.29296553452E+02 -0.11355975208E+03  0.11966851328E+03  0.00000000000E+00 0. -1.
        -12    1    6    6    0    0  0.59003610815E+02  0.27580446109E+02 -0.13960136037E+03  0.15404754757E+03  0.00000000000E+00 0.  1.
</event>
<event>
12    1  0.8135779E-002  0.1921352E+03  0.7818608E-02  0.1157714E+00
         21   -1    0    0  503  502  0.00000000000E+00  0.00000000000E+00  0.59205409295E+02  0.59205409295E+02  0.00000000000E+00 0.  1.
         21   -1    0    0  501  503 -0.00000000000E+00 -0.00000000000E+00 -0.69008124192E+03  0.69008124192E+03  0.00000000000E+00 0.  1.
          6    2    1    2  501    0 -0.72153017645E+02 -0.18955854686E+02 -0.44173612219E+03  0.47967623756E+03  0.17144418581E+03 0.  0.
         24    2    3    3    0    0 -0.87744116790E+02  0.41462455235E+02 -0.28786265658E+03  0.31356606940E+03  0.77721332980E+02 0.  0.
         -6    2    1    2    0  502  0.72153017645E+02  0.18955854686E+02 -0.18913971043E+03  0.26961041366E+03  0.17706090113E+03 0.  0.
        -24    2    5    5    0    0  0.57282510752E+02  0.85488851776E+02 -0.15486212909E+03  0.19315902871E+03  0.52330693977E+02 0.  0.
          5    1    3    3  501    0  0.15591099146E+02 -0.60418309921E+02 -0.15387346561E+03  0.16611016815E+03  0.47000000000E+01 0. -1.
        -11    1    4    4    0    0 -0.61369983853E+02  0.32458858359E+02 -0.27357853205E+03  0.28225000549E+03  0.00000000000E+00 0.  1.
         12    1    4    4    0    0 -0.26374132938E+02  0.90035968758E+01 -0.14284124533E+02  0.31316063907E+02  0.00000000000E+00 0. -1.
         -5    1    5    5    0  502  0.14870506893E+02 -0.66532997089E+02 -0.34277581347E+02  0.76451384944E+02  0.47000000000E+01 0.  1.
         13    1    6    6    0    0 -0.85236693242E+01  0.21461914331E+02 -0.39055162342E+02  0.45371493375E+02  0.00000000000E+00 0. -1.
        -14    1    6    6    0    0  0.65806180076E+02  0.64026937445E+02 -0.11580696675E+03  0.14778753534E+03  0.00000000000E+00 0.  1.
</event>
<event>
12    1  0.8135779E-002  0.2438508E+03  0.7818608E-02  0.1117825E+00
         21   -1    0    0  503  502  0.00000000000E+00  0.00000000000E+00  0.48091454775E+03  0.48091454775E+03  0.00000000000E+00 0.  1.
         21   -1    0    0  501  503 -0.00000000000E+00 -0.00000000000E+00 -0.38507849311E+03  0.38507849311E+03  0.00000000000E+00 0.  1.
          6    2    1    2  501    0  0.55454535569E+02  0.15790153262E+03 -0.30993716012E+03  0.39436564556E+03  0.17735591237E+03 0.  0.
         24    2    3    3    0    0  0.48356590286E+02  0.40673657633E+02 -0.15820934434E+03  0.20243811865E+03  0.10935396197E+03 0.  0.
         -6    2    1    2    0  502 -0.55454535569E+02 -0.15790153262E+03  0.40577321476E+03  0.47162739530E+03  0.17254680137E+03 0.  0.
        -24    2    5    5    0    0  0.93427492735E+01 -0.94075194230E+02  0.11911779781E+03  0.17085188489E+03  0.77870968164E+02 0.  0.
          5    1    3    3  501    0  0.70979452832E+01  0.11722787499E+03 -0.15172781578E+03  0.19192752691E+03  0.47000000000E+01 0. -1.
        -11    1    4    4    0    0  0.17562376507E+02  0.51503929175E+02 -0.16073604054E+03  0.16969727906E+03  0.00000000000E+00 0.  1.
         12    1    4    4    0    0  0.30794213779E+02 -0.10830271542E+02  0.25266962050E+01  0.32740839599E+02  0.00000000000E+00 0. -1.
         -5    1    5    5    0  502 -0.64797284843E+02 -0.63826338393E+02  0.28665541695E+03  0.30077551041E+03  0.47000000000E+01 0.  1.
         13    1    6    6    0    0  0.27873632901E+01 -0.97557623090E+02  0.67410866213E+02  0.11861485615E+03  0.00000000000E+00 0. -1.
        -14    1    6    6    0    0  0.65553859834E+01  0.34824288602E+01  0.51706931596E+02  0.52237028736E+02  0.00000000000E+00 0.  1.
</event>
<event>
12    1  0.8135779E-002  0.2173052E+03  0.7818608E-02  0.1136144E+00
         21   -1    0    0  503  502  0.00000000000E+00  0.00000000000E+00  0.48788865264E+03  0.48788865264E+03  0.00000000000E+00 0.  1.
         21   -1    0    0  501  503 -0.00000000000E+00 -0.00000000000E+00 -0.35807606717E+03  0.35807606717E+03  0.00000000000E+00 0.  1.
          6    2    1    2  501    0  0.28337280297E+02  0.12930708178E+03 -0.29674689556E+03  0.36780466005E+03  0.17233172973E+03 0.  0.
         24    2    3    3    0    0  0.79550042024E+02  0.11774880084E+03 -0.24445909909E+03  0.29355882190E+03  0.78889425796E+02 0.  0.
         -6    2    1    2    0  502 -0.28337280297E+02 -0.12930708178E+03  0.42655948104E+03  0.47816005976E+03  0.17076512827E+03 0.  0.
        -24    2    5    5    0    0  0.12466712107E-01 -0.13602123175E+02  0.26657598664E+03  0.27864025102E+03  0.79953829942E+02 0.  0.
          5    1    3    3  501    0 -0.51212761727E+02  0.11558280941E+02 -0.52287796477E+02  0.74245838149E+02  0.47000000000E+01 0. -1.
        -11    1    4    4    0    0  0.19585450866E+02  0.96146897461E+02 -0.16102497169E+03  0.18856526001E+03  0.00000000000E+00 0.  1.
         12    1    4    4    0    0  0.59964591158E+02  0.21601903380E+02 -0.83434127399E+02  0.10499356188E+03  0.00000000000E+00 0. -1.
         -5    1    5    5    0  502 -0.28349747009E+02 -0.11570495861E+03  0.15998349440E+03  0.19951980874E+03  0.47000000000E+01 0.  1.
         13    1    6    6    0    0 -0.15232324789E+02 -0.37904292367E+02  0.22131374834E+03  0.22505229238E+03  0.00000000000E+00 0. -1.
        -14    1    6    6    0    0  0.15244791501E+02  0.24302169193E+02  0.45262238299E+02  0.53587958640E+02  0.00000000000E+00 0.  1.
</event>
<event>
12    1  0.8135779E-002  0.2097003E+03  0.7818608E-02  0.1142763E+00
         21   -1    0    0  503  502  0.00000000000E+00  0.00000000000E+00  0.55258113832E+03  0.55258113832E+03  0.00000000000E+00 0.  1.
         21   -1    0    0  501  503 -0.00000000000E+00 -0.00000000000E+00 -0.15031228126E+03  0.15031228126E+03  0.00000000000E+00 0. -1.
          6    2    1    2  501    0  0.94089144418E+02 -0.74423013680E+02 -0.44196284567E+02  0.20963352927E+03  0.16613654915E+03 0.  0.
         24    2    3    3    0    0 -0.86382970632E+01 -0.13735588645E+02  0.74382607968E+01  0.79540842828E+02  0.77512137001E+02 0.  0.
         -6    2    1    2    0  502 -0.94089144418E+02  0.74423013680E+02  0.44646514163E+03  0.49325989032E+03  0.17199605996E+03 0.  0.
        -24    2    5    5    0    0 -0.15401271709E+02  0.90032863021E+02  0.29250171354E+03  0.31958699117E+03  0.90749528428E+02 0.  0.
          5    1    3    3  501    0  0.10272744148E+03 -0.60687425035E+02 -0.51634545364E+02  0.13009268644E+03  0.47000000000E+01 0. -1.
        -13    1    4    4    0    0  0.99266190269E+01 -0.39418302349E+02  0.20183248952E+02  0.45383960422E+02  0.00000000000E+00 0.  1.
         14    1    4    4    0    0 -0.18564916090E+02  0.25682713703E+02 -0.12744988155E+02  0.34156882406E+02  0.00000000000E+00 0. -1.
         -5    1    5    5    0  502 -0.78687872709E+02 -0.15609849341E+02  0.15396342809E+03  0.17367289914E+03  0.47000000000E+01 0.  1.
         13    1    6    6    0    0  0.90047326394E+01  0.55083442553E+02  0.55247750931E+02  0.78533972498E+02  0.00000000000E+00 0. -1.
        -14    1    6    6    0    0 -0.24406004349E+02  0.34949420469E+02  0.23725396261E+03  0.24105301867E+03  0.00000000000E+00 0.  1.
</event>
<event>
12    1  0.8135779E-002  0.1788352E+03  0.7818608E-02  0.1169514E+00
         21   -1    0    0  501  502  0.00000000000E+00  0.00000000000E+00  0.41962071216E+02  0.41962071216E+02  0.00000000000E+00 0.  1.
         21   -1    0    0  502  503 -0.00000000000E+00 -0.00000000000E+00 -0.12614988755E+04  0.12614988755E+04  0.00000000000E+00 0.  1.
         -6    2    1    2    0  503 -0.11065715351E+02  0.38626529458E+02 -0.10214737006E+04  0.10366070143E+04  0.17184621671E+03 0.  0.
        -24    2    3    3    0    0  0.12127541972E+02  0.87450867073E+02 -0.59399456509E+03  0.60569838774E+03  0.79033297589E+02 0.  0.
          6    2    1    2  501    0  0.11065715351E+02 -0.38626529458E+02 -0.19806310372E+03  0.26685393247E+03  0.17426293177E+03 0.  0.
         24    2    5    5    0    0 -0.10553397376E+02 -0.26991533830E+02 -0.20169453341E+02  0.87212623185E+02  0.79745330271E+02 0.  0.
          5    1    5    5  501    0  0.21619112727E+02 -0.11634995628E+02 -0.17789365038E+03  0.17964130929E+03  0.47000000000E+01 0. -1.
        -13    1    6    6    0    0 -0.27171155110E+02 -0.49226206782E+02 -0.75909442499E+01  0.56737232386E+02  0.00000000000E+00 0.  1.
         14    1    6    6    0    0  0.16617757734E+02  0.22234672952E+02 -0.12578509091E+02  0.30475390799E+02  0.00000000000E+00 0. -1.
         -5    1    3    3    0  503 -0.23193257323E+02 -0.48824337615E+02 -0.42747913552E+03  0.43090862655E+03  0.47000000000E+01 0.  1.
         11    1    4    4    0    0  0.11675320898E+01  0.10439241022E+02 -0.50791423241E+01  0.11667843462E+02  0.00000000000E+00 0. -1.
        -12    1    4    4    0    0  0.10960009882E+02  0.77011626051E+02 -0.58891542277E+03  0.59403054428E+03  0.00000000000E+00 0.  1.
</event>
<event>
12    1  0.8135779E-002  0.1884889E+03  0.7818608E-02  0.1159839E+00
         21   -1    0    0  503  502  0.00000000000E+00  0.00000000000E+00  0.12686368937E+03  0.12686368937E+03  0.00000000000E+00 0. -1.
         21   -1    0    0  501  503 -0.00000000000E+00 -0.00000000000E+00 -0.47519368602E+03  0.47519368602E+03  0.00000000000E+00 0. -1.
          6    2    1    2  501    0  0.61584976747E+02  0.50830528424E+02 -0.36708889375E+03  0.41263726979E+03  0.17070093300E+03 0.  0.
         24    2    3    3    0    0  0.10132668509E+03  0.53738304081E+02 -0.22599336770E+03  0.26594747460E+03  0.80623536058E+02 0.  0.
         -6    2    1    2    0  502 -0.61584976747E+02 -0.50830528424E+02  0.18758897108E+02  0.18942010560E+03  0.17073847897E+03 0.  0.
        -24    2    5    5    0    0 -0.68799820665E+02 -0.87483598849E+02  0.43647763330E+02  0.14428644625E+03  0.80787721444E+02 0.  0.
          5    1    3    3  501    0 -0.39741708343E+02 -0.29077756570E+01 -0.14109552605E+03  0.14668979519E+03  0.47000000000E+01 0. -1.
        -13    1    4    4    0    0 -0.13774630221E+02  0.10173200092E+02 -0.28114408600E+02  0.32918906555E+02  0.00000000000E+00 0.  1.
         14    1    4    4    0    0  0.11510131531E+03  0.43565103990E+02 -0.19787895910E+03  0.23302856805E+03  0.00000000000E+00 0. -1.
         -5    1    5    5    0  502  0.72148439182E+01  0.36653070425E+02 -0.24888866222E+02  0.45133659348E+02  0.47000000000E+01 0.  1.
         13    1    6    6    0    0 -0.10220755379E+02 -0.47844723728E+02 -0.16301151810E+02  0.51568488241E+02  0.00000000000E+00 0. -1.
        -14    1    6    6    0    0 -0.58579065286E+02 -0.39638875122E+02  0.59948915140E+02  0.92717958008E+02  0.00000000000E+00 0.  1.
</event>
<event>
12    1  0.8135779E-002  0.1757349E+03  0.7818608E-02  0.1173652E+00
         21   -1    0    0  501  502  0.00000000000E+00  0.00000000000E+00  0.37258743563E+03  0.37258743563E+03  0.00000000000E+00 0.  1.
         21   -1    0    0  502  503 -0.00000000000E+00 -0.00000000000E+00 -0.80829487378E+02  0.80829487378E+02  0.00000000000E+00 0.  1.
         -6    2    1    2    0  503 -0.33293471259E+02 -0.12983142912E+02  0.16812241544E+03  0.23854833827E+03  0.16541809420E+03 0.  0.
        -24    2    3    3    0    0  0.19869975900E+02  0.41275249683E+02  0.10432873547E+03  0.13924048921E+03  0.80031035301E+02 0.  0.
          6    2    1    2  501    0  0.33293471259E+02  0.12983142912E+02  0.12363553281E+03  0.21486858474E+03  0.17206320498E+03 0.  0.
         24    2    5    5    0    0 -0.15118424144E+02  0.14033946638E+01  0.18477856109E+02  0.98429634404E+02  0.95479974326E+02 0.  0.
          5    1    5    5  501    0  0.48411895403E+02  0.11579748248E+02  0.10515767670E+03  0.11643895034E+03  0.47000000000E+01 0. -1.
        -11    1    6    6    0    0  0.34936510146E+02  0.11395939484E+02 -0.12388284241E+02  0.38780107843E+02  0.00000000000E+00 0.  1.
         12    1    6    6    0    0 -0.50054934290E+02 -0.99925448198E+01  0.30866140350E+02  0.59649526561E+02  0.00000000000E+00 0. -1.
         -5    1    3    3    0  503 -0.53163447158E+02 -0.54258392595E+02  0.63793679970E+02  0.99307849060E+02  0.47000000000E+01 0.  1.
         13    1    4    4    0    0 -0.35886222019E+01  0.19608274523E+02 -0.87275130308E+01  0.21760793248E+02  0.00000000000E+00 0. -1.
        -14    1    4    4    0    0  0.23458598102E+02  0.21666975159E+02  0.11305624850E+03  0.11747969596E+03  0.00000000000E+00 0.  1.
</event>
<event>
12    1  0.8135779E-002  0.2077527E+03  0.7818608E-02  0.1143441E+00
         21   -1    0    0  501  502  0.00000000000E+00  0.00000000000E+00  0.21921174484E+03  0.21921174484E+03  0.00000000000E+00 0.  1.
         21   -1    0    0  502  503 -0.00000000000E+00 -0.00000000000E+00 -0.40606100176E+03  0.40606100176E+03  0.00000000000E+00 0.  1.
         -6    2    1    2    0  503  0.99902068010E+02  0.59771195554E+02 -0.31806401437E+03  0.37990247190E+03  0.17207019472E+03 0.  0.
        -24    2    3    3    0    0  0.12411302879E+03  0.15292905039E+01 -0.21260949627E+03  0.25693485213E+03  0.73527802154E+02 0.  0.
          6    2    1    2  501    0 -0.99902068010E+02 -0.59771195554E+02  0.13121475745E+03  0.24537027470E+03  0.17156992779E+03 0.  0.
         24    2    5    5    0    0 -0.12741627848E+03 -0.21125463284E+02  0.66761734153E+02  0.16520290844E+03  0.78445386034E+02 0.  0.
          5    1    5    5  501    0  0.27514210468E+02 -0.38645732270E+02  0.64453023300E+02  0.80167366258E+02  0.47000000000E+01 0. -1.
        -13    1    6    6    0    0 -0.10820935619E+03 -0.32937216502E+02  0.80469877076E+02  0.13881471865E+03  0.00000000000E+00 0.  1.
         14    1    6    6    0    0 -0.19206922291E+02  0.11811753219E+02 -0.13708142924E+02  0.26388189790E+02  0.00000000000E+00 0. -1.
         -5    1    3    3    0  503 -0.24210960776E+02  0.58241905050E+02 -0.10545451809E+03  0.12296761977E+03  0.47000000000E+01 0.  1.
         13    1    4    4    0    0  0.42521147309E+02  0.12764927035E+02 -0.22544639530E+02  0.49792088751E+02  0.00000000000E+00 0. -1.
        -14    1    4    4    0    0  0.81591881477E+02 -0.11235636531E+02 -0.19006485674E+03  0.20714276338E+03  0.00000000000E+00 0.  1.
</event>
<event>
12    1  0.8135779E-002  0.2155403E+03  0.7818608E-02  0.1138302E+00
         21   -1    0    0  501  502  0.00000000000E+00  0.00000000000E+00  0.88439856300E+03  0.88439856300E+03  0.00000000000E+00 0.  1.
         21   -1    0    0  502  503 -0.00000000000E+00 -0.00000000000E+00 -0.11174253998E+03  0.11174253998E+03  0.00000000000E+00 0.  1.
         -6    2    1    2    0  503 -0.70829409912E+01 -0.12115970133E+03  0.17534344341E+02  0.21086001358E+03  0.17153615017E+03 0.  0.
        -24    2    3    3    0    0  0.61366076790E+02 -0.77628719011E+02  0.23017665448E+02  0.12942064185E+03  0.80174037064E+02 0.  0.
          6    2    1    2  501    0  0.70829409912E+01  0.12115970133E+03  0.75512167868E+03  0.78528108940E+03  0.17812298695E+03 0.  0.
         24    2    5    5    0    0 -0.52386680344E+02  0.70991546903E+02  0.60549017874E+03  0.61656489173E+03  0.75827074075E+02 0.  0.
          5    1    5    5  501    0  0.59469621335E+02  0.50168154432E+02  0.14963149994E+03  0.16871619767E+03  0.47000000000E+01 0. -1.
        -13    1    6    6    0    0 -0.26844489130E+02  0.70109396020E+02  0.55418155066E+03  0.55924336840E+03  0.00000000000E+00 0.  1.
         14    1    6    6    0    0 -0.25542191215E+02  0.88215088274E+00  0.51308628076E+02  0.57321523334E+02  0.00000000000E+00 0. -1.
         -5    1    3    3    0  503 -0.68449017782E+02 -0.43530982323E+02 -0.54833211074E+01  0.81439371729E+02  0.47000000000E+01 0.  1.
         11    1    4    4    0    0  0.77877678997E+01  0.12178898903E+02 -0.12363600029E+02  0.19021921907E+02  0.00000000000E+00 0. -1.
        -12    1    4    4    0    0  0.53578308891E+02 -0.89807617914E+02  0.35381265477E+02  0.11039871995E+03  0.00000000000E+00 0.  1.
</event>
<event>
12    1  0.8135779E-002  0.2104155E+03  0.7818608E-02  0.1141520E+00
         21   -1    0    0  503  502  0.00000000000E+00  0.00000000000E+00  0.11111780341E+04  0.11111780341E+04  0.00000000000E+00 0.  1.
         21   -1    0    0  501  503 -0.00000000000E+00 -0.00000000000E+00 -0.90910442987E+02  0.90910442987E+02  0.00000000000E+00 0.  1.
          6    2    1    2  501    0  0.11049790959E+03 -0.44659633793E+02  0.59234066902E+02  0.21859407355E+03  0.17340825643E+03 0.  0.
         24    2    3    3    0    0  0.12297064753E+03 -0.45331740634E+02 -0.46317159716E+01  0.15334877379E+03  0.79483625778E+02 0.  0.
         -6    2    1    2    0  502 -0.11049790959E+03  0.44659633793E+02  0.96103352417E+03  0.98349440350E+03  0.17167275909E+03 0.  0.
        -24    2    5    5    0    0 -0.44496235677E+02 -0.41264512086E+02  0.51226519115E+03  0.52180805268E+03  0.78646950568E+02 0.  0.
          5    1    3    3  501    0 -0.12472737942E+02  0.67210684021E+00  0.63865782874E+02  0.65245299765E+02  0.47000000000E+01 0. -1.
        -13    1    4    4    0    0  0.20904068050E+02  0.44742743215E+01  0.27958514282E+02  0.35194853496E+02  0.00000000000E+00 0.  1.
         14    1    4    4    0    0  0.10206657948E+03 -0.49806014955E+02 -0.32590230254E+02  0.11815392029E+03  0.00000000000E+00 0. -1.
         -5    1    5    5    0  502 -0.66001673909E+02  0.85924145879E+02  0.44876833302E+03  0.46168635081E+03  0.47000000000E+01 0.  1.
         11    1    6    6    0    0  0.14085231622E+02 -0.27632764712E+02  0.88108080022E+02  0.93407693476E+02  0.00000000000E+00 0. -1.
        -12    1    6    6    0    0 -0.58581467299E+02 -0.13631747373E+02  0.42415711113E+03  0.42840035921E+03  0.00000000000E+00 0.  1.
</event>
<event>
12    1  0.8135779E-002  0.1902423E+03  0.7818608E-02  0.1158557E+00
         21   -1    0    0  501  502  0.00000000000E+00  0.00000000000E+00  0.10526630163E+04  0.10526630163E+04  0.00000000000E+00 0.  1.
         21   -1    0    0  502  503 -0.00000000000E+00 -0.00000000000E+00 -0.86882725516E+02  0.86882725516E+02  0.00000000000E+00 0. -1.
         -6    2    1    2    0  503 -0.51859167065E+02 -0.55375044633E+02  0.39615832599E+02  0.19432331253E+03  0.17446021559E+03 0.  0.
        -24    2    3    3    0    0 -0.61163708033E+02  0.13405925009E+02 -0.17657679341E+02  0.10421370462E+03  0.81412435077E+02 0.  0.
          6    2    1    2  501    0  0.51859167065E+02  0.55375044633E+02  0.92616445814E+03  0.94522242924E+03  0.17294238475E+03 0.  0.
         24    2    5    5    0    0  0.79858082393E+02  0.88459150470E+02  0.73277495242E+03  0.74697993067E+03  0.82568464323E+02 0.  0.
          5    1    5    5  501    0 -0.27998915328E+02 -0.33084105837E+02  0.19338950572E+03  0.19824249858E+03  0.47000000000E+01 0. -1.
        -13    1    6    6    0    0  0.51474261273E+02  0.54715275935E+00  0.30836637008E+03  0.31263351891E+03  0.00000000000E+00 0.  1.
         14    1    6    6    0    0  0.28383821119E+02  0.87911997711E+02  0.42440858234E+03  0.43434641176E+03  0.00000000000E+00 0. -1.
         -5    1    3    3    0  503  0.93045409676E+01 -0.68780969642E+02  0.57273511940E+02  0.90109607909E+02  0.47000000000E+01 0.  1.
         13    1    4    4    0    0 -0.48529315181E+02 -0.29192303957E+02 -0.19074136494E+02  0.59758746015E+02  0.00000000000E+00 0. -1.
        -14    1    4    4    0    0 -0.12634392851E+02  0.42598228965E+02  0.14164571527E+01  0.44454958605E+02  0.00000000000E+00 0.  1.
</event>
<event>
12    1  0.8135779E-002  0.1960769E+03  0.7818608E-02  0.1153214E+00
         21   -1    0    0  503  502  0.00000000000E+00  0.00000000000E+00  0.38239436018E+03  0.38239436018E+03  0.00000000000E+00 0.  1.
         21   -1    0    0  501  503 -0.00000000000E+00 -0.00000000000E+00 -0.12616299735E+03  0.12616299735E+03  0.00000000000E+00 0.  1.
          6    2    1    2  501    0  0.14066864324E+02  0.94534352732E+02  0.12735722439E+02  0.19592931053E+03  0.17056223375E+03 0.  0.
         24    2    3    3    0    0 -0.45825316256E+02  0.90256571937E+02 -0.14073008086E+02  0.13000381671E+03  0.80353807716E+02 0.  0.
         -6    2    1    2    0  502 -0.14066864324E+02 -0.94534352732E+02  0.24349564039E+03  0.31262804700E+03  0.17120615750E+03 0.  0.
        -24    2    5    5    0    0 -0.45862078811E+01 -0.66742696746E+02  0.47565435012E+02  0.11445389539E+03  0.79759655782E+02 0.  0.
          5    1    3    3  501    0  0.59892180580E+02  0.42777807951E+01  0.26808730525E+02  0.65925493821E+02  0.47000000000E+01 0. -1.
        -13    1    4    4    0    0 -0.79833924786E+01  0.89461349751E+02 -0.19087973509E+02  0.91822755281E+02  0.00000000000E+00 0.  1.
         14    1    4    4    0    0 -0.37841923778E+02  0.79522218560E+00  0.50149654237E+01  0.38181061428E+02  0.00000000000E+00 0. -1.
         -5    1    5    5    0  502 -0.94806564425E+01 -0.27791655986E+02  0.19593020537E+03  0.19817415161E+03  0.47000000000E+01 0.  1.
         11    1    6    6    0    0  0.15250380775E+02  0.13242397076E+02  0.17526553231E+02  0.26741639109E+02  0.00000000000E+00 0. -1.
        -12    1    6    6    0    0 -0.19836588656E+02 -0.79985093822E+02  0.30038881781E+02  0.87712256281E+02  0.00000000000E+00 0.  1.
</event>
<event>
12    1  0.8135779E-002  0.1784345E+03  0.7818608E-02  0.1170082E+00
         21   -1    0    0  503  502  0.00000000000E+00  0.00000000000E+00  0.25713894810E+03  0.25713894810E+03  0.00000000000E+00 0. -1.
         21   -1    0    0  501  503 -0.00000000000E+00 -0.00000000000E+00 -0.14079414374E+03  0.14079414374E+03  0.00000000000E+00 0. -1.
          6    2    1    2  501    0  0.53361465464E+02  0.28765660186E+01 -0.14649609218E+02  0.17903488930E+03  0.17024441226E+03 0.  0.
         24    2    3    3    0    0 -0.28072394343E+02 -0.93798989913E+01 -0.38977250366E+02  0.93037106875E+02  0.79124176965E+02 0.  0.
         -6    2    1    2    0  502 -0.53361465464E+02 -0.28765660186E+01  0.13099441357E+03  0.21889820255E+03  0.16703642136E+03 0.  0.
        -24    2    5    5    0    0 -0.81348649970E+02  0.21332492061E+02  0.13982001947E+03  0.18056620144E+03  0.77342337615E+02 0.  0.
          5    1    3    3  501    0  0.81433859807E+02  0.12256465010E+02  0.24327641148E+02  0.85997782421E+02  0.47000000000E+01 0. -1.
        -13    1    4    4    0    0 -0.37893504898E+01  0.55018700276E+01  0.23469800922E+02  0.24402075860E+02  0.00000000000E+00 0.  1.
         14    1    4    4    0    0 -0.24283043853E+02 -0.14881769019E+02 -0.62447051288E+02  0.68635031015E+02  0.00000000000E+00 0. -1.
         -5    1    5    5    0  502  0.27987184506E+02 -0.24209058080E+02 -0.88256058947E+01  0.38332001110E+02  0.47000000000E+01 0.  1.
         13    1    6    6    0    0 -0.78243961094E+02 -0.12095011082E+02  0.84021900781E+02  0.11544733237E+03  0.00000000000E+00 0. -1.
        -14    1    6    6    0    0 -0.31046888763E+01  0.33427503143E+02  0.55798118686E+02  0.65118869065E+02  0.00000000000E+00 0.  1.
</event>
<event>
12    1  0.8135779E-002  0.1948441E+03  0.7818608E-02  0.1154296E+00
         21   -1    0    0  503  502  0.00000000000E+00  0.00000000000E+00  0.17918498950E+03  0.17918498950E+03  0.00000000000E+00 0. -1.
         21   -1    0    0  501  503 -0.00000000000E+00 -0.00000000000E+00 -0.38396577911E+03  0.38396577911E+03  0.00000000000E+00 0. -1.
          6    2    1    2  501    0 -0.87888537187E+02 -0.25371690269E+02 -0.29134778267E+03  0.35049642568E+03  0.17203516009E+03 0.  0.
         24    2    3    3    0    0 -0.25566071510E+02 -0.38266374993E+02 -0.59469213792E+02  0.10999668903E+03  0.80279167538E+02 0.  0.
         -6    2    1    2    0  502  0.87888537187E+02  0.25371690269E+02  0.86566993064E+02  0.21265434293E+03  0.17134733042E+03 0.  0.
        -24    2    5    5    0    0  0.33388702371E+02  0.43036941360E+01 -0.21724789074E+02  0.89515021288E+02  0.80047769155E+02 0.  0.
          5    1    3    3  501    0 -0.62322465677E+02  0.12894684724E+02 -0.23187856888E+03  0.24049973665E+03  0.47000000000E+01 0. -1.
        -13    1    4    4    0    0 -0.51294686288E+02 -0.39975344271E+02 -0.32560717091E+02  0.72728077717E+02  0.00000000000E+00 0.  1.
         14    1    4    4    0    0  0.25728614778E+02  0.17089692779E+01 -0.26908496701E+02  0.37268611311E+02  0.00000000000E+00 0. -1.
         -5    1    5    5    0  502  0.54499834816E+02  0.21067996133E+02  0.10829178214E+03  0.12313932164E+03  0.47000000000E+01 0.  1.
         11    1    6    6    0    0  0.31766104850E+02 -0.29176938629E+02  0.89807719096E+01  0.44057160930E+02  0.00000000000E+00 0. -1.
        -12    1    6    6    0    0  0.16225975208E+01  0.33480632765E+02 -0.30705560984E+02  0.45457860358E+02  0.00000000000E+00 0.  1.
</event>
<event>
12    1  0.8135779E-002  0.1800932E+03  0.7818608E-02  0.1168068E+00
         21   -1    0    0  501  502  0.00000000000E+00  0.00000000000E+00  0.24268552332E+04  0.24268552332E+04  0.00000000000E+00 0.  1.
         21   -1    0    0  502  503 -0.00000000000E+00 -0.00000000000E+00 -0.13999079148E+02  0.13999079148E+02  0.00000000000E+00 0.  1.
         -6    2    1    2    0  503  0.42449018944E+02 -0.26638974742E+02  0.14829203070E+04  0.14936403714E+04  0.17145660676E+03 0.  0.
        -24    2    3    3    0    0 -0.29753998903E+02 -0.24412288470E+02  0.11380183922E+04  0.11412234950E+04  0.76314771576E+02 0.  0.
          6    2    1    2  501    0 -0.42449018944E+02  0.26638974742E+02  0.92993584703E+03  0.94721394092E+03  0.17297981413E+03 0.  0.
         24    2    5    5    0    0 -0.33893369302E+02  0.76341119644E+02  0.44738901037E+03  0.46201599995E+03  0.79530689549E+02 0.  0.
          5    1    5    5  501    0 -0.85556496418E+01 -0.49702144902E+02  0.48254683666E+03  0.48519794097E+03  0.47000000000E+01 0. -1.
        -13    1    6    6    0    0 -0.31919724515E+02  0.73722795400E+02  0.45043356804E+03  0.45754160312E+03  0.00000000000E+00 0.  1.
         14    1    6    6    0    0 -0.19736447869E+01  0.26183242438E+01 -0.30445576664E+01  0.44743968280E+01  0.00000000000E+00 0. -1.
         -5    1    3    3    0  503  0.72203017846E+02 -0.22266862717E+01  0.34490191481E+03  0.35241687638E+03  0.47000000000E+01 0.  1.
         13    1    4    4    0    0 -0.52677628093E+01 -0.10759792465E+02  0.10142060470E+04  0.10142768006E+04  0.00000000000E+00 0. -1.
        -14    1    4    4    0    0 -0.24486236093E+02 -0.13652496005E+02  0.12381234519E+03  0.12694669443E+03  0.00000000000E+00 0.  1.
</event>
<event>
12    1  0.8135779E-002  0.1938338E+03  0.7818608E-02  0.1155721E+00
         21   -1    0    0  503  502  0.00000000000E+00  0.00000000000E+00  0.13272850316E+03  0.13272850316E+03  0.00000000000E+00 0. -1.
         21   -1    0    0  501  503 -0.00000000000E+00 -0.00000000000E+00 -0.57376044200E+03  0.57376044200E+03  0.00000000000E+00 0. -1.
          6    2    1    2  501    0  0.30788984982E+02 -0.75419110642E+02 -0.47469502498E+03  0.51274448380E+03  0.17588500527E+03 0.  0.
         24    2    3    3    0    0  0.60291383117E+02 -0.30733972049E+01 -0.16676780695E+03  0.19502518103E+03  0.81109944841E+02 0.  0.
         -6    2    1    2    0  502 -0.30788984982E+02  0.75419110642E+02  0.33663086147E+02  0.19374446136E+03  0.17253321156E+03 0.  0.
        -24    2    5    5    0    0 -0.16240965037E+02  0.46531562613E+02  0.88584521614E+02  0.12983366893E+03  0.81120951996E+02 0.  0.
          5    1    3    3  501    0 -0.29502398135E+02 -0.72345713437E+02 -0.30792721803E+03  0.31771930277E+03  0.47000000000E+01 0. -1.
        -11    1    4    4    0    0  0.43390339580E+02 -0.40923324699E+02 -0.99993742174E+02  0.11643104632E+03  0.00000000000E+00 0.  1.
         12    1    4    4    0    0  0.16901043537E+02  0.37849927494E+02 -0.66774064779E+02  0.78594134711E+02  0.00000000000E+00 0. -1.
         -5    1    5    5    0  502 -0.14548019945E+02  0.28887548029E+02 -0.54921435467E+02  0.63910792432E+02  0.47000000000E+01 0.  1.
         11    1    6    6    0    0  0.13520658227E+02 -0.14937663911E+02  0.43667892506E+02  0.48091858333E+02  0.00000000000E+00 0. -1.
        -12    1    6    6    0    0 -0.29761623264E+02  0.61469226523E+02  0.44916629108E+02  0.81741810593E+02  0.00000000000E+00 0.  1.
</event>
<event>
12    1  0.8135779E-002  0.2054474E+03  0.7818608E-02  0.1145491E+00
         21   -1    0    0  501  502  0.00000000000E+00  0.00000000000E+00  0.86467735915E+02  0.86467735915E+02  0.00000000000E+00 0.  1.
         21   -1    0    0  502  503 -0.00000000000E+00 -0.00000000000E+00 -0.52009217879E+03  0.52009217879E+03  0.00000000000E+00 0.  1.
         -6    2    1    2    0  503 -0.17778039606E+00  0.10946382894E+03 -0.29490921180E+03  0.35866771974E+03  0.17230417444E+03 0.  0.
        -24    2    3    3    0    0  0.51380006069E+02  0.60040114471E+02 -0.25035740373E+03  0.27435957957E+03  0.79684558925E+02 0.  0.
          6    2    1    2  501    0  0.17778039606E+00 -0.10946382894E+03 -0.13871523108E+03  0.24789219497E+03  0.17385702039E+03 0.  0.
         24    2    5    5    0    0 -0.54271138195E+01 -0.12472474583E+03 -0.39859639442E+02  0.14759848419E+03  0.67902915186E+02 0.  0.
          5    1    5    5  501    0  0.56048942156E+01  0.15260916890E+02 -0.98855591640E+02  0.10029371078E+03  0.47000000000E+01 0. -1.
        -11    1    6    6    0    0 -0.11533092473E+02 -0.34330674919E+02  0.17649003362E+02  0.40287650491E+02  0.00000000000E+00 0.  1.
         12    1    6    6    0    0  0.61059786531E+01 -0.90394070911E+02 -0.57508642804E+02  0.10731083370E+03  0.00000000000E+00 0. -1.
         -5    1    3    3    0  503 -0.51557786465E+02  0.49423714469E+02 -0.44551808068E+02  0.84308140172E+02  0.47000000000E+01 0.  1.
         11    1    4    4    0    0 -0.10496063764E+02 -0.62793904661E+00 -0.12242827892E+01  0.10585864647E+02  0.00000000000E+00 0. -1.
        -12    1    4    4    0    0  0.61876069833E+02  0.60668053518E+02 -0.24913312094E+03  0.26377371492E+03  0.00000000000E+00 0.  1.
</event>
<event>
12    1  0.8135779E-002  0.1835904E+03  0.7818608E-02  0.1164549E+00
         21   -1    0    0  503  502  0.00000000000E+00  0.00000000000E+00  0.43591757423E+03  0.43591757423E+03  0.00000000000E+00 0.  1.
         21   -1    0    0  501  503 -0.00000000000E+00 -0.00000000000E+00 -0.90867968240E+02  0.90867968240E+02  0.00000000000E+00 0.  1.
          6    2    1    2  501    0 -0.54897637934E+02 -0.30031411249E+02  0.69950489864E+02  0.19646497972E+03  0.17259716369E+03 0.  0.
         24    2    3    3    0    0 -0.34701668541E+02 -0.48355852410E+02 -0.21116828705E+02  0.10128615416E+03  0.79186301269E+02 0.  0.
         -6    2    1    2    0  502  0.54897637934E+02  0.30031411249E+02  0.27509911613E+03  0.33032056275E+03  0.17180370825E+03 0.  0.
        -24    2    5    5    0    0  0.90999697344E+02  0.31657252906E+02  0.12918278845E+03  0.17992220259E+03  0.80004247235E+02 0.  0.
          5    1    3    3  501    0 -0.20195969393E+02  0.18324441161E+02  0.91067318569E+02  0.95178825560E+02  0.47000000000E+01 0. -1.
        -13    1    4    4    0    0 -0.56082676452E+02 -0.14469356502E+02 -0.19753448871E+02  0.61194996673E+02  0.00000000000E+00 0.  1.
         14    1    4    4    0    0  0.21381007911E+02 -0.33886495908E+02 -0.13633798338E+01  0.40091157489E+02  0.00000000000E+00 0. -1.
         -5    1    5    5    0  502 -0.36102059411E+02 -0.16258416562E+01  0.14591632768E+03  0.15039836016E+03  0.47000000000E+01 0.  1.
         11    1    6    6    0    0  0.62447820366E+02 -0.18816890157E+02  0.84341022881E+02  0.10661713635E+03  0.00000000000E+00 0. -1.
        -12    1    6    6    0    0  0.28551876978E+02  0.50474143063E+02  0.44841765569E+02  0.73305066239E+02  0.00000000000E+00 0.  1.
</event>
<event>
12    1  0.8135779E-002  0.1786557E+03  0.7818608E-02  0.1170449E+00
         21   -1    0    0  503  502  0.00000000000E+00  0.00000000000E+00  0.96511968989E+02  0.96511968989E+02  0.00000000000E+00 0.  1.
         21   -1    0    0  501  503 -0.00000000000E+00 -0.00000000000E+00 -0.40295716713E+03  0.40295716713E+03  0.00000000000E+00 0.  1.
          6    2    1    2  501    0  0.13296164826E+02  0.14305962248E+02 -0.26783443738E+03  0.32195206486E+03  0.17758490270E+03 0.  0.
         24    2    3    3    0    0  0.67663605452E+02 -0.17762026836E+02 -0.21486306217E+03  0.23941582363E+03  0.79119833293E+02 0.  0.
         -6    2    1    2    0  502 -0.13296164826E+02 -0.14305962248E+02 -0.38610760766E+02  0.17751707126E+03  0.17216292048E+03 0.  0.
        -24    2    5    5    0    0  0.54644234602E+01 -0.38934787150E+02 -0.83715761932E+02  0.12260723773E+03  0.80488684751E+02 0.  0.
          5    1    3    3  501    0 -0.54367440626E+02  0.32067989084E+02 -0.52971375207E+02  0.82536241224E+02  0.47000000000E+01 0. -1.
        -11    1    4    4    0    0  0.27145378335E+00 -0.29686842865E+02 -0.11198078572E+03  0.11584937936E+03  0.00000000000E+00 0.  1.
         12    1    4    4    0    0  0.67392151669E+02  0.11924816029E+02 -0.10288227645E+03  0.12356644428E+03  0.00000000000E+00 0. -1.
         -5    1    5    5    0  502 -0.18760588286E+02  0.24628824902E+02  0.45105001167E+02  0.54909833538E+02  0.47000000000E+01 0.  1.
         13    1    6    6    0    0 -0.28290725773E+02 -0.47961032854E+01 -0.32100057260E+01  0.28873377153E+02  0.00000000000E+00 0. -1.
        -14    1    6    6    0    0  0.33755149233E+02 -0.34138683865E+02 -0.80505756206E+02  0.93733860574E+02  0.00000000000E+00 0.  1.
</event>
<event>
12    1  0.8135779E-002  0.6425697E+03  0.7818608E-02  0.9820972E-01
         21   -1    0    0  503  502  0.00000000000E+00  0.00000000000E+00  0.30820701330E+03  0.30820701330E+03  0.00000000000E+00 0.  1.
         21   -1    0    0  501  503 -0.00000000000E+00 -0.00000000000E+00 -0.13527497768E+04  0.13527497768E+04  0.00000000000E+00 0. -1.
          6    2    1    2  501    0  0.61891522614E+03 -0.47754012055E+01 -0.60582423679E+03  0.88290164973E+03  0.17150351483E+03 0.  0.
         24    2    3    3    0    0  0.14073094916E+03 -0.50958511954E+01 -0.18788944518E+03  0.24780174776E+03  0.79196558206E+02 0.  0.
         -6    2    1    2    0  502 -0.61891522614E+03  0.47754012055E+01 -0.43871852676E+03  0.77805514042E+03  0.17267598036E+03 0.  0.
        -24    2    5    5    0    0 -0.50407938456E+03  0.68358574980E+01 -0.42127540171E+03  0.66178877123E+03  0.79678471084E+02 0.  0.
          5    1    3    3  501    0  0.47818427698E+03  0.32044998995E+00 -0.41793479161E+03  0.63509990197E+03  0.47000000000E+01 0. -1.
        -13    1    4    4    0    0  0.14027836940E+03  0.31545235314E+01 -0.19259944528E+03  0.23829082706E+03  0.00000000000E+00 0.  1.
         14    1    4    4    0    0  0.45257976135E+00 -0.82503747268E+01  0.47100000996E+01  0.95109206974E+01  0.00000000000E+00 0. -1.
         -5    1    5    5    0  502 -0.11483584158E+03 -0.20604562926E+01 -0.17443125053E+02  0.11626636919E+03  0.47000000000E+01 0.  1.
         11    1    6    6    0    0 -0.26181741076E+03  0.75294217559E+01 -0.16729333748E+03  0.31079271152E+03  0.00000000000E+00 0. -1.
        -12    1    6    6    0    0 -0.24226197380E+03 -0.69356425788E+00 -0.25398206423E+03  0.35099605970E+03  0.00000000000E+00 0.  1.
</event>
<event>
12    1  0.8135779E-002  0.1987964E+03  0.7818608E-02  0.1150961E+00
         21   -1    0    0  503  502  0.00000000000E+00  0.00000000000E+00  0.10927830231E+04  0.10927830231E+04  0.00000000000E+00 0. -1.
         21   -1    0    0  501  503 -0.00000000000E+00 -0.00000000000E+00 -0.14549540080E+03  0.14549540080E+03  0.00000000000E+00 0. -1.
          6    2    1    2  501    0  0.99128953943E+02 -0.61468592413E+01 -0.63763962966E+02  0.20786816647E+03  0.17111106998E+03 0.  0.
         24    2    3    3    0    0  0.67644433526E+02  0.53354490386E+02 -0.76414113181E+02  0.13921103331E+03  0.78218438172E+02 0.  0.
         -6    2    1    2    0  502 -0.99128953943E+02  0.61468592413E+01  0.10110515852E+04  0.10304102574E+04  0.17220817966E+03 0.  0.
        -24    2    5    5    0    0 -0.87819139117E+01  0.37424400668E+02  0.69044444414E+03  0.69581811588E+03  0.77276206979E+02 0.  0.
          5    1    3    3  501    0  0.31484520418E+02 -0.59501349627E+02  0.12650150215E+02  0.68657133161E+02  0.47000000000E+01 0. -1.
        -13    1    4    4    0    0 -0.19267776200E+01  0.38385679718E+02 -0.50531404678E+02  0.63486972980E+02  0.00000000000E+00 0.  1.
         14    1    4    4    0    0  0.69571211146E+02  0.14968810668E+02 -0.25882708503E+02  0.75724060328E+02  0.00000000000E+00 0. -1.
         -5    1    5    5    0  502 -0.90347040032E+02 -0.31277541427E+02  0.32060714109E+03  0.33459214150E+03  0.47000000000E+01 0.  1.
         13    1    6    6    0    0  0.32848954500E+01  0.49109406109E+02  0.23671325241E+03  0.24177611167E+03  0.00000000000E+00 0. -1.
        -14    1    6    6    0    0 -0.12066809362E+02 -0.11685005441E+02  0.45373119173E+03  0.45404200422E+03  0.00000000000E+00 0.  1.
</event>
<event>
12    1  0.8135779E-002  0.1802683E+03  0.7818608E-02  0.1167794E+00
         21   -1    0    0  503  502  0.00000000000E+00  0.00000000000E+00  0.13362278481E+04  0.13362278481E+04  0.00000000000E+00 0. -1.
         21   -1    0    0  501  503 -0.00000000000E+00 -0.00000000000E+00 -0.63340170716E+02  0.63340170716E+02  0.00000000000E+00 0. -1.
          6    2    1    2  501    0  0.49973784258E+02 -0.43567006808E+01  0.85516548817E+02  0.19859055288E+03  0.17207198382E+03 0.  0.
         24    2    3    3    0    0  0.31134976431E+02 -0.69866476720E+02  0.62187360996E+02  0.12639102074E+03  0.79099373757E+02 0.  0.
         -6    2    1    2    0  502 -0.49973784258E+02  0.43567006808E+01  0.11873711286E+04  0.12009774660E+04  0.17314825088E+03 0.  0.
        -24    2    5    5    0    0  0.37898809598E+02 -0.10382176979E+02  0.65420000364E+03  0.66039225923E+03  0.81216881915E+02 0.  0.
          5    1    3    3  501    0  0.18838807827E+02  0.65509776039E+02  0.23329187821E+02  0.72199532142E+02  0.47000000000E+01 0. -1.
        -11    1    4    4    0    0 -0.99416881000E+01 -0.14805518819E+02  0.54408908612E+02  0.57257050973E+02  0.00000000000E+00 0.  1.
         12    1    4    4    0    0  0.41076664531E+02 -0.55060957901E+02  0.77784523842E+01  0.69133969764E+02  0.00000000000E+00 0. -1.
         -5    1    5    5    0  502 -0.87872593856E+02  0.14738877660E+02  0.53317112495E+03  0.54058520674E+03  0.47000000000E+01 0.  1.
         11    1    6    6    0    0 -0.24208692244E+02  0.69775259872E+01  0.15298426860E+03  0.15504493893E+03  0.00000000000E+00 0. -1.
        -12    1    6    6    0    0  0.62107501842E+02 -0.17359702967E+02  0.50121573504E+03  0.50534732029E+03  0.00000000000E+00 0.  1.
</event>
<event>
12    1  0.8135779E-002  0.2882478E+03  0.7818608E-02  0.1091281E+00
         21   -1    0    0  501  502  0.00000000000E+00  0.00000000000E+00  0.14763121781E+04  0.14763121781E+04  0.00000000000E+00 0.  1.
         21   -1    0    0  502  503 -0.00000000000E+00 -0.00000000000E+00 -0.73357757159E+02  0.73357757159E+02  0.00000000000E+00 0. -1.
         -6    2    1    2    0  503 -0.78000980334E+02  0.21692462538E+03  0.32730586814E+03  0.43606918525E+03  0.17287786721E+03 0.  0.
        -24    2    3    3    0    0 -0.36363721346E+01  0.19458285386E+03  0.23963896967E+03  0.31886498398E+03  0.79826887716E+02 0.  0.
          6    2    1    2  501    0  0.78000980334E+02 -0.21692462538E+03  0.10756485528E+04  0.11136007500E+04  0.17305021024E+03 0.  0.
         24    2    5    5    0    0  0.11840167208E+03 -0.18550042418E+03  0.82411324289E+03  0.85686781787E+03  0.81427617414E+02 0.  0.
          5    1    5    5  501    0 -0.40400691749E+02 -0.31424201204E+02  0.25153530992E+03  0.25673293216E+03  0.47000000000E+01 0. -1.
        -11    1    6    6    0    0  0.35402578313E+01 -0.11010861998E+02  0.16583122367E+03  0.16623407368E+03  0.00000000000E+00 0.  1.
         12    1    6    6    0    0  0.11486141425E+03 -0.17448956218E+03  0.65828201921E+03  0.69063374419E+03  0.00000000000E+00 0. -1.
         -5    1    3    3    0  503 -0.74364608200E+02  0.22341771515E+02  0.87666898472E+02  0.11720420127E+03  0.47000000000E+01 0.  1.
         13    1    4    4    0    0 -0.19666718070E+02  0.71145807654E+01  0.14464627510E+02  0.25428773233E+02  0.00000000000E+00 0. -1.
        -14    1    4    4    0    0  0.16030345935E+02  0.18746827310E+03  0.22517434216E+03  0.29343621075E+03  0.00000000000E+00 0.  1.
</event>
<event>
12    1  0.8135779E-002  0.1795761E+03  0.7818608E-02  0.1168426E+00
         21   -1    0    0  503  502  0.00000000000E+00  0.00000000000E+00  0.48833360574E+02  0.48833360574E+02  0.00000000000E+00 0. -1.
         21   -1    0    0  501  503 -0.00000000000E+00 -0.00000000000E+00 -0.84013208530E+03  0.84013208530E+03  0.00000000000E+00 0. -1.
          6    2    1    2  501    0 -0.24560475934E+02  0.43922539446E+02 -0.60383096116E+03  0.62996777408E+03  0.17238085818E+03 0.  0.
         24    2    3    3    0    0  0.46097516408E+02 -0.75659963101E+01 -0.32051799914E+03  0.33343456237E+03  0.79149190076E+02 0.  0.
         -6    2    1    2    0  502  0.24560475934E+02 -0.43922539446E+02 -0.18746776357E+03  0.25899767180E+03  0.17147368653E+03 0.  0.
        -24    2    5    5    0    0 -0.33342461500E+02 -0.48304449936E+02 -0.63738088975E+02  0.12223849047E+03  0.86224503154E+02 0.  0.
          5    1    3    3  501    0 -0.70657992342E+02  0.51488535756E+02 -0.28331296202E+03  0.29653321171E+03  0.47000000000E+01 0. -1.
        -11    1    4    4    0    0  0.14216878258E+02 -0.27381598934E+02 -0.40505548469E+02  0.50917296122E+02  0.00000000000E+00 0.  1.
         12    1    4    4    0    0  0.31880638150E+02  0.19815602624E+02 -0.28001245068E+03  0.28251726625E+03  0.00000000000E+00 0. -1.
         -5    1    5    5    0  502  0.57902937435E+02  0.43819104897E+01 -0.12372967459E+03  0.13675918133E+03  0.47000000000E+01 0.  1.
         13    1    6    6    0    0 -0.37276697826E+02 -0.16077139063E+02  0.98785323742E+01  0.41780521815E+02  0.00000000000E+00 0. -1.
        -14    1    6    6    0    0  0.39342363257E+01 -0.32227310873E+02 -0.73616621349E+02  0.80457968657E+02  0.00000000000E+00 0.  1.
</event>
<event>
12    1  0.8135779E-002  0.1998773E+03  0.7818608E-02  0.1150040E+00
         21   -1    0    0  503  502  0.00000000000E+00  0.00000000000E+00  0.14966431485E+04  0.14966431485E+04  0.00000000000E+00 0. -1.
         21   -1    0    0  501  503 -0.00000000000E+00 -0.00000000000E+00 -0.29195387518E+02  0.29195387518E+02  0.00000000000E+00 0.  1.
          6    2    1    2  501    0  0.54824515588E+02  0.83404784655E+02  0.50647870567E+03  0.54449206366E+03  0.17317286878E+03 0.  0.
         24    2    3    3    0    0 -0.24145845403E+02 -0.18501645237E+02  0.11626472709E+03  0.13350510833E+03  0.58144599579E+02 0.  0.
         -6    2    1    2    0  502 -0.54824515588E+02 -0.83404784655E+02  0.96096905534E+03  0.98134647238E+03  0.17209674001E+03 0.  0.
        -24    2    5    5    0    0  0.32525575737E+02 -0.46219774086E+02  0.51359707484E+03  0.52398825129E+03  0.87106553199E+02 0.  0.
          5    1    3    3  501    0  0.78970360991E+02  0.10190642989E+03  0.39021397858E+03  0.41098695533E+03  0.47000000000E+01 0. -1.
        -11    1    4    4    0    0  0.40678810088E+01 -0.81155966599E+01 -0.37202951611E+01  0.98107676119E+01  0.00000000000E+00 0.  1.
         12    1    4    4    0    0 -0.28213726412E+02 -0.10386048577E+02  0.11998502225E+03  0.12369434072E+03  0.00000000000E+00 0. -1.
         -5    1    5    5    0  502 -0.87350091325E+02 -0.37185010569E+02  0.44737198049E+03  0.45735822109E+03  0.47000000000E+01 0.  1.
         11    1    6    6    0    0 -0.20928093341E+02  0.80101657816E+01  0.20123964714E+03  0.20248343988E+03  0.00000000000E+00 0. -1.
        -12    1    6    6    0    0  0.53453669078E+02 -0.54229939867E+02  0.31235742770E+03  0.32150481141E+03  0.00000000000E+00 0.  1.
</event>
<event>
12    1  0.8135779E-002  0.1927737E+03  0.7818608E-02  0.1157977E+00
         21   -1    0    0  501  502  0.00000000000E+00  0.00000000000E+00  0.36424527717E+03  0.36424527717E+03  0.00000000000E+00 0. -1.
         21   -1    0    0  502  503 -0.00000000000E+00 -0.00000000000E+00 -0.12384473692E+03  0.12384473692E+03  0.00000000000E+00 0.  1.
         -6    2    1    2    0  503  0.72113687362E+02 -0.48854878386E+02  0.53013633258E+01  0.18406150288E+03  0.16205970919E+03 0.  0.
        -24    2    3    3    0    0  0.18434304264E+02  0.17075101471E+01 -0.44649919915E+02  0.94869283482E+02  0.81632263446E+02 0.  0.
          6    2    1    2  501    0 -0.72113687362E+02  0.48854878386E+02  0.23509917692E+03  0.30402851121E+03  0.17197246753E+03 0.  0.
         24    2    5    5    0    0 -0.17213412120E+02 -0.37069623063E+02  0.12893471882E+03  0.15675311498E+03  0.79227008188E+02 0.  0.
          5    1    5    5  501    0 -0.54900275242E+02  0.85924501449E+02  0.10616445810E+03  0.14727539623E+03  0.47000000000E+01 0. -1.
        -11    1    6    6    0    0  0.14934001562E+02  0.18982757112E+02  0.28903543864E+02  0.37666753486E+02  0.00000000000E+00 0.  1.
         12    1    6    6    0    0 -0.32147413682E+02 -0.56052380175E+02  0.10003117496E+03  0.11908636149E+03  0.00000000000E+00 0. -1.
         -5    1    3    3    0  503  0.53679383098E+02 -0.50562388533E+02  0.49951283241E+02  0.89192219400E+02  0.47000000000E+01 0.  1.
         11    1    4    4    0    0 -0.22114777235E+02 -0.26303688899E+02 -0.16628100586E+02  0.38176447594E+02  0.00000000000E+00 0. -1.
        -12    1    4    4    0    0  0.40549081499E+02  0.28011199046E+02 -0.28021819330E+02  0.56692835887E+02  0.00000000000E+00 0.  1.
</event>
<event>
12    1  0.8135779E-002  0.2027073E+03  0.7818608E-02  0.1147662E+00
         21   -1    0    0  501  502  0.00000000000E+00  0.00000000000E+00  0.12441688704E+03  0.12441688704E+03  0.00000000000E+00 0. -1.
         21   -1    0    0  502  503 -0.00000000000E+00 -0.00000000000E+00 -0.33255425982E+03  0.33255425982E+03  0.00000000000E+00 0. -1.
         -6    2    1    2    0  503  0.56592289649E+02 -0.89805558576E+02 -0.12858536238E+03  0.24005087967E+03  0.17269193326E+03 0.  0.
        -24    2    3    3    0    0 -0.77618977062E+00 -0.51256148340E+02 -0.13722251994E+02  0.10591354859E+03  0.91660156900E+02 0.  0.
          6    2    1    2  501    0 -0.56592289649E+02  0.89805558576E+02 -0.79552010399E+02  0.21692026720E+03  0.17163377978E+03 0.  0.
         24    2    5    5    0    0 -0.71312464022E+02  0.57812045398E+02 -0.11471755095E+03  0.16693053164E+03  0.79233741409E+02 0.  0.
          5    1    5    5  501    0  0.14720174373E+02  0.31993513178E+02  0.35165540553E+02  0.49989735561E+02  0.47000000000E+01 0. -1.
        -11    1    6    6    0    0 -0.79654759859E+01  0.55212638601E+02 -0.69189383019E+02  0.88876627926E+02  0.00000000000E+00 0.  1.
         12    1    6    6    0    0 -0.63346988036E+02  0.25994067967E+01 -0.45528167934E+02  0.78053903710E+02  0.00000000000E+00 0. -1.
         -5    1    3    3    0  503  0.57368479420E+02 -0.38549410236E+02 -0.11486311038E+03  0.13413733107E+03  0.47000000000E+01 0.  1.
         13    1    4    4    0    0  0.40711875691E+02 -0.44813320156E+02 -0.19328989605E+02  0.63555490124E+02  0.00000000000E+00 0. -1.
        -14    1    4    4    0    0 -0.41488065462E+02 -0.64428281840E+01  0.56067376115E+01  0.42358058471E+02  0.00000000000E+00 0.  1.
</event>
<event>
12    1  0.8135779E-002  0.2194009E+03  0.7818608E-02  0.1134767E+00
         21   -1    0    0  501  502  0.00000000000E+00  0.00000000000E+00  0.12431740646E+03  0.12431740646E+03  0.00000000000E+00 0.  1.
         21   -1    0    0  502  503 -0.00000000000E+00 -0.00000000000E+00 -0.12920338304E+04  0.12920338304E+04  0.00000000000E+00 0.  1.
         -6    2    1    2    0  503 -0.12651915161E+03  0.40165091458E+02 -0.11787485165E+04  0.11989932555E+04  0.17468952849E+03 0.  0.
        -24    2    3    3    0    0 -0.71264235984E+02  0.29088876343E+02 -0.32258518116E+03  0.34096438945E+03  0.79188141248E+02 0.  0.
          6    2    1    2  501    0  0.12651915161E+03 -0.40165091458E+02  0.11032092582E+02  0.21735798131E+03  0.17176278606E+03 0.  0.
         24    2    5    5    0    0  0.13292347840E+03 -0.76652768505E+02  0.28289345041E+02  0.17622078719E+03  0.81909588962E+02 0.  0.
          5    1    5    5  501    0 -0.64043267875E+01  0.36487677047E+02 -0.17257252459E+02  0.41137194123E+02  0.47000000000E+01 0. -1.
        -11    1    6    6    0    0  0.65246191585E+02  0.35050494497E+01 -0.65794424470E+01  0.65670693243E+02  0.00000000000E+00 0.  1.
         12    1    6    6    0    0  0.67677286814E+02 -0.80157817955E+02  0.34868787488E+02  0.11055009394E+03  0.00000000000E+00 0. -1.
         -5    1    3    3    0  503 -0.55254915628E+02  0.11076215115E+02 -0.85616333534E+03  0.85802886607E+03  0.47000000000E+01 0.  1.
         13    1    4    4    0    0 -0.77862065268E+02  0.14815866522E-01 -0.26380808581E+03  0.27505855298E+03  0.00000000000E+00 0. -1.
        -14    1    4    4    0    0  0.65978292834E+01  0.29074060476E+02 -0.58777095344E+02  0.65905836470E+02  0.00000000000E+00 0.  1.
</event>
<event>
12    1  0.8135779E-002  0.2214441E+03  0.7818608E-02  0.1132956E+00
         21   -1    0    0  501  502  0.00000000000E+00  0.00000000000E+00  0.32990531841E+04  0.32990531841E+04  0.00000000000E+00 0. -1.
         21   -1    0    0  502  503 -0.00000000000E+00 -0.00000000000E+00 -0.21600023102E+02  0.21600023102E+02  0.00000000000E+00 0. -1.
         -6    2    1    2    0  503 -0.13338980219E+03 -0.31194851948E+02  0.70992948674E+03  0.74366483395E+03  0.17398721503E+03 0.  0.
        -24    2    3    3    0    0 -0.13025294950E+03  0.19089715461E+02  0.62043955138E+03  0.64085960015E+03  0.91790751752E+02 0.  0.
          6    2    1    2  501    0  0.13338980219E+03  0.31194851948E+02  0.25675236743E+04  0.25769883733E+04  0.17298930570E+03 0.  0.
         24    2    5    5    0    0  0.14882642404E+03  0.19200570000E+02  0.15659741934E+04  0.15752371044E+04  0.81109766481E+02 0.  0.
          5    1    5    5  501    0 -0.15436621854E+02  0.11994281949E+02  0.10015494808E+04  0.10017512689E+04  0.47000000000E+01 0. -1.
        -11    1    6    6    0    0  0.19657320676E+02 -0.16550019379E+02  0.10380520661E+03  0.10693846042E+03  0.00000000000E+00 0.  1.
         12    1    6    6    0    0  0.12916910336E+03  0.35750589379E+02  0.14621689868E+04  0.14682986440E+04  0.00000000000E+00 0. -1.
         -5    1    3    3    0  503 -0.31368526885E+01 -0.50284567410E+02  0.89489935358E+02  0.10280523379E+03  0.47000000000E+01 0.  1.
         11    1    4    4    0    0  0.40326550019E+01 -0.13113338411E+02  0.14847292766E+03  0.14910543987E+03  0.00000000000E+00 0. -1.
        -12    1    4    4    0    0 -0.13428560450E+03  0.32203053872E+02  0.47196662372E+03  0.49175416029E+03  0.00000000000E+00 0.  1.
</event>
<event>
12    1  0.8135779E-002  0.1823979E+03  0.7818608E-02  0.1167446E+00
         21   -1    0    0  501  502  0.00000000000E+00  0.00000000000E+00  0.32606720615E+03  0.32606720615E+03  0.00000000000E+00 0. -1.
         21   -1    0    0  502  503 -0.00000000000E+00 -0.00000000000E+00 -0.15881293291E+03  0.15881293291E+03  0.00000000000E+00 0. -1.
         -6    2    1    2    0  503 -0.23949393327E+02  0.53915689227E+02 -0.67996361133E+02  0.18720269328E+03  0.16413673647E+03 0.  0.
        -24    2    3    3    0    0 -0.60002702282E+01  0.50239443666E+02  0.20842985400E+02  0.96372052562E+02  0.79329298068E+02 0.  0.
          6    2    1    2  501    0  0.23949393327E+02 -0.53915689227E+02  0.23525063437E+03  0.29767744578E+03  0.17259352760E+03 0.  0.
         24    2    5    5    0    0  0.49807787350E+02 -0.95343855085E+02  0.17426526592E+03  0.21940705143E+03  0.78738840006E+02 0.  0.
          5    1    5    5  501    0 -0.25858394024E+02  0.41428165857E+02  0.60985368448E+02  0.78270394355E+02  0.47000000000E+01 0. -1.
        -11    1    6    6    0    0  0.14746603953E+02 -0.16861172163E+02  0.10953537885E+03  0.11180232857E+03  0.00000000000E+00 0.  1.
         12    1    6    6    0    0  0.35061183397E+02 -0.78482682922E+02  0.64729887074E+02  0.10760472285E+03  0.00000000000E+00 0. -1.
         -5    1    3    3    0  503 -0.17949123099E+02  0.36762455615E+01 -0.88839346532E+02  0.90830640721E+02  0.47000000000E+01 0.  1.
         11    1    4    4    0    0 -0.37783398183E+02  0.32860732958E+02 -0.71636004066E+01  0.50583891898E+02  0.00000000000E+00 0. -1.
        -12    1    4    4    0    0  0.31783127955E+02  0.17378710708E+02  0.28006585806E+02  0.45788160664E+02  0.00000000000E+00 0.  1.
</event>
<event>
12    1  0.8135779E-002  0.2924608E+03  0.7818608E-02  0.1089179E+00
         21   -1    0    0  503  502  0.00000000000E+00  0.00000000000E+00  0.26222727323E+03  0.26222727323E+03  0.00000000000E+00 0.  1.
         21   -1    0    0  501  503 -0.00000000000E+00 -0.00000000000E+00 -0.35192056728E+03  0.35192056728E+03  0.00000000000E+00 0. -1.
          6    2    1    2  501    0  0.17338082345E+03  0.15949172706E+03 -0.12932471689E+03  0.31901406388E+03  0.17189115629E+03 0.  0.
         24    2    3    3    0    0  0.13028647927E+03  0.12389479488E+03 -0.25570100059E+02  0.20106757349E+03  0.86312526393E+02 0.  0.
         -6    2    1    2    0  502 -0.17338082345E+03 -0.15949172706E+03  0.39631422844E+02  0.29513377664E+03  0.17330543989E+03 0.  0.
        -24    2    5    5    0    0 -0.62892882354E+02 -0.14675469863E+03  0.86888877522E+01  0.17959440024E+03  0.81769160479E+02 0.  0.
          5    1    3    3  501    0  0.43094344177E+02  0.35596932181E+02 -0.10375461683E+03  0.11794649039E+03  0.47000000000E+01 0. -1.
        -11    1    4    4    0    0  0.11026348192E+02  0.54303762097E+02  0.14526394515E+02  0.57284335293E+02  0.00000000000E+00 0.  1.
         12    1    4    4    0    0  0.11926013108E+03  0.69591032781E+02 -0.40096494574E+02  0.14378323820E+03  0.00000000000E+00 0. -1.
         -5    1    5    5    0  502 -0.11048794110E+03 -0.12737028425E+02  0.30942535091E+02  0.11553937640E+03  0.47000000000E+01 0.  1.
         13    1    6    6    0    0 -0.48477079261E+02 -0.12466792960E+03  0.39080944782E+02  0.13935365130E+03  0.00000000000E+00 0. -1.
        -14    1    6    6    0    0 -0.14415803093E+02 -0.22086769034E+02 -0.30392057029E+02  0.40240748945E+02  0.00000000000E+00 0.  1.
</event>
<event>
12    1  0.8135779E-002  0.2272520E+03  0.7818608E-02  0.1128607E+00
         21   -1    0    0  503  502  0.00000000000E+00  0.00000000000E+00  0.65590553370E+02  0.65590553370E+02  0.00000000000E+00 0.  1.
         21   -1    0    0  501  503 -0.00000000000E+00 -0.00000000000E+00 -0.78726398857E+03  0.78726398857E+03  0.00000000000E+00 0. -1.
          6    2    1    2  501    0 -0.12462994802E+03  0.80747392972E+02 -0.35341069038E+03  0.42016969756E+03  0.17201945604E+03 0.  0.
         24    2    3    3    0    0 -0.13605427578E+03  0.77490642903E+02 -0.36333138165E+03  0.40399466121E+03  0.81770579645E+02 0.  0.
         -6    2    1    2    0  502  0.12462994802E+03 -0.80747392972E+02 -0.36826274482E+03  0.43268484439E+03  0.17188938281E+03 0.  0.
        -24    2    5    5    0    0  0.40012438731E+02 -0.50109038879E+02 -0.30689376614E+03  0.32365698939E+03  0.80362628501E+02 0.  0.
          5    1    3    3  501    0  0.11424327763E+02  0.32567500692E+01  0.99206912666E+01  0.16175036354E+02  0.47000000000E+01 0. -1.
        -13    1    4    4    0    0 -0.71595297056E+02 -0.37495213691E+01 -0.12546287892E+03  0.14450217804E+03  0.00000000000E+00 0.  1.
         14    1    4    4    0    0 -0.64458978723E+02  0.81240164272E+02 -0.23786850273E+03  0.25949248317E+03  0.00000000000E+00 0. -1.
         -5    1    5    5    0  502  0.84617509285E+02 -0.30638354093E+02 -0.61368978685E+02  0.10902785499E+03  0.47000000000E+01 0.  1.
         13    1    6    6    0    0  0.51014573402E+02 -0.65535841451E+02 -0.26423423014E+03  0.27697863021E+03  0.00000000000E+00 0. -1.
        -14    1    6    6    0    0 -0.11002134670E+02  0.15426802572E+02 -0.42659535993E+02  0.46678359184E+02  0.00000000000E+00 0.  1.
</event>
<event>
12    1  0.8135779E-002  0.2359041E+03  0.7818608E-02  0.1122932E+00
         21   -1    0    0  501  502  0.00000000000E+00  0.00000000000E+00  0.57381847217E+03  0.57381847217E+03  0.00000000000E+00 0. -1.
         21   -1    0    0  502  503 -0.00000000000E+00 -0.00000000000E+00 -0.18493272997E+03  0.18493272997E+03  0.00000000000E+00 0.  1.
         -6    2    1    2    0  503  0.11973214476E+03 -0.10107809582E+03 -0.69007519963E+02  0.24366192417E+03  0.17336818489E+03 0.  0.
        -24    2    3    3    0    0  0.10359816014E+03 -0.14360967195E+02  0.12721132573E+01  0.13078374779E+03  0.78510854346E+02 0.  0.
          6    2    1    2  501    0 -0.11973214476E+03  0.10107809582E+03  0.45789326216E+03  0.51508927797E+03  0.17634669491E+03 0.  0.
         24    2    5    5    0    0 -0.72172788825E+02  0.12556248339E+03  0.41111606024E+03  0.44387429225E+03  0.83863720698E+02 0.  0.
          5    1    5    5  501    0 -0.47559355938E+02 -0.24484387573E+02  0.46777201920E+02  0.71214985723E+02  0.47000000000E+01 0. -1.
        -11    1    6    6    0    0 -0.82564613930E+02  0.84018604799E+02  0.23821392291E+03  0.26574784005E+03  0.00000000000E+00 0.  1.
         12    1    6    6    0    0  0.10391825106E+02  0.41543878594E+02  0.17290213733E+03  0.17812645220E+03  0.00000000000E+00 0. -1.
         -5    1    3    3    0  503  0.16133984620E+02 -0.86717128625E+02 -0.70279633221E+02  0.11287817638E+03  0.47000000000E+01 0.  1.
         13    1    4    4    0    0 -0.10398109804E+02  0.44628112148E+01 -0.94566643464E+01  0.14746724111E+02  0.00000000000E+00 0. -1.
        -14    1    4    4    0    0  0.11399626995E+03 -0.18823778410E+02  0.10728777604E+02  0.11603702368E+03  0.00000000000E+00 0.  1.
</event>
<event>
12    1  0.8135779E-002  0.2351671E+03  0.7818608E-02  0.1123188E+00
         21   -1    0    0  501  502  0.00000000000E+00  0.00000000000E+00  0.28515160477E+03  0.28515160477E+03  0.00000000000E+00 0. -1.
         21   -1    0    0  502  503 -0.00000000000E+00 -0.00000000000E+00 -0.21372053567E+03  0.21372053567E+03  0.00000000000E+00 0. -1.
         -6    2    1    2    0  503  0.86349198171E+02  0.12909159689E+03  0.11276134018E+03  0.26010076619E+03  0.17554618856E+03 0.  0.
        -24    2    3    3    0    0  0.25759007522E+02  0.13752202465E+03  0.11907837875E+03  0.19842225865E+03  0.74939300181E+02 0.  0.
          6    2    1    2  501    0 -0.86349198171E+02 -0.12909159689E+03 -0.41330271079E+02  0.23877137425E+03  0.17658639088E+03 0.  0.
         24    2    5    5    0    0 -0.83495186008E+02 -0.16219552273E+03 -0.47386544029E+02  0.20467175940E+03  0.79788538417E+02 0.  0.
          5    1    5    5  501    0 -0.28540121630E+01  0.33103925834E+02  0.60562729497E+01  0.34099614853E+02  0.47000000000E+01 0. -1.
        -11    1    6    6    0    0  0.14535754648E+02 -0.10131226257E+02 -0.30028222875E+00  0.17720611673E+02  0.00000000000E+00 0.  1.
         12    1    6    6    0    0 -0.98030940656E+02 -0.15206429647E+03 -0.47086261800E+02  0.18695114773E+03  0.00000000000E+00 0. -1.
         -5    1    3    3    0  503  0.60590190648E+02 -0.84304277597E+01 -0.63170385634E+01  0.61678507531E+02  0.47000000000E+01 0.  1.
         11    1    4    4    0    0  0.43052551835E+02  0.11617392183E+03  0.70329343787E+02  0.14246444795E+03  0.00000000000E+00 0. -1.
        -12    1    4    4    0    0 -0.17293544313E+02  0.21348102821E+02  0.48749034961E+02  0.55957810702E+02  0.00000000000E+00 0.  1.
</event>
<event>
12    1  0.8135779E-002  0.2413084E+03  0.7818608E-02  0.1119501E+00
         21   -1    0    0  501  502  0.00000000000E+00  0.00000000000E+00  0.82450950146E+02  0.82450950146E+02  0.00000000000E+00 0. -1.
         21   -1    0    0  502  503 -0.00000000000E+00 -0.00000000000E+00 -0.82913839867E+03  0.82913839867E+03  0.00000000000E+00 0. -1.
         -6    2    1    2    0  503 -0.39233648592E+02  0.15931525564E+03 -0.55362047371E+03  0.60255119836E+03  0.17219665464E+03 0.  0.
        -24    2    3    3    0    0 -0.56284907374E+02  0.13209794642E+03 -0.54475482542E+03  0.56890276500E+03  0.79212864911E+02 0.  0.
          6    2    1    2  501    0  0.39233648592E+02 -0.15931525564E+03 -0.19306697482E+03  0.30903815046E+03  0.17694375325E+03 0.  0.
         24    2    5    5    0    0  0.29398910319E+02 -0.43121513982E+02 -0.10207379786E+02  0.92110906502E+02  0.75209491412E+02 0.  0.
          5    1    5    5  501    0  0.98347382735E+01 -0.11619374166E+03 -0.18285959503E+03  0.21692724396E+03  0.47000000000E+01 0. -1.
        -11    1    6    6    0    0  0.40437310519E+02  0.16774864026E+01 -0.19690041557E+02  0.45007641342E+02  0.00000000000E+00 0.  1.
         12    1    6    6    0    0 -0.11038400201E+02 -0.44799000385E+02  0.94826617707E+01  0.47103265160E+02  0.00000000000E+00 0. -1.
         -5    1    3    3    0  503  0.17051258781E+02  0.27217309224E+02 -0.88656482903E+01  0.33648433352E+02  0.47000000000E+01 0.  1.
         11    1    4    4    0    0  0.70593358577E+01  0.18396301632E+02 -0.19010885629E+03  0.19112727533E+03  0.00000000000E+00 0. -1.
        -12    1    4    4    0    0 -0.63344243231E+02  0.11370164478E+03 -0.35464596913E+03  0.37777548967E+03  0.00000000000E+00 0.  1.
</event>
<event>
12    1  0.8135779E-002  0.2037113E+03  0.7818608E-02  0.1146734E+00
         21   -1    0    0  501  502  0.00000000000E+00  0.00000000000E+00  0.40263817626E+03  0.40263817626E+03  0.00000000000E+00 0.  1.
         21   -1    0    0  502  503 -0.00000000000E+00 -0.00000000000E+00 -0.10979455574E+03  0.10979455574E+03  0.00000000000E+00 0.  1.
         -6    2    1    2    0  503 -0.10531740644E+03  0.32394972199E+02  0.21072394728E+03  0.29279227451E+03  0.17082606281E+03 0.  0.
        -24    2    3    3    0    0 -0.35858915967E+02  0.42197240984E+02  0.19934135393E+03  0.22157275610E+03  0.79316088248E+02 0.  0.
          6    2    1    2  501    0  0.10531740644E+03 -0.32394972199E+02  0.82119673244E+02  0.21964045748E+03  0.17133913595E+03 0.  0.
         24    2    5    5    0    0  0.59025756817E+02 -0.17283330673E+02  0.11665888213E+03  0.15975452020E+03  0.90163509570E+02 0.  0.
          5    1    5    5  501    0  0.46291649621E+02 -0.15111641526E+02 -0.34539208882E+02  0.59885937284E+02  0.47000000000E+01 0. -1.
        -13    1    6    6    0    0  0.32159661842E+02 -0.10537808183E+02 -0.56830168711E+01  0.34315971964E+02  0.00000000000E+00 0.  1.
         14    1    6    6    0    0  0.26866094975E+02 -0.67455224900E+01  0.12234189900E+03  0.12543854823E+03  0.00000000000E+00 0. -1.
         -5    1    3    3    0  503 -0.69458490471E+02 -0.98022687852E+01  0.11382593344E+02  0.71219518414E+02  0.47000000000E+01 0.  1.
         11    1    4    4    0    0  0.21889200172E+02  0.20380138051E+02  0.10211072056E+03  0.10640059382E+03  0.00000000000E+00 0. -1.
        -12    1    4    4    0    0 -0.57748116139E+02  0.21817102933E+02  0.97230633373E+02  0.11517216228E+03  0.00000000000E+00 0.  1.
</event>
<event>
12    1  0.8135779E-002  0.1791255E+03  0.7818608E-02  0.1169303E+00
         21   -1    0    0  503  502  0.00000000000E+00  0.00000000000E+00  0.66762724966E+02  0.66762724966E+02  0.00000000000E+00 0. -1.
         21   -1    0    0  501  503 -0.00000000000E+00 -0.00000000000E+00 -0.52935867093E+03  0.52935867093E+03  0.00000000000E+00 0. -1.
          6    2    1    2  501    0 -0.44014223128E+02 -0.26385066256E+02 -0.32657036374E+03  0.37120164429E+03  0.16884618650E+03 0.  0.
         24    2    3    3    0    0  0.12454266971E+02 -0.47873128820E+02 -0.10015170846E+03  0.13681323872E+03  0.78997166746E+02 0.  0.
         -6    2    1    2    0  502  0.44014223128E+02  0.26385066256E+02 -0.13602558222E+03  0.22491975160E+03  0.17161734202E+03 0.  0.
        -24    2    5    5    0    0  0.50995874102E+02 -0.10458325862E+02 -0.14697920103E+02  0.97842331936E+02  0.81529977971E+02 0.  0.
          5    1    3    3  501    0 -0.56468490100E+02  0.21488062564E+02 -0.22641865528E+03  0.23438840557E+03  0.47000000000E+01 0. -1.
        -13    1    4    4    0    0 -0.15859271813E+02  0.42240642614E+01  0.40663107809E+01  0.16908403375E+02  0.00000000000E+00 0.  1.
         14    1    4    4    0    0  0.28313538785E+02 -0.52097193081E+02 -0.10421801924E+03  0.11990483535E+03  0.00000000000E+00 0. -1.
         -5    1    5    5    0  502 -0.69816509741E+01  0.36843392118E+02 -0.12132766212E+03  0.12707741966E+03  0.47000000000E+01 0.  1.
         11    1    6    6    0    0  0.72896290369E+02 -0.17681473012E+01 -0.80492269543E+01  0.73360653957E+02  0.00000000000E+00 0. -1.
        -12    1    6    6    0    0 -0.21900416267E+02 -0.86901785607E+01 -0.66486931490E+01  0.24481677979E+02  0.00000000000E+00 0.  1.
</event>
<event>
12    1  0.8135779E-002  0.2668048E+03  0.7818608E-02  0.1103260E+00
         21   -1    0    0  501  502  0.00000000000E+00  0.00000000000E+00  0.26336423888E+03  0.26336423888E+03  0.00000000000E+00 0.  1.
         21   -1    0    0  502  503 -0.00000000000E+00 -0.00000000000E+00 -0.32281040645E+03  0.32281040645E+03  0.00000000000E+00 0.  1.
         -6    2    1    2    0  503 -0.13425635458E+03  0.15191680277E+03 -0.14906097011E+03  0.30562061996E+03  0.17343963454E+03 0.  0.
        -24    2    3    3    0    0 -0.14592289752E+03  0.92683502273E+02 -0.63015601796E+02  0.20040376048E+03  0.79416481480E+02 0.  0.
          6    2    1    2  501    0  0.13425635458E+03 -0.15191680277E+03  0.89614802537E+02  0.28055402536E+03  0.17197751191E+03 0.  0.
         24    2    5    5    0    0  0.80329642013E+01 -0.78576427394E+02  0.74059802077E+02  0.13366902620E+03  0.78382209878E+02 0.  0.
          5    1    5    5  501    0  0.12622339038E+03 -0.73340375378E+02  0.15555000460E+02  0.14688499916E+03  0.47000000000E+01 0. -1.
        -11    1    6    6    0    0  0.24856191533E+02 -0.88308328598E+02  0.58895988375E+02  0.10901801963E+03  0.00000000000E+00 0.  1.
         12    1    6    6    0    0 -0.16823227332E+02  0.97319012034E+01  0.15163813702E+02  0.24651006569E+02  0.00000000000E+00 0. -1.
         -5    1    3    3    0  503  0.11666542937E+02  0.59233300499E+02 -0.86045368310E+02  0.10521685948E+03  0.47000000000E+01 0.  1.
         13    1    4    4    0    0 -0.50394582825E+01 -0.27445592535E+01  0.12868045024E+02  0.14089546764E+02  0.00000000000E+00 0. -1.
        -14    1    4    4    0    0 -0.14088343924E+03  0.95428061526E+02 -0.75883646820E+02  0.18631421372E+03  0.00000000000E+00 0.  1.
</event>
<event>
12    1  0.8135779E-002  0.2711427E+03  0.7818608E-02  0.1100957E+00
         21   -1    0    0  501  502  0.00000000000E+00  0.00000000000E+00  0.19933381510E+03  0.19933381510E+03  0.00000000000E+00 0. -1.
         21   -1    0    0  502  503 -0.00000000000E+00 -0.00000000000E+00 -0.50083834807E+03  0.50083834807E+03  0.00000000000E+00 0.  1.
         -6    2    1    2    0  503  0.13301967349E+03  0.16048514028E+03  0.30632863836E+02  0.27286765099E+03  0.17340319727E+03 0.  0.
        -24    2    3    3    0    0  0.92147138771E+02  0.18281180322E+03  0.37570573216E+02  0.22554676993E+03  0.86882373785E+02 0.  0.
          6    2    1    2  501    0 -0.13301967349E+03 -0.16048514028E+03 -0.33213739681E+03  0.42730451219E+03  0.16977685942E+03 0.  0.
         24    2    5    5    0    0 -0.15164697400E+03 -0.17306696244E+03 -0.31638941214E+03  0.39945908897E+03  0.80723760013E+02 0.  0.
          5    1    5    5  501    0  0.18627300513E+02  0.12581822163E+02 -0.15747984669E+02  0.27845423223E+02  0.47000000000E+01 0. -1.
        -11    1    6    6    0    0 -0.66471441270E+02 -0.13489699501E+03 -0.20159446265E+03  0.25150741369E+03  0.00000000000E+00 0.  1.
         12    1    6    6    0    0 -0.85175532732E+02 -0.38169967430E+02 -0.11479494949E+03  0.14795167528E+03  0.00000000000E+00 0. -1.
         -5    1    3    3    0  503  0.40872534718E+02 -0.22326662940E+02 -0.69377093806E+01  0.47320881054E+02  0.47000000000E+01 0.  1.
         13    1    4    4    0    0  0.55039351557E+02  0.11810251108E+03  0.65575793796E+02  0.14586883860E+03  0.00000000000E+00 0. -1.
        -14    1    4    4    0    0  0.37107787215E+02  0.64709292142E+02 -0.28005220580E+02  0.79677931331E+02  0.00000000000E+00 0.  1.
</event>
<event>
12    1  0.8135779E-002  0.1714050E+03  0.7818608E-02  0.1176398E+00
         21   -1    0    0  503  502  0.00000000000E+00  0.00000000000E+00  0.25450029383E+03  0.25450029383E+03  0.00000000000E+00 0.  1.
         21   -1    0    0  501  503 -0.00000000000E+00 -0.00000000000E+00 -0.14390866380E+03  0.14390866380E+03  0.00000000000E+00 0.  1.
          6    2    1    2  501    0 -0.94038655419E+00 -0.46899795549E+00 -0.33338584858E+02  0.17458851208E+03  0.17137264374E+03 0.  0.
         24    2    3    3    0    0 -0.52937948606E+02 -0.36046999529E+02 -0.41746505047E+02  0.11085215058E+03  0.80272137295E+02 0.  0.
         -6    2    1    2    0  502  0.94038655419E+00  0.46899795549E+00  0.14393021489E+03  0.22382044556E+03  0.17140181098E+03 0.  0.
        -24    2    5    5    0    0 -0.56142609550E+01  0.76596102710E+00 -0.46748281109E+00  0.79197360636E+02  0.78993017218E+02 0.  0.
          5    1    3    3  501    0  0.51997562052E+02  0.35578001574E+02  0.84079201894E+01  0.63736361500E+02  0.47000000000E+01 0. -1.
        -11    1    4    4    0    0 -0.27390899489E+02  0.19503515727E+02 -0.36278270472E+02  0.49464749155E+02  0.00000000000E+00 0.  1.
         12    1    4    4    0    0 -0.25547049117E+02 -0.55550515256E+02 -0.54682345751E+01  0.61387401420E+02  0.00000000000E+00 0. -1.
         -5    1    5    5    0  502  0.65546475091E+01 -0.29696307162E+00  0.14439769770E+03  0.14462308492E+03  0.47000000000E+01 0.  1.
         13    1    6    6    0    0 -0.22470517037E+02  0.26729351667E+02  0.21709415963E+02  0.41117892916E+02  0.00000000000E+00 0. -1.
        -14    1    6    6    0    0  0.16856256082E+02 -0.25963390640E+02 -0.22176898774E+02  0.38079467720E+02  0.00000000000E+00 0.  1.
</event>
<event>
12    1  0.8135779E-002  0.2058574E+03  0.7818608E-02  0.1145192E+00
         21   -1    0    0  503  502  0.00000000000E+00  0.00000000000E+00  0.56201424232E+02  0.56201424232E+02  0.00000000000E+00 0. -1.
         21   -1    0    0  501  503 -0.00000000000E+00 -0.00000000000E+00 -0.82027337263E+03  0.82027337263E+03  0.00000000000E+00 0.  1.
          6    2    1    2  501    0  0.57711796037E+02  0.95715057877E+02 -0.51283551976E+03  0.55260975227E+03  0.17287349209E+03 0.  0.
         24    2    3    3    0    0  0.73269592607E+02  0.13096128885E+03 -0.42242103175E+03  0.45421660477E+03  0.73170373847E+02 0.  0.
         -6    2    1    2    0  502 -0.57711796037E+02 -0.95715057877E+02 -0.25123642864E+03  0.32386504459E+03  0.17110464730E+03 0.  0.
        -24    2    5    5    0    0  0.15516265083E+02 -0.23180588049E+02 -0.27740223502E+02  0.77702005209E+02  0.67007368767E+02 0.  0.
          5    1    3    3  501    0 -0.15557796570E+02 -0.35246230974E+02 -0.90414488015E+02  0.98393147500E+02  0.47000000000E+01 0. -1.
        -13    1    4    4    0    0 -0.13892545095E+02  0.25071953089E+02 -0.54763227697E+02  0.61811137740E+02  0.00000000000E+00 0.  1.
         14    1    4    4    0    0  0.87162137702E+02  0.10588933576E+03 -0.36765780405E+03  0.39240546703E+03  0.00000000000E+00 0. -1.
         -5    1    5    5    0  502 -0.73228061120E+02 -0.72534469828E+02 -0.22349620514E+03  0.24616303938E+03  0.47000000000E+01 0.  1.
         11    1    6    6    0    0 -0.21650374438E+02 -0.78012992310E+01  0.75216749050E+01  0.24211042447E+02  0.00000000000E+00 0. -1.
        -12    1    6    6    0    0  0.37166639521E+02 -0.15379288818E+02 -0.35261898407E+02  0.53490962761E+02  0.00000000000E+00 0.  1.
</event>
<event>
12    1  0.8135779E-002  0.1852826E+03  0.7818608E-02  0.1164480E+00
         21   -1    0    0  503  502  0.00000000000E+00  0.00000000000E+00  0.31655664214E+03  0.31655664214E+03  0.00000000000E+00 0. -1.
         21   -1    0    0  501  503 -0.00000000000E+00 -0.00000000000E+00 -0.13786130015E+03  0.13786130015E+03  0.00000000000E+00 0. -1.
          6    2    1    2  501    0 -0.45760696766E+02  0.41443484892E+02 -0.24029518934E+02  0.17977813953E+03  0.16712617349E+03 0.  0.
         24    2    3    3    0    0 -0.63807870132E+02 -0.15241833391E+02  0.19178536444E+02  0.10610350465E+03  0.81156513378E+02 0.  0.
         -6    2    1    2    0  502  0.45760696766E+02 -0.41443484892E+02  0.20272486092E+03  0.27463980276E+03  0.17469415622E+03 0.  0.
        -24    2    5    5    0    0  0.41820455004E+02  0.28118967606E+02  0.50655889609E+02  0.10730324866E+03  0.80052115679E+02 0.  0.
          5    1    3    3  501    0  0.18047173366E+02  0.56685318283E+02 -0.43208055378E+02  0.73674634881E+02  0.47000000000E+01 0. -1.
        -11    1    4    4    0    0 -0.24856894418E+02  0.65131265199E+01  0.46971104705E+02  0.53540365094E+02  0.00000000000E+00 0.  1.
         12    1    4    4    0    0 -0.38950975714E+02 -0.21754959911E+02 -0.27792568261E+02  0.52563139559E+02  0.00000000000E+00 0. -1.
         -5    1    5    5    0  502  0.39402417618E+01 -0.69562452497E+02  0.15206897131E+03  0.16733655410E+03  0.47000000000E+01 0.  1.
         11    1    6    6    0    0 -0.13438528930E+02  0.34368030527E+02  0.31398125472E+02  0.48452016112E+02  0.00000000000E+00 0. -1.
        -12    1    6    6    0    0  0.55258983933E+02 -0.62490629219E+01  0.19257764137E+02  0.58851232547E+02  0.00000000000E+00 0.  1.
</event>
<event>
12    1  0.8135779E-002  0.2830586E+03  0.7818608E-02  0.1094064E+00
         21   -1    0    0  501  502  0.00000000000E+00  0.00000000000E+00  0.31325811174E+03  0.31325811174E+03  0.00000000000E+00 0. -1.
         21   -1    0    0  502  503 -0.00000000000E+00 -0.00000000000E+00 -0.38171385308E+03  0.38171385308E+03  0.00000000000E+00 0. -1.
         -6    2    1    2    0  503  0.96494714840E+02  0.20246106058E+03 -0.23399770363E+03  0.36705990618E+03  0.17226821639E+03 0.  0.
        -24    2    3    3    0    0  0.40421311830E+02  0.20608503111E+03 -0.16925799545E+03  0.28120724459E+03  0.79525611513E+02 0.  0.
          6    2    1    2  501    0 -0.96494714840E+02 -0.20246106058E+03  0.16554196229E+03  0.32791205865E+03  0.17268603268E+03 0.  0.
         24    2    5    5    0    0  0.94313892783E+01 -0.84090248857E+02  0.34935367320E+02  0.12221285774E+03  0.80965311406E+02 0.  0.
          5    1    5    5  501    0 -0.10592610412E+03 -0.11837081173E+03  0.13060659497E+03  0.20569920090E+03  0.47000000000E+01 0. -1.
        -13    1    6    6    0    0 -0.20734461329E+02 -0.89834019125E+01 -0.14988563857E+02  0.27115981321E+02  0.00000000000E+00 0.  1.
         14    1    6    6    0    0  0.30165850607E+02 -0.75106846945E+02  0.49923931177E+02  0.95096876421E+02  0.00000000000E+00 0. -1.
         -5    1    3    3    0  503  0.56073403011E+02 -0.36239705262E+01 -0.64739708182E+02  0.85852661596E+02  0.47000000000E+01 0.  1.
         11    1    4    4    0    0  0.60099387314E+02  0.15984087093E+03 -0.10833945873E+03  0.20223372294E+03  0.00000000000E+00 0. -1.
        -12    1    4    4    0    0 -0.19678075485E+02  0.46244160179E+02 -0.60918536719E+02  0.78973521648E+02  0.00000000000E+00 0.  1.
</event>
<event>
12    1  0.8135779E-002  0.1731414E+03  0.7818608E-02  0.1174703E+00
         21   -1    0    0  501  502  0.00000000000E+00  0.00000000000E+00  0.25887612144E+03  0.25887612144E+03  0.00000000000E+00 0.  1.
         21   -1    0    0  502  503 -0.00000000000E+00 -0.00000000000E+00 -0.13478894367E+03  0.13478894367E+03  0.00000000000E+00 0. -1.
         -6    2    1    2    0  503  0.13961144106E+02  0.37311144712E+01 -0.12247560219E+02  0.17357400898E+03  0.17253723976E+03 0.  0.
        -24    2    3    3    0    0  0.76848730732E+02  0.24960653975E+02 -0.32046112227E+02  0.10415056510E+03  0.57372687229E+02 0.  0.
          6    2    1    2  501    0 -0.13961144106E+02 -0.37311144712E+01  0.13633473799E+03  0.22009105613E+03  0.17217455517E+03 0.  0.
         24    2    5    5    0    0 -0.44433182721E+02 -0.42335544529E+02  0.34271235108E+02  0.10669839421E+03  0.80270939412E+02 0.  0.
          5    1    5    5  501    0  0.30472038615E+02  0.38604430058E+02  0.10206350288E+03  0.11339266192E+03  0.47000000000E+01 0. -1.
        -11    1    6    6    0    0  0.16020889302E+02 -0.29658258150E+02 -0.41372978806E+01  0.33961719689E+02  0.00000000000E+00 0.  1.
         12    1    6    6    0    0 -0.60454072023E+02 -0.12677286379E+02  0.38408532989E+02  0.72736674522E+02  0.00000000000E+00 0. -1.
         -5    1    3    3    0  503 -0.62887586626E+02 -0.21229539503E+02  0.19798552008E+02  0.69423443884E+02  0.47000000000E+01 0.  1.
         11    1    4    4    0    0  0.25553225551E+02  0.23647484247E+02 -0.39101469761E+02  0.52355475213E+02  0.00000000000E+00 0. -1.
        -12    1    4    4    0    0  0.51295505181E+02  0.13131697272E+01  0.70553575345E+01  0.51795089887E+02  0.00000000000E+00 0.  1.
</event>
<event>
12    1  0.8135779E-002  0.1776800E+03  0.7818608E-02  0.1170193E+00
         21   -1    0    0  501  502  0.00000000000E+00  0.00000000000E+00  0.86893062453E+03  0.86893062453E+03  0.00000000000E+00 0.  1.
         21   -1    0    0  502  503 -0.00000000000E+00 -0.00000000000E+00 -0.75361409562E+02  0.75361409562E+02  0.00000000000E+00 0.  1.
         -6    2    1    2    0  503  0.42017580012E+02 -0.13641805386E+02  0.56827188798E+02  0.18654626726E+03  0.17210056525E+03 0.  0.
        -24    2    3    3    0    0 -0.13586396344E+02  0.49156089452E+02  0.17081495903E+02  0.93609794949E+02  0.76616609898E+02 0.  0.
          6    2    1    2  501    0 -0.42017580012E+02  0.13641805386E+02  0.73674202617E+03  0.75774576683E+03  0.17157580871E+03 0.  0.
         24    2    5    5    0    0  0.40440755672E+02  0.22928960875E+02  0.45167810659E+03  0.46081285079E+03  0.78575947417E+02 0.  0.
          5    1    5    5  501    0 -0.82458335684E+02 -0.92871554893E+01  0.28506391958E+03  0.29693291604E+03  0.47000000000E+01 0. -1.
        -13    1    6    6    0    0  0.15069222048E+02 -0.28202819338E+02  0.11647821594E+03  0.12078764531E+03  0.00000000000E+00 0.  1.
         14    1    6    6    0    0  0.25371533624E+02  0.51131780213E+02  0.33519989066E+03  0.34002520548E+03  0.00000000000E+00 0. -1.
         -5    1    3    3    0  503  0.55603976356E+02 -0.62797894838E+02  0.39745692895E+02  0.92936472315E+02  0.47000000000E+01 0.  1.
         13    1    4    4    0    0 -0.18552387312E+02 -0.11722082219E+02  0.23547352886E+02  0.32188136238E+02  0.00000000000E+00 0. -1.
        -14    1    4    4    0    0  0.49659909679E+01  0.60878171671E+02 -0.64658569836E+01  0.61421658711E+02  0.00000000000E+00 0.  1.
</event>
<event>
12    1  0.8135779E-002  0.2428728E+03  0.7818608E-02  0.1118057E+00
         21   -1    0    0  501  502  0.00000000000E+00  0.00000000000E+00  0.83294466951E+02  0.83294466951E+02  0.00000000000E+00 0. -1.
         21   -1    0    0  502  503 -0.00000000000E+00 -0.00000000000E+00 -0.75404249369E+03  0.75404249369E+03  0.00000000000E+00 0. -1.
         -6    2    1    2    0  503 -0.14639305426E+03  0.89630453581E+02 -0.44118849495E+03  0.50314422781E+03  0.17041796078E+03 0.  0.
        -24    2    3    3    0    0 -0.36780279295E+02  0.93196268254E+02 -0.19206904937E+03  0.23091222448E+03  0.79947497317E+02 0.  0.
          6    2    1    2  501    0  0.14639305426E+03 -0.89630453581E+02 -0.22955953180E+03  0.33419273284E+03  0.17182159206E+03 0.  0.
         24    2    5    5    0    0  0.15664879107E+03 -0.99110724925E+02 -0.24391289492E+03  0.31362176506E+03  0.67106867548E+02 0.  0.
          5    1    5    5  501    0 -0.10255736808E+02  0.94802713439E+01  0.14353363125E+02  0.20570967775E+02  0.47000000000E+01 0. -1.
        -11    1    6    6    0    0  0.39159009022E+02 -0.28807316646E+02 -0.11795181771E+03  0.12757711699E+03  0.00000000000E+00 0.  1.
         12    1    6    6    0    0  0.11748978205E+03 -0.70303408279E+02 -0.12596107721E+03  0.18604464807E+03  0.00000000000E+00 0. -1.
         -5    1    3    3    0  503 -0.10961277497E+03 -0.35658146737E+01 -0.24911944557E+03  0.27223200332E+03  0.47000000000E+01 0.  1.
         13    1    4    4    0    0 -0.29318896708E+02 -0.82482510767E+00 -0.22838052638E+02  0.37173306134E+02  0.00000000000E+00 0. -1.
        -14    1    4    4    0    0 -0.74613825866E+01  0.94021093362E+02 -0.16923099673E+03  0.19373891835E+03  0.00000000000E+00 0.  1.
</event>
<event>
12    1  0.8135779E-002  0.2387482E+03  0.7818608E-02  0.1122962E+00
         21   -1    0    0  501  502  0.00000000000E+00  0.00000000000E+00  0.17669649407E+03  0.17669649407E+03  0.00000000000E+00 0.  1.
         21   -1    0    0  502  503 -0.00000000000E+00 -0.00000000000E+00 -0.37589927892E+03  0.37589927892E+03  0.00000000000E+00 0. -1.
         -6    2    1    2    0  503 -0.94838477504E+02  0.11054474705E+03 -0.22221608309E+03  0.32616053166E+03  0.18917247927E+03 0.  0.
        -24    2    3    3    0    0 -0.40573404094E+02  0.13830564051E+03 -0.10923268466E+03  0.19769768210E+03  0.79862023453E+02 0.  0.
          6    2    1    2  501    0  0.94838477504E+02 -0.11054474705E+03  0.23013298236E+02  0.22643524133E+03  0.17183954348E+03 0.  0.
         24    2    5    5    0    0  0.13223700389E+02 -0.10801333053E+03  0.28938643768E+02  0.14443170706E+03  0.90450688648E+02 0.  0.
          5    1    5    5  501    0  0.81614777115E+02 -0.25314165207E+01 -0.59253455327E+01  0.82003534270E+02  0.47000000000E+01 0. -1.
        -11    1    6    6    0    0  0.45329274635E+02 -0.93803247380E+02  0.32521694025E+02  0.10913960299E+03  0.00000000000E+00 0.  1.
         12    1    6    6    0    0 -0.32105574246E+02 -0.14210083154E+02 -0.35830502570E+01  0.35292104075E+02  0.00000000000E+00 0. -1.
         -5    1    3    3    0  503 -0.54265073410E+02 -0.27760893458E+02 -0.11298339842E+03  0.12846284956E+03  0.47000000000E+01 0.  1.
         11    1    4    4    0    0 -0.46278836711E+02  0.77296206315E+02 -0.10185237608E+03  0.13597919234E+03  0.00000000000E+00 0. -1.
        -12    1    4    4    0    0  0.57054326171E+01  0.61009434197E+02 -0.73803085864E+01  0.61718489752E+02  0.00000000000E+00 0.  1.
</event>
<event>
12    1  0.8135779E-002  0.2856105E+03  0.7818608E-02  0.1092681E+00
         21   -1    0    0  501  502  0.00000000000E+00  0.00000000000E+00  0.11418443874E+03  0.11418443874E+03  0.00000000000E+00 0. -1.
         21   -1    0    0  502  503 -0.00000000000E+00 -0.00000000000E+00 -0.75319777209E+03  0.75319777209E+03  0.00000000000E+00 0. -1.
         -6    2    1    2    0  503  0.22743128324E+03 -0.12582431020E+02 -0.41829151782E+03  0.50642310703E+03  0.17208504666E+03 0.  0.
        -24    2    3    3    0    0  0.12842789638E+03 -0.45968596156E+02 -0.34253868918E+03  0.37728408241E+03  0.80023052011E+02 0.  0.
          6    2    1    2  501    0 -0.22743128324E+03  0.12582431020E+02 -0.22072181553E+03  0.36095910380E+03  0.17230800503E+03 0.  0.
         24    2    5    5    0    0 -0.33258183262E+02 -0.17445834940E+02 -0.55411525244E+02  0.10414307707E+03  0.79780194664E+02 0.  0.
          5    1    5    5  501    0 -0.19417309998E+03  0.30028265960E+02 -0.16531029029E+03  0.25681602673E+03  0.47000000000E+01 0. -1.
        -13    1    6    6    0    0  0.54342800997E+01  0.21263021422E+02 -0.42617779517E+02  0.47936652065E+02  0.00000000000E+00 0.  1.
         14    1    6    6    0    0 -0.38692463362E+02 -0.38708856363E+02 -0.12793745726E+02  0.56206425003E+02  0.00000000000E+00 0. -1.
         -5    1    3    3    0  503  0.99003386862E+02  0.33386165137E+02 -0.75752828637E+02  0.12913902462E+03  0.47000000000E+01 0.  1.
         13    1    4    4    0    0  0.14260400406E+01  0.13698961937E+02 -0.63189050601E+02  0.64672646955E+02  0.00000000000E+00 0. -1.
        -14    1    4    4    0    0  0.12700185634E+03 -0.59667558093E+02 -0.27934963858E+03  0.31261143545E+03  0.00000000000E+00 0.  1.
</event>
<event>
12    1  0.8135779E-002  0.2202189E+03  0.7818608E-02  0.1134766E+00
         21   -1    0    0  503  502  0.00000000000E+00  0.00000000000E+00  0.94249842707E+03  0.94249842707E+03  0.00000000000E+00 0. -1.
         21   -1    0    0  501  503 -0.00000000000E+00 -0.00000000000E+00 -0.99025696617E+02  0.99025696617E+02  0.00000000000E+00 0. -1.
          6    2    1    2  501    0 -0.19521475367E+02  0.13678685228E+03  0.53239999120E+02  0.22118021982E+03  0.16429991229E+03 0.  0.
         24    2    3    3    0    0 -0.31905337285E+02  0.83492231306E+02 -0.27728005298E+02  0.12334574533E+03  0.80351897158E+02 0.  0.
         -6    2    1    2    0  502  0.19521475367E+02 -0.13678685228E+03  0.79023273134E+03  0.82034390387E+03  0.17147775360E+03 0.  0.
        -24    2    5    5    0    0 -0.34944991728E+02 -0.13561881974E+03  0.52164220941E+03  0.54624370539E+03  0.81596411219E+02 0.  0.
          5    1    3    3  501    0  0.12383861919E+02  0.53294620970E+02  0.80968004418E+02  0.97834474495E+02  0.47000000000E+01 0. -1.
        -13    1    4    4    0    0 -0.57591955051E+01 -0.13376055859E+02 -0.17082530200E+02  0.22447717952E+02  0.00000000000E+00 0.  1.
         14    1    4    4    0    0 -0.26146141780E+02  0.96868287165E+02 -0.10645475097E+02  0.10089802738E+03  0.00000000000E+00 0. -1.
         -5    1    5    5    0  502  0.54466467094E+02 -0.11680325396E+01  0.26859052192E+03  0.27410019848E+03  0.47000000000E+01 0.  1.
         11    1    6    6    0    0 -0.56860826099E+02 -0.72575903592E+02  0.35385383958E+03  0.36566782072E+03  0.00000000000E+00 0. -1.
        -12    1    6    6    0    0  0.21915834371E+02 -0.63042916144E+02  0.16778836983E+03  0.18057588467E+03  0.00000000000E+00 0.  1.
</event>
<event>
12    1  0.8135779E-002  0.1880970E+03  0.7818608E-02  0.1160439E+00
         21   -1    0    0  503  502  0.00000000000E+00  0.00000000000E+00  0.32874823589E+04  0.32874823589E+04  0.00000000000E+00 0.  1.
         21   -1    0    0  501  503 -0.00000000000E+00 -0.00000000000E+00 -0.11641925067E+02  0.11641925067E+02  0.00000000000E+00 0.  1.
          6    2    1    2  501    0 -0.66668183564E+02  0.35045310329E+02  0.11642970230E+04  0.11792195577E+04  0.17116771631E+03 0.  0.
         24    2    3    3    0    0 -0.17714246398E+02 -0.19047194782E+02  0.92835041866E+03  0.93220664881E+03  0.80611079364E+02 0.  0.
         -6    2    1    2    0  502  0.66668183564E+02 -0.35045310329E+02  0.21115434109E+04  0.21199047263E+04  0.17235907863E+03 0.  0.
        -24    2    5    5    0    0  0.39369366462E+02  0.97024977068E+00  0.52047139906E+03  0.52818409037E+03  0.80852134653E+02 0.  0.
          5    1    3    3  501    0 -0.48953937165E+02  0.54092505112E+02  0.23594660431E+03  0.24701290889E+03  0.47000000000E+01 0. -1.
        -11    1    4    4    0    0 -0.41815262499E+01  0.27641089531E+01  0.18382302678E+01  0.53389653118E+01  0.00000000000E+00 0.  1.
         12    1    4    4    0    0 -0.13532720148E+02 -0.21811303735E+02  0.92651218839E+03  0.92686768350E+03  0.00000000000E+00 0. -1.
         -5    1    5    5    0  502  0.27298817101E+02 -0.36015560100E+02  0.15910720118E+04  0.15917206359E+04  0.47000000000E+01 0.  1.
         11    1    6    6    0    0 -0.24284702626E+02  0.86840750228E+01  0.14399554863E+03  0.14628697128E+03  0.00000000000E+00 0. -1.
        -12    1    6    6    0    0  0.63654069088E+02 -0.77138252521E+01  0.37647585043E+03  0.38189711909E+03  0.00000000000E+00 0.  1.
</event>
<event>
12    1  0.8135779E-002  0.1933863E+03  0.7818608E-02  0.1155582E+00
         21   -1    0    0  501  502  0.00000000000E+00  0.00000000000E+00  0.37026551172E+03  0.37026551172E+03  0.00000000000E+00 0.  1.
         21   -1    0    0  502  503 -0.00000000000E+00 -0.00000000000E+00 -0.10500510138E+03  0.10500510138E+03  0.00000000000E+00 0. -1.
         -6    2    1    2    0  503 -0.61864549725E+02  0.65237109522E+02  0.18068855377E+03  0.26420033121E+03  0.17050031840E+03 0.  0.
        -24    2    3    3    0    0 -0.88129903359E+02 -0.25700290571E+01  0.88551686220E+02  0.14673131740E+03  0.76910294874E+02 0.  0.
          6    2    1    2  501    0  0.61864549725E+02 -0.65237109522E+02  0.84571856571E+02  0.21107028190E+03  0.17121671065E+03 0.  0.
         24    2    5    5    0    0  0.42776017378E+01 -0.66645989125E+02  0.16168822726E+01  0.10996707087E+03  0.87350767734E+02 0.  0.
          5    1    5    5  501    0  0.57586947987E+02  0.14088796030E+01  0.82954974298E+02  0.10110321103E+03  0.47000000000E+01 0. -1.
        -11    1    6    6    0    0  0.78618742898E+01 -0.86633645813E+02  0.10843223744E+02  0.87662837938E+02  0.00000000000E+00 0.  1.
         12    1    6    6    0    0 -0.35842725520E+01  0.19987656688E+02 -0.92263414713E+01  0.22304232929E+02  0.00000000000E+00 0. -1.
         -5    1    3    3    0  503  0.26265353634E+02  0.67807138579E+02  0.92136867547E+02  0.11746901381E+03  0.47000000000E+01 0.  1.
         11    1    4    4    0    0 -0.83460008696E+00 -0.12633550444E+02 -0.89269536386E+01  0.15491728612E+02  0.00000000000E+00 0. -1.
        -12    1    4    4    0    0 -0.87295303272E+02  0.10063521387E+02  0.97478639859E+02  0.13123958879E+03  0.00000000000E+00 0.  1.
</event>
<event>
12    1  0.8135779E-002  0.1994202E+03  0.7818608E-02  0.1150384E+00
         21   -1    0    0  501  502  0.00000000000E+00  0.00000000000E+00  0.50444741272E+03  0.50444741272E+03  0.00000000000E+00 0.  1.
         21   -1    0    0  502  503 -0.00000000000E+00 -0.00000000000E+00 -0.94992777832E+02  0.94992777832E+02  0.00000000000E+00 0.  1.
         -6    2    1    2    0  503 -0.72708069596E+02 -0.68681974012E+02  0.79708071254E+02  0.21408162366E+03  0.17167960865E+03 0.  0.
        -24    2    3    3    0    0 -0.17189242782E+02 -0.16706898367E+02  0.10380854996E+03  0.13416496899E+03  0.81544057647E+02 0.  0.
          6    2    1    2  501    0  0.72708069596E+02  0.68681974012E+02  0.32974656364E+03  0.38535856690E+03  0.17252464147E+03 0.  0.
         24    2    5    5    0    0  0.37608772356E+02  0.63111207189E+02  0.33177738368E+03  0.34945301942E+03  0.81509117437E+02 0.  0.
          5    1    5    5  501    0  0.35099297239E+02  0.55707668228E+01 -0.20308200488E+01  0.35905547479E+02  0.47000000000E+01 0. -1.
        -11    1    6    6    0    0  0.60597801187E+01  0.69900096011E+02  0.16055497215E+03  0.17521599082E+03  0.00000000000E+00 0.  1.
         12    1    6    6    0    0  0.31548992238E+02 -0.67888888225E+01  0.17122241154E+03  0.17423702860E+03  0.00000000000E+00 0. -1.
         -5    1    3    3    0  503 -0.55518826814E+02 -0.51975075645E+02 -0.24100478710E+02  0.79916654667E+02  0.47000000000E+01 0.  1.
         11    1    4    4    0    0  0.29040811648E+02 -0.45286708722E+01  0.69087281280E+02  0.75079491445E+02  0.00000000000E+00 0. -1.
        -12    1    4    4    0    0 -0.46230054430E+02 -0.12178227494E+02  0.34721268684E+02  0.59085477543E+02  0.00000000000E+00 0.  1.
</event>
<event>
12    1  0.8135779E-002  0.3697603E+03  0.7818608E-02  0.1055066E+00
         21   -1    0    0  501  502  0.00000000000E+00  0.00000000000E+00  0.35384742622E+03  0.35384742622E+03  0.00000000000E+00 0.  1.
         21   -1    0    0  502  503 -0.00000000000E+00 -0.00000000000E+00 -0.61637821957E+03  0.61637821957E+03  0.00000000000E+00 0. -1.
         -6    2    1    2    0  503  0.83260643601E+02 -0.31431804335E+03  0.16669993467E+03  0.40560021547E+03  0.17605254733E+03 0.  0.
        -24    2    3    3    0    0 -0.12636720052E+02 -0.68507604476E+02  0.49889831712E+02  0.11700748104E+03  0.79679211502E+02 0.  0.
          6    2    1    2  501    0 -0.83260643601E+02  0.31431804335E+03 -0.42923072802E+03  0.56462543032E+03  0.16980780766E+03 0.  0.
         24    2    5    5    0    0  0.41133938694E+01  0.23093985228E+03 -0.26161093402E+03  0.35797444312E+03  0.79720046099E+02 0.  0.
          5    1    5    5  501    0 -0.87374037471E+02  0.83378191074E+02 -0.16761979400E+03  0.20665098720E+03  0.47000000000E+01 0. -1.
        -13    1    6    6    0    0 -0.21904683507E+02  0.14721391916E+02 -0.32656984638E+02  0.41988250560E+02  0.00000000000E+00 0.  1.
         14    1    6    6    0    0  0.26018077376E+02  0.21621846036E+03 -0.22895394938E+03  0.31598619256E+03  0.00000000000E+00 0. -1.
         -5    1    3    3    0  503  0.95897363653E+02 -0.24581043888E+03  0.11681010296E+03  0.28859273444E+03  0.47000000000E+01 0.  1.
         13    1    4    4    0    0 -0.32414414194E+02 -0.68934018152E+02  0.16107340981E+02  0.77859100557E+02  0.00000000000E+00 0. -1.
        -14    1    4    4    0    0  0.19777694142E+02  0.42641367516E+00  0.33782490731E+02  0.39148380480E+02  0.00000000000E+00 0.  1.
</event>
<event>
12    1  0.8135779E-002  0.2584488E+03  0.7818608E-02  0.1108567E+00
         21   -1    0    0  501  502  0.00000000000E+00  0.00000000000E+00  0.57033019640E+03  0.57033019640E+03  0.00000000000E+00 0.  1.
         21   -1    0    0  502  503 -0.00000000000E+00 -0.00000000000E+00 -0.13697862449E+03  0.13697862449E+03  0.00000000000E+00 0. -1.
         -6    2    1    2    0  503 -0.16729688006E+03  0.89100737133E+02  0.76052205714E+02  0.26633419546E+03  0.17094671170E+03 0.  0.
        -24    2    3    3    0    0 -0.13113233464E+03  0.11989200613E+03  0.23423443091E+02  0.19528594955E+03  0.77576814087E+02 0.  0.
          6    2    1    2  501    0  0.16729688006E+03 -0.89100737133E+02  0.35729936620E+03  0.44097462543E+03  0.17569460935E+03 0.  0.
         24    2    5    5    0    0  0.16327714420E+03 -0.17171889814E+02  0.28656799914E+03  0.33990567056E+03  0.80376284613E+02 0.  0.
          5    1    5    5  501    0  0.40197358576E+01 -0.71928847319E+02  0.70731367055E+02  0.10106895487E+03  0.47000000000E+01 0. -1.
        -11    1    6    6    0    0  0.10350605782E+03 -0.48005661093E+02  0.15909799044E+03  0.19578104624E+03  0.00000000000E+00 0.  1.
         12    1    6    6    0    0  0.59771086380E+02  0.30833771280E+02  0.12747000870E+03  0.14412462433E+03  0.00000000000E+00 0. -1.
         -5    1    3    3    0  503 -0.36164545422E+02 -0.30791268994E+02  0.52628762623E+02  0.71048245912E+02  0.47000000000E+01 0.  1.
         11    1    4    4    0    0 -0.11564072815E+03  0.86078325679E+02 -0.11036641839E+02  0.14458237659E+03  0.00000000000E+00 0. -1.
        -12    1    4    4    0    0 -0.15491606492E+02  0.33813680448E+02  0.34460084930E+02  0.50703572956E+02  0.00000000000E+00 0.  1.
</event>
<event>
12    1  0.8135779E-002  0.2056052E+03  0.7818608E-02  0.1145807E+00
         21   -1    0    0  503  502  0.00000000000E+00  0.00000000000E+00  0.12825162755E+04  0.12825162755E+04  0.00000000000E+00 0. -1.
         21   -1    0    0  501  503 -0.00000000000E+00 -0.00000000000E+00 -0.35749407853E+02  0.35749407853E+02  0.00000000000E+00 0.  1.
          6    2    1    2  501    0  0.52496250831E+02  0.99705351356E+02  0.42666704407E+03  0.47362247357E+03  0.17197810191E+03 0.  0.
         24    2    3    3    0    0  0.97051357029E+02  0.55142637193E+02  0.24180287435E+03  0.27825654965E+03  0.80612660565E+02 0.  0.
         -6    2    1    2    0  502 -0.52496250831E+02 -0.99705351356E+02  0.82009982355E+03  0.84464320976E+03  0.16781363996E+03 0.  0.
        -24    2    5    5    0    0 -0.56390882073E+02 -0.19920461441E+02  0.64333776641E+03  0.65061302742E+03  0.76400742133E+02 0.  0.
          5    1    3    3  501    0 -0.44555106197E+02  0.44562714163E+02  0.18486416972E+03  0.19536592391E+03  0.47000000000E+01 0. -1.
        -11    1    4    4    0    0  0.13667023235E+02  0.22434109267E+02  0.73524122987E+01  0.27278833357E+02  0.00000000000E+00 0.  1.
         12    1    4    4    0    0  0.83384333794E+02  0.32708527926E+02  0.23445046205E+03  0.25097771630E+03  0.00000000000E+00 0. -1.
         -5    1    5    5    0  502  0.38946312420E+01 -0.79784889915E+02  0.17676205714E+03  0.19403018233E+03  0.47000000000E+01 0.  1.
         13    1    6    6    0    0  0.44255412292E+01 -0.77393544018E+01  0.37866329234E+03  0.37876822990E+03  0.00000000000E+00 0. -1.
        -14    1    6    6    0    0 -0.60816423303E+02 -0.12181107040E+02  0.26467447407E+03  0.27184479752E+03  0.00000000000E+00 0.  1.
</event>
<event>
12    1  0.8135779E-002  0.2867933E+03  0.7818608E-02  0.1092613E+00
         21   -1    0    0  501  502  0.00000000000E+00  0.00000000000E+00  0.61744697537E+02  0.61744697537E+02  0.00000000000E+00 0.  1.
         21   -1    0    0  502  503 -0.00000000000E+00 -0.00000000000E+00 -0.13121322821E+04  0.13121322821E+04  0.00000000000E+00 0. -1.
         -6    2    1    2    0  503  0.30434352071E+02 -0.22432599277E+03 -0.62514531316E+03  0.68779143346E+03  0.17607382700E+03 0.  0.
        -24    2    3    3    0    0  0.60974184830E+02 -0.60648235284E+02 -0.20288102955E+03  0.23386158767E+03  0.78322859877E+02 0.  0.
          6    2    1    2  501    0 -0.30434352071E+02  0.22432599277E+03 -0.62524227136E+03  0.68608554614E+03  0.16892920975E+03 0.  0.
         24    2    5    5    0    0  0.33977127029E+02  0.75328040141E+02 -0.19371829671E+03  0.22501694037E+03  0.79228064349E+02 0.  0.
          5    1    5    5  501    0 -0.64411479100E+02  0.14899795263E+03 -0.43152397465E+03  0.46106860577E+03  0.47000000000E+01 0. -1.
        -11    1    6    6    0    0 -0.12097825499E+02  0.45171993304E+02 -0.39336410499E+02  0.61108260913E+02  0.00000000000E+00 0.  1.
         12    1    6    6    0    0  0.46074952528E+02  0.30156046837E+02 -0.15438188621E+03  0.16390867945E+03  0.00000000000E+00 0. -1.
         -5    1    3    3    0  503 -0.30539832759E+02 -0.16367775748E+03 -0.42226428362E+03  0.45392984579E+03  0.47000000000E+01 0.  1.
         11    1    4    4    0    0  0.19073836984E+02  0.67095665284E+01 -0.10942759412E+03  0.11127995280E+03  0.00000000000E+00 0. -1.
        -12    1    4    4    0    0  0.41900347845E+02 -0.67357801812E+02 -0.93453435427E+02  0.12258163487E+03  0.00000000000E+00 0.  1.
</event>
<event>
12    1  0.8135779E-002  0.2063845E+03  0.7818608E-02  0.1144634E+00
         21   -1    0    0  501  502  0.00000000000E+00  0.00000000000E+00  0.26024809411E+03  0.26024809411E+03  0.00000000000E+00 0.  1.
         21   -1    0    0  502  503 -0.00000000000E+00 -0.00000000000E+00 -0.28843409565E+03  0.28843409565E+03  0.00000000000E+00 0.  1.
         -6    2    1    2    0  503  0.10612804411E+02  0.11214131232E+03 -0.19499493961E+03  0.28331490035E+03  0.17191858753E+03 0.  0.
        -24    2    3    3    0    0  0.22936158853E+02  0.11036315103E+03 -0.66623772867E+02  0.15425571480E+03  0.81547568627E+02 0.  0.
          6    2    1    2  501    0 -0.10612804411E+02 -0.11214131232E+03  0.16680893808E+03  0.26536728941E+03  0.17293429655E+03 0.  0.
         24    2    5    5    0    0  0.37969152924E+02 -0.43585710580E+02  0.14957836662E+03  0.17946583599E+03  0.80578705536E+02 0.  0.
          5    1    5    5  501    0 -0.48581957335E+02 -0.68555601738E+02  0.17230571460E+02  0.85901453428E+02  0.47000000000E+01 0. -1.
        -13    1    6    6    0    0  0.16899715733E+02 -0.44859209181E+02  0.26867554490E+02  0.54952839094E+02  0.00000000000E+00 0.  1.
         14    1    6    6    0    0  0.21069437191E+02  0.12734986010E+01  0.12271081213E+03  0.12451299689E+03  0.00000000000E+00 0. -1.
         -5    1    3    3    0  503 -0.12323354442E+02  0.17781612844E+01 -0.12837116674E+03  0.12905918555E+03  0.47000000000E+01 0.  1.
         11    1    4    4    0    0 -0.50551787278E+01 -0.12270678043E+02 -0.49744300839E+01  0.14172837622E+02  0.00000000000E+00 0. -1.
        -12    1    4    4    0    0  0.27991337581E+02  0.12263382908E+03 -0.61649342783E+02  0.14008287718E+03  0.00000000000E+00 0.  1.
</event>
<event>
12    1  0.8135779E-002  0.2072031E+03  0.7818608E-02  0.1145244E+00
         21   -1    0    0  501  502  0.00000000000E+00  0.00000000000E+00  0.14910602587E+03  0.14910602587E+03  0.00000000000E+00 0. -1.
         21   -1    0    0  502  503 -0.00000000000E+00 -0.00000000000E+00 -0.57456771253E+03  0.57456771253E+03  0.00000000000E+00 0. -1.
         -6    2    1    2    0  503  0.10898911331E+03  0.20048925938E+02 -0.47078566967E+03  0.51157138787E+03  0.16668998732E+03 0.  0.
        -24    2    3    3    0    0  0.14171881798E+03  0.93084970226E+01 -0.41439681989E+03  0.44532651817E+03  0.80125601205E+02 0.  0.
          6    2    1    2  501    0 -0.10898911331E+03 -0.20048925938E+02  0.45323983020E+02  0.21210235053E+03  0.17507871776E+03 0.  0.
         24    2    5    5    0    0 -0.56567944954E+02 -0.77597571213E+02  0.55172207444E+01  0.12454383416E+03  0.79116442344E+02 0.  0.
          5    1    5    5  501    0 -0.52421168352E+02  0.57548645275E+02  0.39806762276E+02  0.87558516361E+02  0.47000000000E+01 0. -1.
        -13    1    6    6    0    0 -0.35658427004E+02 -0.78909781955E+02  0.30620098963E+02  0.91846979075E+02  0.00000000000E+00 0.  1.
         14    1    6    6    0    0 -0.20909517950E+02  0.13122107422E+01 -0.25102878218E+02  0.32696855090E+02  0.00000000000E+00 0. -1.
         -5    1    3    3    0  503 -0.32729704677E+02  0.10740428916E+02 -0.56388849788E+02  0.66244869703E+02  0.47000000000E+01 0.  1.
         13    1    4    4    0    0  0.32323087051E+02 -0.30087587050E+02 -0.15280384337E+03  0.15905678043E+03  0.00000000000E+00 0. -1.
        -14    1    4    4    0    0  0.10939573093E+03  0.39396084073E+02 -0.26159297651E+03  0.28626973774E+03  0.00000000000E+00 0.  1.
</event>
<event>
12    1  0.8135779E-002  0.2255986E+03  0.7818608E-02  0.1129832E+00
         21   -1    0    0  501  502  0.00000000000E+00  0.00000000000E+00  0.38181175315E+03  0.38181175315E+03  0.00000000000E+00 0. -1.
         21   -1    0    0  502  503 -0.00000000000E+00 -0.00000000000E+00 -0.13343075757E+03  0.13343075757E+03  0.00000000000E+00 0.  1.
         -6    2    1    2    0  503 -0.89439124927E+02  0.11430211541E+03  0.11177391436E+03  0.25176999929E+03  0.17271477631E+03 0.  0.
        -24    2    3    3    0    0  0.68507608581E+01  0.43637723445E+02  0.93286818889E+02  0.13081934367E+03  0.80374661855E+02 0.  0.
          6    2    1    2  501    0  0.89439124927E+02 -0.11430211541E+03  0.13660708122E+03  0.26347251143E+03  0.17231349044E+03 0.  0.
         24    2    5    5    0    0  0.22641378441E+02 -0.20345045424E+02  0.12141749492E+03  0.14709947560E+03  0.77262505513E+02 0.  0.
          5    1    5    5  501    0  0.66797746486E+02 -0.93957069988E+02  0.15189586295E+02  0.11637303583E+03  0.47000000000E+01 0. -1.
        -11    1    6    6    0    0 -0.14710587073E+02 -0.12288358992E+02 -0.66240778367E+00  0.19179257619E+02  0.00000000000E+00 0.  1.
         12    1    6    6    0    0  0.37351965515E+02 -0.80566864327E+01  0.12207990271E+03  0.12792021798E+03  0.00000000000E+00 0. -1.
         -5    1    3    3    0  503 -0.96289885785E+02  0.70664391967E+02  0.18487095474E+02  0.12095065562E+03  0.47000000000E+01 0.  1.
         13    1    4    4    0    0 -0.14498979655E+02  0.25012293188E+02  0.97930661197E+02  0.10210900853E+03  0.00000000000E+00 0. -1.
        -14    1    4    4    0    0  0.21349740513E+02  0.18625430257E+02 -0.46438423079E+01  0.28710335136E+02  0.00000000000E+00 0.  1.
</event>
<event>
12    1  0.8135779E-002  0.2422982E+03  0.7818608E-02  0.1118382E+00
         21   -1    0    0  503  502  0.00000000000E+00  0.00000000000E+00  0.18922865701E+04  0.18922865701E+04  0.00000000000E+00 0. -1.
         21   -1    0    0  501  503 -0.00000000000E+00 -0.00000000000E+00 -0.31439608143E+02  0.31439608143E+02  0.00000000000E+00 0. -1.
          6    2    1    2  501    0 -0.72381510113E+02  0.15364955058E+03  0.80777326039E+03  0.84313714688E+03  0.17185849073E+03 0.  0.
         24    2    3    3    0    0 -0.11007691914E+03  0.78452854940E+02  0.57618960481E+03  0.59670548002E+03  0.76099872663E+02 0.  0.
         -6    2    1    2    0  502  0.72381510113E+02 -0.15364955058E+03  0.10530737016E+04  0.10805890314E+04  0.17280383789E+03 0.  0.
        -24    2    5    5    0    0  0.37263052906E+02 -0.46220865908E+02  0.72187562385E+03  0.73060548175E+03  0.95682025956E+02 0.  0.
          5    1    3    3  501    0  0.37695409024E+02  0.75196695637E+02  0.23158365558E+03  0.24643166685E+03  0.47000000000E+01 0. -1.
        -11    1    4    4    0    0 -0.11069713388E+02  0.33020205426E+02  0.25900883432E+03  0.26133971909E+03  0.00000000000E+00 0.  1.
         12    1    4    4    0    0 -0.99007205748E+02  0.45432649514E+02  0.31718077050E+03  0.33536576093E+03  0.00000000000E+00 0. -1.
         -5    1    5    5    0  502  0.35118457207E+02 -0.10742868467E+03  0.33119807776E+03  0.34998354967E+03  0.47000000000E+01 0.  1.
         11    1    6    6    0    0  0.46119031528E+02 -0.70803760804E+02  0.48647479293E+03  0.49375891057E+03  0.00000000000E+00 0. -1.
        -12    1    6    6    0    0 -0.88559786221E+01  0.24582894897E+02  0.23540083092E+03  0.23684657118E+03  0.00000000000E+00 0.  1.
</event>
<event>
12    1  0.8135779E-002  0.1834173E+03  0.7818608E-02  0.1165352E+00
         21   -1    0    0  503  502  0.00000000000E+00  0.00000000000E+00  0.23262543222E+03  0.23262543222E+03  0.00000000000E+00 0. -1.
         21   -1    0    0  501  503 -0.00000000000E+00 -0.00000000000E+00 -0.33817701748E+03  0.33817701748E+03  0.00000000000E+00 0. -1.
          6    2    1    2  501    0  0.85998989419E+01 -0.51907226250E+02 -0.27039090348E+03  0.32673100083E+03  0.17570881542E+03 0.  0.
         24    2    3    3    0    0 -0.38923263703E+02 -0.47340082040E+02 -0.25809890799E+03  0.27720834997E+03  0.80456939832E+02 0.  0.
         -6    2    1    2    0  502 -0.85998989419E+01  0.51907226250E+02  0.16483931822E+03  0.24407144887E+03  0.17213527507E+03 0.  0.
        -24    2    5    5    0    0 -0.31900300385E+02  0.73230839831E+02  0.17698357238E+03  0.20990746033E+03  0.79734383708E+02 0.  0.
          5    1    3    3  501    0  0.47523162645E+02 -0.45671442106E+01 -0.12291995493E+02  0.49522650851E+02  0.47000000000E+01 0. -1.
        -13    1    4    4    0    0  0.25021714089E+02 -0.14191555316E+02 -0.84430111322E+02  0.89196020741E+02  0.00000000000E+00 0.  1.
         14    1    4    4    0    0 -0.63944977793E+02 -0.33148526724E+02 -0.17366879666E+03  0.18801232923E+03  0.00000000000E+00 0. -1.
         -5    1    5    5    0  502  0.23300401443E+02 -0.21323613581E+02 -0.12144254158E+02  0.34163988535E+02  0.47000000000E+01 0.  1.
         11    1    6    6    0    0 -0.42580121481E+02  0.28027051032E+02  0.14449840418E+03  0.15322653538E+03  0.00000000000E+00 0. -1.
        -12    1    6    6    0    0  0.10679821096E+02  0.45203788800E+02  0.32485168197E+02  0.56680924951E+02  0.00000000000E+00 0.  1.
</event>
<event>
12    1  0.8135779E-002  0.1883785E+03  0.7818608E-02  0.1160643E+00
         21   -1    0    0  503  502  0.00000000000E+00  0.00000000000E+00  0.74177137162E+03  0.74177137162E+03  0.00000000000E+00 0.  1.
         21   -1    0    0  501  503 -0.00000000000E+00 -0.00000000000E+00 -0.10176327791E+03  0.10176327791E+03  0.00000000000E+00 0.  1.
          6    2    1    2  501    0 -0.29212791472E+02 -0.49395927657E+02  0.95510244121E+01  0.18553572063E+03  0.17617870674E+03 0.  0.
         24    2    3    3    0    0  0.11541207052E+02 -0.71705079525E+02 -0.41625014289E+02  0.11625611620E+03  0.80672330132E+02 0.  0.
         -6    2    1    2    0  502  0.29212791472E+02  0.49395927657E+02  0.63045706930E+03  0.65799892891E+03  0.17942443912E+03 0.  0.
        -24    2    5    5    0    0 -0.49221920726E+02  0.15989882043E+01  0.22212068622E+03  0.23943323126E+03  0.74601063935E+02 0.  0.
          5    1    3    3  501    0 -0.40753998525E+02  0.22309151868E+02  0.51176038701E+02  0.69279604430E+02  0.47000000000E+01 0. -1.
        -11    1    4    4    0    0 -0.13632216668E+02  0.18308826780E+01 -0.35754968622E+02  0.38309362352E+02  0.00000000000E+00 0.  1.
         12    1    4    4    0    0  0.25173423720E+02 -0.73535962203E+02 -0.58700456667E+01  0.77946753845E+02  0.00000000000E+00 0. -1.
         -5    1    5    5    0  502  0.78434712198E+02  0.47796939452E+02  0.40833638308E+03  0.41856569765E+03  0.47000000000E+01 0.  1.
         13    1    6    6    0    0  0.54050277292E+01 -0.46972592697E+01 -0.29483958047E+01  0.77441337295E+01  0.00000000000E+00 0. -1.
        -14    1    6    6    0    0 -0.54626948455E+02  0.62962474740E+01  0.22506908202E+03  0.23168909753E+03  0.00000000000E+00 0.  1.
</event>
<event>
12    1  0.8135779E-002  0.1867196E+03  0.7818608E-02  0.1163363E+00
         21   -1    0    0  503  502  0.00000000000E+00  0.00000000000E+00  0.33628547519E+03  0.33628547519E+03  0.00000000000E+00 0.  1.
         21   -1    0    0  501  503 -0.00000000000E+00 -0.00000000000E+00 -0.14852460315E+03  0.14852460315E+03  0.00000000000E+00 0.  1.
          6    2    1    2  501    0 -0.45482901646E+02 -0.17642053269E+02 -0.47128017680E+02  0.18474840018E+03  0.17184581733E+03 0.  0.
         24    2    3    3    0    0 -0.95953015105E+02 -0.88309590200E+00 -0.25301979946E+02  0.12707205383E+03  0.79368480582E+02 0.  0.
         -6    2    1    2    0  502  0.45482901646E+02  0.17642053269E+02  0.23488888973E+03  0.30006167816E+03  0.18023396960E+03 0.  0.
        -24    2    5    5    0    0 -0.84910473404E+01  0.31193333672E+02  0.33941190386E+02  0.91497797681E+02  0.78579390588E+02 0.  0.
          5    1    3    3  501    0  0.50470113459E+02 -0.16758957367E+02 -0.21826037735E+02  0.57676346346E+02  0.47000000000E+01 0. -1.
        -13    1    4    4    0    0 -0.56612438429E+02 -0.39078781226E+02 -0.64617818133E+01  0.69093226522E+02  0.00000000000E+00 0.  1.
         14    1    4    4    0    0 -0.39340576676E+02  0.38195685324E+02 -0.18840198132E+02  0.57978827310E+02  0.00000000000E+00 0. -1.
         -5    1    5    5    0  502  0.53973948986E+02 -0.13551280403E+02  0.20094769934E+03  0.20856388048E+03  0.47000000000E+01 0.  1.
         13    1    6    6    0    0  0.31353412842E+02 -0.41290762518E+01  0.10528066022E+02  0.33330555676E+02  0.00000000000E+00 0. -1.
        -14    1    6    6    0    0 -0.39844460182E+02  0.35322409924E+02  0.23413124364E+02  0.58167242005E+02  0.00000000000E+00 0.  1.
</event>
<event>
12    1  0.8135779E-002  0.1814772E+03  0.7818608E-02  0.1167874E+00
         21   -1    0    0  503  502  0.00000000000E+00  0.00000000000E+00  0.12039961953E+03  0.12039961953E+03  0.00000000000E+00 0.  1.
         21   -1    0    0  501  503 -0.00000000000E+00 -0.00000000000E+00 -0.27070594512E+03  0.27070594512E+03  0.00000000000E+00 0.  1.
          6    2    1    2  501    0 -0.27231161506E+01 -0.20215162811E+02 -0.10376807878E+03  0.20375623049E+03  0.17416290972E+03 0.  0.
         24    2    3    3    0    0  0.47866193218E+02 -0.42798955477E+02 -0.22094287785E+02  0.10495337603E+03  0.80025811740E+02 0.  0.
         -6    2    1    2    0  502  0.27231161506E+01  0.20215162811E+02 -0.46538246806E+02  0.18734933416E+03  0.18032719269E+03 0.  0.
        -24    2    5    5    0    0  0.64015880687E+02 -0.83748025354E+01  0.43160321826E+01  0.10260007579E+03  0.79623973273E+02 0.  0.
          5    1    3    3  501    0 -0.50589309368E+02  0.22583792666E+02 -0.81673790997E+02  0.98802854460E+02  0.47000000000E+01 0. -1.
        -11    1    4    4    0    0  0.70310425609E+01  0.23515041439E+02 -0.79635168651E+01  0.25803300840E+02  0.00000000000E+00 0.  1.
         12    1    4    4    0    0  0.40835150657E+02 -0.66313996916E+02 -0.14130770919E+02  0.79150075192E+02  0.00000000000E+00 0. -1.
         -5    1    5    5    0  502 -0.61292764537E+02  0.28589965346E+02 -0.50854278988E+02  0.84749258371E+02  0.47000000000E+01 0.  1.
         11    1    6    6    0    0 -0.55583066461E+01  0.12510784544E+02  0.23741899100E+02  0.27406062752E+02  0.00000000000E+00 0. -1.
        -12    1    6    6    0    0  0.69574187333E+02 -0.20885587079E+02 -0.19425866917E+02  0.75194013034E+02  0.00000000000E+00 0.  1.
</event>
<event>
12    1  0.8135779E-002  0.2162593E+03  0.7818608E-02  0.1137352E+00
         21   -1    0    0  503  502  0.00000000000E+00  0.00000000000E+00  0.58242381973E+03  0.58242381973E+03  0.00000000000E+00 0.  1.
         21   -1    0    0  501  503 -0.00000000000E+00 -0.00000000000E+00 -0.84442172839E+02  0.84442172839E+02  0.00000000000E+00 0. -1.
          6    2    1    2  501    0 -0.90150238276E+02  0.88995829228E+02  0.16290851817E+03  0.26806517142E+03  0.17109186934E+03 0.  0.
         24    2    3    3    0    0 -0.48727120742E+02  0.79554521952E+02  0.18294813158E+03  0.22085617805E+03  0.81266095505E+02 0.  0.
         -6    2    1    2    0  502  0.90150238276E+02 -0.88995829228E+02  0.33507312872E+03  0.39880082115E+03  0.17527341578E+03 0.  0.
        -24    2    5    5    0    0  0.29689132592E+02 -0.87901240269E+01  0.61417695057E+02  0.10725685051E+03  0.82299379341E+02 0.  0.
          5    1    3    3  501    0 -0.41423117533E+02  0.94413072762E+01 -0.20039613402E+02  0.47208993365E+02  0.47000000000E+01 0. -1.
        -13    1    4    4    0    0 -0.51691841212E+02  0.82426523938E+01  0.78371709300E+02  0.94244960528E+02  0.00000000000E+00 0.  1.
         14    1    4    4    0    0  0.29647204694E+01  0.71311869558E+02  0.10457642228E+03  0.12661121753E+03  0.00000000000E+00 0. -1.
         -5    1    5    5    0  502  0.60461105684E+02 -0.80205705201E+02  0.27365543366E+03  0.29154397064E+03  0.47000000000E+01 0.  1.
         13    1    6    6    0    0  0.47310132774E+02 -0.28364717217E+02  0.59060164251E+02  0.80814038676E+02  0.00000000000E+00 0. -1.
        -14    1    6    6    0    0 -0.17621000182E+02  0.19574593190E+02  0.23575308064E+01  0.26442811830E+02  0.00000000000E+00 0.  1.
</event>
<event>
12    1  0.8135779E-002  0.1756176E+03  0.7818608E-02  0.1172212E+00
         21   -1    0    0  503  502  0.00000000000E+00  0.00000000000E+00  0.57593617128E+02  0.57593617128E+02  0.00000000000E+00 0.  1.
         21   -1    0    0  501  503 -0.00000000000E+00 -0.00000000000E+00 -0.57571103545E+03  0.57571103545E+03  0.00000000000E+00 0.  1.
          6    2    1    2  501    0 -0.25495059136E+02 -0.24998725994E+02 -0.34426622459E+03  0.38647223971E+03  0.17194948193E+03 0.  0.
         24    2    3    3    0    0 -0.11990224876E+02  0.34052107568E+02 -0.11612082297E+03  0.15037523471E+03  0.88461031894E+02 0.  0.
         -6    2    1    2    0  502  0.25495059136E+02  0.24998725994E+02 -0.17385119373E+03  0.24683241286E+03  0.17154319612E+03 0.  0.
        -24    2    5    5    0    0 -0.19892443088E+02  0.68050267138E+02 -0.13802200460E+03  0.17458781897E+03  0.80026774452E+02 0.  0.
          5    1    3    3  501    0 -0.13504834260E+02 -0.59050833561E+02 -0.22814540162E+03  0.23609700501E+03  0.47000000000E+01 0. -1.
        -13    1    4    4    0    0  0.63973442136E+01  0.19602983797E+02 -0.12399636765E+03  0.12569925289E+03  0.00000000000E+00 0.  1.
         14    1    4    4    0    0 -0.18387569090E+02  0.14449123771E+02  0.78755446784E+01  0.24675981820E+02  0.00000000000E+00 0. -1.
         -5    1    5    5    0  502  0.45387502224E+02 -0.43051541144E+02 -0.35829189131E+02  0.72244593894E+02  0.47000000000E+01 0.  1.
         13    1    6    6    0    0  0.21155529525E+02  0.29335177135E+02 -0.10054091472E+03  0.10684841871E+03  0.00000000000E+00 0. -1.
        -14    1    6    6    0    0 -0.41047972613E+02  0.38715090003E+02 -0.37481089880E+02  0.67739400264E+02  0.00000000000E+00 0.  1.
</event>
<event>
12    1  0.8135779E-002  0.2013536E+03  0.7818608E-02  0.1148873E+00
         21   -1    0    0  503  502  0.00000000000E+00  0.00000000000E+00  0.21213297862E+03  0.21213297862E+03  0.00000000000E+00 0. -1.
         21   -1    0    0  501  503 -0.00000000000E+00 -0.00000000000E+00 -0.19098654022E+03  0.19098654022E+03  0.00000000000E+00 0. -1.
          6    2    1    2  501    0 -0.10026810092E+03  0.26352302522E+02  0.25826340607E+02  0.20300312942E+03  0.17261267269E+03 0.  0.
         24    2    3    3    0    0 -0.69859368412E+01  0.23786921546E+02 -0.36424312559E+02  0.90729458709E+02  0.79312566357E+02 0.  0.
         -6    2    1    2    0  502  0.10026810092E+03 -0.26352302522E+02 -0.46799021995E+01  0.20011638943E+03  0.17110386297E+03 0.  0.
        -24    2    5    5    0    0 -0.67209577282E+01  0.18538579300E+02 -0.22921780876E+01  0.83971474912E+02  0.81591079925E+02 0.  0.
          5    1    3    3  501    0 -0.93282164077E+02  0.25653809766E+01  0.62250653166E+02  0.11227367071E+03  0.47000000000E+01 0. -1.
        -13    1    4    4    0    0 -0.40641032759E+02  0.26427084751E+02 -0.14994967472E+02  0.50743801608E+02  0.00000000000E+00 0.  1.
         14    1    4    4    0    0  0.33655095918E+02 -0.26401632051E+01 -0.21429345087E+02  0.39985657101E+02  0.00000000000E+00 0. -1.
         -5    1    5    5    0  502  0.10698905865E+03 -0.44890881823E+02 -0.23877241119E+01  0.11614491451E+03  0.47000000000E+01 0.  1.
         13    1    6    6    0    0  0.61549230345E+01  0.11948276807E+02 -0.40736306624E+02  0.42896282748E+02  0.00000000000E+00 0. -1.
        -14    1    6    6    0    0 -0.12875880763E+02  0.65903024931E+01  0.38444128537E+02  0.41075192164E+02  0.00000000000E+00 0.  1.
</event>
<event>
12    1  0.8135779E-002  0.2075325E+03  0.7818608E-02  0.1143781E+00
         21   -1    0    0  501  502  0.00000000000E+00  0.00000000000E+00  0.11993499308E+03  0.11993499308E+03  0.00000000000E+00 0. -1.
         21   -1    0    0  502  503 -0.00000000000E+00 -0.00000000000E+00 -0.35730884859E+03  0.35730884859E+03  0.00000000000E+00 0. -1.
         -6    2    1    2    0  503  0.46035631472E+02  0.10454740007E+03 -0.11206080447E+03  0.23585454746E+03  0.17326368758E+03 0.  0.
        -24    2    3    3    0    0  0.86125994222E+02  0.90895099665E+02 -0.12243703796E+03  0.19199820570E+03  0.78694832753E+02 0.  0.
          6    2    1    2  501    0 -0.46035631472E+02 -0.10454740007E+03 -0.12531305104E+03  0.24138929421E+03  0.17180218966E+03 0.  0.
         24    2    5    5    0    0 -0.13682795677E+02 -0.47630793209E+01 -0.10809407155E+03  0.13498346774E+03  0.79538056528E+02 0.  0.
          5    1    5    5  501    0 -0.32352835796E+02 -0.99784320751E+02 -0.17218979486E+02  0.10640582647E+03  0.47000000000E+01 0. -1.
        -13    1    6    6    0    0 -0.44248633985E+02  0.49901412566E+01 -0.40634122794E+02  0.60282460588E+02  0.00000000000E+00 0.  1.
         14    1    6    6    0    0  0.30565838309E+02 -0.97532205775E+01 -0.67459948756E+02  0.74701007150E+02  0.00000000000E+00 0. -1.
         -5    1    3    3    0  503 -0.40090362750E+02  0.13652300407E+02  0.10376233492E+02  0.43856341768E+02  0.47000000000E+01 0.  1.
         11    1    4    4    0    0  0.10955868525E+02  0.57217197803E+02 -0.22402626682E+02  0.62415674809E+02  0.00000000000E+00 0. -1.
        -12    1    4    4    0    0  0.75170125697E+02  0.33677901862E+02 -0.10003441128E+03  0.12958253089E+03  0.00000000000E+00 0.  1.
</event>
<event>
12    1  0.8135779E-002  0.1752269E+03  0.7818608E-02  0.1172649E+00
         21   -1    0    0  503  502  0.00000000000E+00  0.00000000000E+00  0.13642083513E+03  0.13642083513E+03  0.00000000000E+00 0.  1.
         21   -1    0    0  501  503 -0.00000000000E+00 -0.00000000000E+00 -0.41706157291E+03  0.41706157291E+03  0.00000000000E+00 0.  1.
          6    2    1    2  501    0  0.28979809960E+02 -0.16021214659E+02 -0.32857051108E+03  0.37237485661E+03  0.17206959166E+03 0.  0.
         24    2    3    3    0    0  0.20068344726E+02 -0.62801604670E+02 -0.29755393909E+03  0.31534910067E+03  0.80993386247E+02 0.  0.
         -6    2    1    2    0  502 -0.28979809960E+02  0.16021214659E+02  0.47929773304E+02  0.18110755143E+03  0.17148228280E+03 0.  0.
        -24    2    5    5    0    0 -0.36193261688E+02 -0.14445263441E+01 -0.36693372477E+02  0.94272922417E+02  0.78923643285E+02 0.  0.
          5    1    3    3  501    0  0.89114652340E+01  0.46780390010E+02 -0.31016571998E+02  0.57025755941E+02  0.47000000000E+01 0. -1.
        -11    1    4    4    0    0  0.98088616145E+01 -0.56050653323E+02 -0.84096912148E+02  0.10153905720E+03  0.00000000000E+00 0.  1.
         12    1    4    4    0    0  0.10259483112E+02 -0.67509513471E+01 -0.21345702694E+03  0.21381004347E+03  0.00000000000E+00 0. -1.
         -5    1    5    5    0  502  0.72134517281E+01  0.17465741003E+02  0.84623145781E+02  0.86834629017E+02  0.47000000000E+01 0.  1.
         13    1    6    6    0    0  0.12161637388E+02 -0.26667978368E+02 -0.14658024697E+01  0.29346806829E+02  0.00000000000E+00 0. -1.
        -14    1    6    6    0    0 -0.48354899076E+02  0.25223452024E+02 -0.35227570007E+02  0.64926115588E+02  0.00000000000E+00 0.  1.
</event>
<event>
12    1  0.8135779E-002  0.2055337E+03  0.7818608E-02  0.1145345E+00
         21   -1    0    0  503  502  0.00000000000E+00  0.00000000000E+00  0.12471030208E+03  0.12471030208E+03  0.00000000000E+00 0. -1.
         21   -1    0    0  501  503 -0.00000000000E+00 -0.00000000000E+00 -0.39078364860E+03  0.39078364860E+03  0.00000000000E+00 0. -1.
          6    2    1    2  501    0 -0.80522678701E+02 -0.75607146093E+02 -0.22822742749E+03  0.30650495803E+03  0.17221262531E+03 0.  0.
         24    2    3    3    0    0 -0.83131282703E+02 -0.45862183979E+02 -0.62367375401E+02  0.13791310039E+03  0.78206033409E+02 0.  0.
         -6    2    1    2    0  502  0.80522678701E+02  0.75607146093E+02 -0.37845919038E+02  0.20898899265E+03  0.17333131031E+03 0.  0.
        -24    2    5    5    0    0 -0.14873937231E+02  0.68145794525E+02 -0.61613455287E+01  0.10808216286E+03  0.82332912193E+02 0.  0.
          5    1    3    3  501    0  0.26086040018E+01 -0.29744962114E+02 -0.16586005209E+03  0.16859185764E+03  0.47000000000E+01 0. -1.
        -13    1    4    4    0    0 -0.71994276494E+02 -0.14337056470E+02 -0.72300349038E+02  0.10303430257E+03  0.00000000000E+00 0.  1.
         14    1    4    4    0    0 -0.11137006209E+02 -0.31525127510E+02  0.99329736366E+01  0.34878797816E+02  0.00000000000E+00 0. -1.
         -5    1    5    5    0  502  0.95396615932E+02  0.74613515687E+01 -0.31684573509E+02  0.10090682978E+03  0.47000000000E+01 0.  1.
         11    1    6    6    0    0 -0.31440653135E+01 -0.17332130631E+02  0.10069197832E+02  0.20289816260E+02  0.00000000000E+00 0. -1.
        -12    1    6    6    0    0 -0.11729871918E+02  0.85477925156E+02 -0.16230543360E+02  0.87792346602E+02  0.00000000000E+00 0.  1.
</event>
<event>
12    1  0.8135779E-002  0.1925169E+03  0.7818608E-02  0.1156626E+00
         21   -1    0    0  503  502  0.00000000000E+00  0.00000000000E+00  0.14254831160E+03  0.14254831160E+03  0.00000000000E+00 0. -1.
         21   -1    0    0  501  503 -0.00000000000E+00 -0.00000000000E+00 -0.34523708336E+03  0.34523708336E+03  0.00000000000E+00 0. -1.
          6    2    1    2  501    0 -0.75054600409E+02  0.38008746101E+02 -0.22466935734E+03  0.29587001924E+03  0.17316145741E+03 0.  0.
         24    2    3    3    0    0 -0.15703991233E+02 -0.33885782969E+02 -0.62638585553E+02  0.10887435317E+03  0.80840402959E+02 0.  0.
         -6    2    1    2    0  502  0.75054600409E+02 -0.38008746101E+02  0.21980585579E+02  0.19191537572E+03  0.17108625740E+03 0.  0.
        -24    2    5    5    0    0  0.12115292352E+02  0.21133465730E+02 -0.33276357933E+02  0.89277285690E+02  0.79181526004E+02 0.  0.
          5    1    3    3  501    0 -0.59350609176E+02  0.71894529070E+02 -0.16203077179E+03  0.18699566607E+03  0.47000000000E+01 0. -1.
        -13    1    4    4    0    0 -0.10712710431E+02 -0.37259347028E+02  0.66408511704E+01  0.39333471878E+02  0.00000000000E+00 0.  1.
         14    1    4    4    0    0 -0.49912808022E+01  0.33735640586E+01 -0.69279436723E+02  0.69540881294E+02  0.00000000000E+00 0. -1.
         -5    1    5    5    0  502  0.62939308057E+02 -0.59142211831E+02  0.55256943511E+02  0.10263809003E+03  0.47000000000E+01 0.  1.
         11    1    6    6    0    0  0.21065468403E+02  0.13233022729E+02  0.21705001542E+02  0.33014753391E+02  0.00000000000E+00 0. -1.
        -12    1    6    6    0    0 -0.89501760510E+01  0.79004430010E+01 -0.54981359474E+02  0.56262532298E+02  0.00000000000E+00 0.  1.
</event>
<event>
12    1  0.8135779E-002  0.2494483E+03  0.7818608E-02  0.1113780E+00
         21   -1    0    0  503  502  0.00000000000E+00  0.00000000000E+00  0.52842772944E+03  0.52842772944E+03  0.00000000000E+00 0.  1.
         21   -1    0    0  501  503 -0.00000000000E+00 -0.00000000000E+00 -0.11814965907E+03  0.11814965907E+03  0.00000000000E+00 0.  1.
          6    2    1    2  501    0 -0.95142008642E+02 -0.15439093512E+03  0.23089728548E+03  0.33932840069E+03  0.17012243948E+03 0.  0.
         24    2    3    3    0    0 -0.23103931134E+02 -0.11689855108E+03  0.72206603434E+02  0.16100289482E+03  0.80678842854E+02 0.  0.
         -6    2    1    2    0  502  0.95142008642E+02  0.15439093512E+03  0.17938078489E+03  0.30724898783E+03  0.17127729528E+03 0.  0.
        -24    2    5    5    0    0  0.12010553114E+03  0.97601534885E+02  0.84751037134E+02  0.19400106248E+03  0.80636689706E+02 0.  0.
          5    1    3    3  501    0 -0.72038077508E+02 -0.37492384042E+02  0.15869068205E+03  0.17832550586E+03  0.47000000000E+01 0. -1.
        -11    1    4    4    0    0  0.68124467325E+01 -0.11358146239E+03  0.58130182337E+02  0.12777431717E+03  0.00000000000E+00 0.  1.
         12    1    4    4    0    0 -0.29916377866E+02 -0.33170886852E+01  0.14076421097E+02  0.33228577654E+02  0.00000000000E+00 0. -1.
         -5    1    5    5    0  502 -0.24963522500E+02  0.56789400236E+02  0.94629747754E+02  0.11324792534E+03  0.47000000000E+01 0.  1.
         13    1    6    6    0    0  0.38793611064E+02  0.12291449441E+02  0.61704578575E+02  0.73915350272E+02  0.00000000000E+00 0. -1.
        -14    1    6    6    0    0  0.81311920079E+02  0.85310085443E+02  0.23046458559E+02  0.12008571221E+03  0.00000000000E+00 0.  1.
</event>
<event>
12    1  0.8135779E-002  0.1826064E+03  0.7818608E-02  0.1165721E+00
         21   -1    0    0  503  502  0.00000000000E+00  0.00000000000E+00  0.42463646722E+03  0.42463646722E+03  0.00000000000E+00 0. -1.
         21   -1    0    0  501  503 -0.00000000000E+00 -0.00000000000E+00 -0.24762933569E+03  0.24762933569E+03  0.00000000000E+00 0. -1.
          6    2    1    2  501    0 -0.14429007092E+02  0.55394451425E+02 -0.19001473275E+03  0.26232659919E+03  0.17156020659E+03 0.  0.
         24    2    3    3    0    0  0.48658328421E+00  0.10239909161E+03 -0.11750406934E+03  0.17450975944E+03  0.78489738840E+02 0.  0.
         -6    2    1    2    0  502  0.14429007092E+02 -0.55394451425E+02  0.36702186427E+03  0.40993920373E+03  0.17340230795E+03 0.  0.
        -24    2    5    5    0    0 -0.17765607228E+02 -0.26592588830E+01  0.73408412750E+02  0.10985847686E+03  0.79733314346E+02 0.  0.
          5    1    3    3  501    0 -0.14915590376E+02 -0.47004640181E+02 -0.72510663410E+02  0.87816839746E+02  0.47000000000E+01 0. -1.
        -13    1    4    4    0    0 -0.38128868344E+02  0.43851025574E+02 -0.43796274496E+02  0.72765628595E+02  0.00000000000E+00 0.  1.
         14    1    4    4    0    0  0.38615451628E+02  0.58548066032E+02 -0.73707794844E+02  0.10174413084E+03  0.00000000000E+00 0. -1.
         -5    1    5    5    0  502  0.32194614320E+02 -0.52735192542E+02  0.29361345152E+03  0.30008072687E+03  0.47000000000E+01 0.  1.
         13    1    6    6    0    0 -0.21554571446E+02  0.15456868850E+02  0.84306307021E+02  0.88380245238E+02  0.00000000000E+00 0. -1.
        -14    1    6    6    0    0  0.37889642175E+01 -0.18116127733E+02 -0.10897894271E+02  0.21478231617E+02  0.00000000000E+00 0.  1.
</event>
<event>
12    1  0.8135779E-002  0.2001984E+03  0.7818608E-02  0.1149856E+00
         21   -1    0    0  503  502  0.00000000000E+00  0.00000000000E+00  0.31215437692E+03  0.31215437692E+03  0.00000000000E+00 0. -1.
         21   -1    0    0  501  503 -0.00000000000E+00 -0.00000000000E+00 -0.12884458745E+03  0.12884458745E+03  0.00000000000E+00 0.  1.
          6    2    1    2  501    0 -0.91987118184E+02  0.40837375791E+02  0.69726430494E+02  0.21199336563E+03  0.17306094530E+03 0.  0.
         24    2    3    3    0    0 -0.14636137407E+02  0.68098978867E+02  0.27067483142E+01  0.10597404178E+03  0.79821573554E+02 0.  0.
         -6    2    1    2    0  502  0.91987118184E+02 -0.40837375791E+02  0.11358335897E+03  0.22900559874E+03  0.17150237213E+03 0.  0.
        -24    2    5    5    0    0  0.33626837404E+02 -0.69701660955E+02  0.11852463635E+03  0.16354129126E+03  0.81905914270E+02 0.  0.
          5    1    3    3  501    0 -0.77350980777E+02 -0.27261603076E+02  0.67019682180E+02  0.10601932385E+03  0.47000000000E+01 0. -1.
        -13    1    4    4    0    0 -0.31741526678E+02  0.10480353382E+02 -0.23029029639E+02  0.40591852987E+02  0.00000000000E+00 0.  1.
         14    1    4    4    0    0  0.17105389271E+02  0.57618625486E+02  0.25735777953E+02  0.65382188796E+02  0.00000000000E+00 0. -1.
         -5    1    5    5    0  502  0.58360280779E+02  0.28864285164E+02 -0.49412773823E+01  0.65464307472E+02  0.47000000000E+01 0.  1.
         11    1    6    6    0    0  0.44626859054E+02 -0.76874598519E+02  0.12103742541E+03  0.15017096522E+03  0.00000000000E+00 0. -1.
        -12    1    6    6    0    0 -0.11000021650E+02  0.71729375636E+01 -0.25127890577E+01  0.13370326041E+02  0.00000000000E+00 0.  1.
</event>
<event>
12    1  0.8135779E-002  0.2090559E+03  0.7818608E-02  0.1142377E+00
         21   -1    0    0  503  502  0.00000000000E+00  0.00000000000E+00  0.54159425532E+02  0.54159425532E+02  0.00000000000E+00 0.  1.
         21   -1    0    0  501  503 -0.00000000000E+00 -0.00000000000E+00 -0.20983090414E+04  0.20983090414E+04  0.00000000000E+00 0.  1.
          6    2    1    2  501    0  0.48397220935E+02 -0.10746343241E+03 -0.18670403651E+04  0.18787080894E+04  0.17266638383E+03 0.  0.
         24    2    3    3    0    0  0.74779468328E+02 -0.11718712396E+03 -0.17786455750E+04  0.17858302015E+04  0.79275697037E+02 0.  0.
         -6    2    1    2    0  502 -0.48397220935E+02  0.10746343241E+03 -0.17710925074E+03  0.27376037746E+03  0.17229735132E+03 0.  0.
        -24    2    5    5    0    0 -0.50761724307E+01  0.15904399303E+02 -0.17362322694E+02  0.84549012037E+02  0.81045467136E+02 0.  0.
          5    1    3    3  501    0 -0.26382247393E+02  0.97236915435E+01 -0.88394790081E+02  0.92877887940E+02  0.47000000000E+01 0. -1.
        -11    1    4    4    0    0  0.31469497549E+02 -0.11203599242E+03 -0.12752254487E+04  0.12805242434E+04  0.00000000000E+00 0.  1.
         12    1    4    4    0    0  0.43309970780E+02 -0.51511315344E+01 -0.50342012631E+03  0.50530595810E+03  0.00000000000E+00 0. -1.
         -5    1    5    5    0  502 -0.43321048504E+02  0.91559033109E+02 -0.15974692804E+03  0.18921136543E+03  0.47000000000E+01 0.  1.
         13    1    6    6    0    0  0.48353424534E+00 -0.13229037320E+02 -0.43219292183E+02  0.45201199658E+02  0.00000000000E+00 0. -1.
        -14    1    6    6    0    0 -0.55597066760E+01  0.29133436623E+02  0.25856969489E+02  0.39347812378E+02  0.00000000000E+00 0.  1.
</event>
<event>
12    1  0.8135779E-002  0.1857234E+03  0.7818608E-02  0.1164799E+00
         21   -1    0    0  503  502  0.00000000000E+00  0.00000000000E+00  0.73641400538E+03  0.73641400538E+03  0.00000000000E+00 0. -1.
         21   -1    0    0  501  503 -0.00000000000E+00 -0.00000000000E+00 -0.87829138326E+02  0.87829138326E+02  0.00000000000E+00 0. -1.
          6    2    1    2  501    0  0.42967785600E+02  0.51533950900E+02  0.29702689880E+02  0.17809429361E+03  0.16227553400E+03 0.  0.
         24    2    3    3    0    0 -0.26161905763E+02  0.58230967448E+02  0.29387436827E+02  0.10848140943E+03  0.82639602289E+02 0.  0.
         -6    2    1    2    0  502 -0.42967785600E+02 -0.51533950900E+02  0.61888217717E+03  0.64614885009E+03  0.17317970021E+03 0.  0.
        -24    2    5    5    0    0 -0.24574181386E+02 -0.50123377562E+02  0.62042278444E+03  0.62704969137E+03  0.71767963788E+02 0.  0.
          5    1    3    3  501    0  0.69129691363E+02 -0.66970165477E+01  0.31525305298E+00  0.69612884174E+02  0.47000000000E+01 0. -1.
        -13    1    4    4    0    0  0.22566098333E+02 -0.50571736848E+01  0.14315569299E+02  0.27198149276E+02  0.00000000000E+00 0.  1.
         14    1    4    4    0    0 -0.48728004096E+02  0.63288141132E+02  0.15071867528E+02  0.81283260158E+02  0.00000000000E+00 0. -1.
         -5    1    5    5    0  502 -0.18393604214E+02 -0.14105733382E+01 -0.15406072718E+01  0.19099158722E+02  0.47000000000E+01 0.  1.
         11    1    6    6    0    0 -0.99207907713E+01  0.10068673550E+02  0.31969537435E+03  0.32000770718E+03  0.00000000000E+00 0. -1.
        -12    1    6    6    0    0 -0.14653390615E+02 -0.60192051111E+02  0.30072741010E+03  0.30704198419E+03  0.00000000000E+00 0.  1.
</event>
<event>
12    1  0.8135779E-002  0.1757107E+03  0.7818608E-02  0.1172797E+00
         21   -1    0    0  501  502  0.00000000000E+00  0.00000000000E+00  0.10765927666E+04  0.10765927666E+04  0.00000000000E+00 0.  1.
         21   -1    0    0  502  503 -0.00000000000E+00 -0.00000000000E+00 -0.28679548449E+02  0.28679548449E+02  0.00000000000E+00 0.  1.
         -6    2    1    2    0  503  0.93794898133E+01  0.37991078520E+02  0.44624559921E+03  0.47847236299E+03  0.16813497691E+03 0.  0.
        -24    2    3    3    0    0 -0.31584431960E+02  0.87861042196E+01  0.13712667090E+03  0.16525107500E+03  0.86194094626E+02 0.  0.
          6    2    1    2  501    0 -0.93794898133E+01 -0.37991078520E+02  0.60166761892E+03  0.62679995203E+03  0.17129786728E+03 0.  0.
         24    2    5    5    0    0  0.28136194201E+02 -0.58550940362E+02  0.22194399324E+03  0.24464519756E+03  0.79826552678E+02 0.  0.
          5    1    5    5  501    0 -0.37515684014E+02  0.20559861841E+02  0.37972362568E+03  0.38215475447E+03  0.47000000000E+01 0. -1.
        -11    1    6    6    0    0  0.23267544420E+02 -0.49015374494E+02  0.22657431218E+03  0.23298026633E+03  0.00000000000E+00 0.  1.
         12    1    6    6    0    0  0.48686497809E+01 -0.95355658675E+01 -0.46303189391E+01  0.11664931229E+02  0.00000000000E+00 0. -1.
         -5    1    3    3    0  503  0.40963921773E+02  0.29204974301E+02  0.30911892831E+03  0.31322128799E+03  0.47000000000E+01 0.  1.
         11    1    4    4    0    0 -0.90598830517E+01  0.41034308350E+02  0.31441703541E+02  0.52483108371E+02  0.00000000000E+00 0. -1.
        -12    1    4    4    0    0 -0.22524548908E+02 -0.32248204130E+02  0.10568496736E+03  0.11276796663E+03  0.00000000000E+00 0.  1.
</event>
<event>
12    1  0.8135779E-002  0.2076412E+03  0.7818608E-02  0.1145513E+00
         21   -1    0    0  501  502  0.00000000000E+00  0.00000000000E+00  0.17018055188E+03  0.17018055188E+03  0.00000000000E+00 0.  1.
         21   -1    0    0  502  503 -0.00000000000E+00 -0.00000000000E+00 -0.25320983087E+03  0.25320983087E+03  0.00000000000E+00 0.  1.
         -6    2    1    2    0  503  0.53082119232E+02 -0.86364916882E+02 -0.86473183034E+02  0.21572064145E+03  0.16965015035E+03 0.  0.
        -24    2    3    3    0    0 -0.10075873804E+02  0.73249162596E+01 -0.17147543707E+02  0.83075056580E+02  0.80325893331E+02 0.  0.
          6    2    1    2  501    0 -0.53082119232E+02  0.86364916882E+02  0.34439040501E+01  0.20766974129E+03  0.18121327414E+03 0.  0.
         24    2    5    5    0    0  0.52025165723E+01  0.79924882799E+01 -0.51474274455E+02  0.95520587635E+02  0.79897657562E+02 0.  0.
          5    1    5    5  501    0 -0.58284635805E+02  0.78372428603E+02  0.54918178505E+02  0.11214915366E+03  0.47000000000E+01 0. -1.
        -13    1    6    6    0    0  0.17871890515E+02 -0.24995278912E+02  0.26939882389E+01  0.30845194295E+02  0.00000000000E+00 0.  1.
         14    1    6    6    0    0 -0.12669373943E+02  0.32987767192E+02 -0.54168262693E+02  0.64675393340E+02  0.00000000000E+00 0. -1.
         -5    1    3    3    0  503  0.63157993037E+02 -0.93689833142E+02 -0.69325639327E+02  0.13264558487E+03  0.47000000000E+01 0.  1.
         11    1    4    4    0    0  0.11158384301E+02 -0.17310645239E+02  0.23349434008E+02  0.31134611725E+02  0.00000000000E+00 0. -1.
        -12    1    4    4    0    0 -0.21234258105E+02  0.24635561499E+02 -0.40496977715E+02  0.51940444855E+02  0.00000000000E+00 0.  1.
</event>
<event>
12    1  0.8135779E-002  0.1823332E+03  0.7818608E-02  0.1165708E+00
         21   -1    0    0  501  502  0.00000000000E+00  0.00000000000E+00  0.17676937816E+02  0.17676937816E+02  0.00000000000E+00 0.  1.
         21   -1    0    0  502  503 -0.00000000000E+00 -0.00000000000E+00 -0.23707211296E+04  0.23707211296E+04  0.00000000000E+00 0.  1.
         -6    2    1    2    0  503 -0.56642304482E+02  0.77921341213E+01 -0.17213336819E+04  0.17309001176E+04  0.17250073809E+03 0.  0.
        -24    2    3    3    0    0 -0.37559045062E+02 -0.61118659412E+02 -0.11716023383E+04  0.11765180215E+04  0.79977769300E+02 0.  0.
          6    2    1    2  501    0  0.56642304482E+02 -0.77921341213E+01 -0.63171050996E+03  0.65749794990E+03  0.17313670238E+03 0.  0.
         24    2    5    5    0    0  0.53400382087E+02 -0.58979166036E+02 -0.27509296252E+03  0.29718032967E+03  0.79434674326E+02 0.  0.
          5    1    5    5  501    0  0.32419223951E+01  0.51187031914E+02 -0.35661754745E+03  0.36031762022E+03  0.47000000000E+01 0. -1.
        -13    1    6    6    0    0  0.32551388925E+02 -0.76952125727E+01 -0.27000917185E+02  0.42986727560E+02  0.00000000000E+00 0.  1.
         14    1    6    6    0    0  0.20848993162E+02 -0.51283953463E+02 -0.24809204533E+03  0.25419360211E+03  0.00000000000E+00 0. -1.
         -5    1    3    3    0  503 -0.19083259420E+02  0.68910793533E+02 -0.54973134358E+03  0.55438209600E+03  0.47000000000E+01 0.  1.
         13    1    4    4    0    0 -0.35723034630E+01 -0.67275321649E+02 -0.57826703148E+03  0.58217822868E+03  0.00000000000E+00 0. -1.
        -14    1    4    4    0    0 -0.33986741599E+02  0.61566622374E+01 -0.59333530680E+03  0.59433979287E+03  0.00000000000E+00 0.  1.
</event>
<event>
12    1  0.8135779E-002  0.2251542E+03  0.7818608E-02  0.1130921E+00
         21   -1    0    0  503  502  0.00000000000E+00  0.00000000000E+00  0.22302783525E+03  0.22302783525E+03  0.00000000000E+00 0.  1.
         21   -1    0    0  501  503 -0.00000000000E+00 -0.00000000000E+00 -0.25372908136E+03  0.25372908136E+03  0.00000000000E+00 0.  1.
          6    2    1    2  501    0 -0.12857663627E+03  0.64626376989E+02 -0.98469057341E+02  0.24162528159E+03  0.16726655808E+03 0.  0.
         24    2    3    3    0    0 -0.39275089924E+02  0.90132501307E+02 -0.69452360096E+02  0.14421179548E+03  0.79416693154E+02 0.  0.
         -6    2    1    2    0  502  0.12857663627E+03 -0.64626376989E+02  0.67767811231E+02  0.23513163502E+03  0.17316434260E+03 0.  0.
        -24    2    5    5    0    0  0.10334389602E+03  0.18449491015E+02  0.13755542109E+02  0.13277096757E+03  0.80115980467E+02 0.  0.
          5    1    3    3  501    0 -0.89301546344E+02 -0.25506124317E+02 -0.29016697244E+02  0.97413486110E+02  0.47000000000E+01 0. -1.
        -11    1    4    4    0    0 -0.34101439852E+02  0.60378772719E+02 -0.85441766619E+02  0.11003999218E+03  0.00000000000E+00 0.  1.
         12    1    4    4    0    0 -0.51736500723E+01  0.29753728587E+02  0.15989406523E+02  0.34171803301E+02  0.00000000000E+00 0. -1.
         -5    1    5    5    0  502  0.25232740246E+02 -0.83075868004E+02  0.54012269123E+02  0.10236066745E+03  0.47000000000E+01 0.  1.
         11    1    6    6    0    0  0.31586191635E+02  0.45928231834E+01  0.43426065498E+02  0.53894384600E+02  0.00000000000E+00 0. -1.
        -12    1    6    6    0    0  0.71757704387E+02  0.13856667831E+02 -0.29670523389E+02  0.78876582967E+02  0.00000000000E+00 0.  1.
</event>
<event>
12    1  0.8135779E-002  0.2196608E+03  0.7818608E-02  0.1134552E+00
         21   -1    0    0  503  502  0.00000000000E+00  0.00000000000E+00  0.33881518406E+03  0.33881518406E+03  0.00000000000E+00 0.  1.
         21   -1    0    0  501  503 -0.00000000000E+00 -0.00000000000E+00 -0.17116782133E+03  0.17116782133E+03  0.00000000000E+00 0. -1.
          6    2    1    2  501    0  0.13030348727E+03 -0.12248910927E+02  0.19056034580E+03  0.28913039795E+03  0.17364937955E+03 0.  0.
         24    2    3    3    0    0  0.93772117195E+02 -0.56250875365E+02  0.18485737238E+03  0.23146474284E+03  0.86291993332E+02 0.  0.
         -6    2    1    2    0  502 -0.13030348727E+03  0.12248910927E+02 -0.22912983064E+02  0.22085260744E+03  0.17641381693E+03 0.  0.
        -24    2    5    5    0    0 -0.29689294970E+02  0.51194600087E+02 -0.46396114321E+02  0.11033776748E+03  0.80743310529E+02 0.  0.
          5    1    3    3  501    0  0.36531370073E+02  0.44001964438E+02  0.57029734182E+01  0.57665655113E+02  0.47000000000E+01 0. -1.
        -13    1    4    4    0    0  0.83221987921E+02 -0.23148006450E+01  0.96943685310E+02  0.12778628916E+03  0.00000000000E+00 0.  1.
         14    1    4    4    0    0  0.10550129274E+02 -0.53936074720E+02  0.87913687069E+02  0.10367845368E+03  0.00000000000E+00 0. -1.
         -5    1    5    5    0  502 -0.10061419230E+03 -0.38945689160E+02  0.23483131257E+02  0.11051483995E+03  0.47000000000E+01 0.  1.
         11    1    6    6    0    0 -0.54179403920E+02  0.15487119112E+02 -0.20966304688E+02  0.60123577737E+02  0.00000000000E+00 0. -1.
        -12    1    6    6    0    0  0.24490108950E+02  0.35707480975E+02 -0.25429809633E+02  0.50214189746E+02  0.00000000000E+00 0.  1.
</event>
<event>
12    1  0.8135779E-002  0.1802286E+03  0.7818608E-02  0.1168108E+00
         21   -1    0    0  501  502  0.00000000000E+00  0.00000000000E+00  0.10045163850E+04  0.10045163850E+04  0.00000000000E+00 0.  1.
         21   -1    0    0  502  503 -0.00000000000E+00 -0.00000000000E+00 -0.31974957102E+02  0.31974957102E+02  0.00000000000E+00 0.  1.
         -6    2    1    2    0  503 -0.68361518397E+01 -0.44836393666E+02  0.46861543994E+03  0.50130561820E+03  0.17219133869E+03 0.  0.
        -24    2    3    3    0    0 -0.50977770843E+02 -0.77312120310E+02  0.30744160257E+03  0.33100514492E+03  0.80424933335E+02 0.  0.
          6    2    1    2  501    0  0.68361518397E+01  0.44836393666E+02  0.50392598797E+03  0.53518572392E+03  0.17442856005E+03 0.  0.
         24    2    5    5    0    0  0.89651730747E+01  0.98016729106E+02  0.36413544070E+03  0.38553223109E+03  0.79704632989E+02 0.  0.
          5    1    5    5  501    0 -0.21290212350E+01 -0.53180335440E+02  0.13979054727E+03  0.14965349283E+03  0.47000000000E+01 0. -1.
        -13    1    6    6    0    0 -0.15390195752E+02  0.44910823744E+02  0.27424266584E+03  0.27832154064E+03  0.00000000000E+00 0.  1.
         14    1    6    6    0    0  0.24355368827E+02  0.53105905362E+02  0.89892774863E+02  0.10721069045E+03  0.00000000000E+00 0. -1.
         -5    1    3    3    0  503  0.44141619003E+02  0.32475726644E+02  0.16117383737E+03  0.17030047329E+03  0.47000000000E+01 0.  1.
         11    1    4    4    0    0 -0.42156441148E+01  0.12394556265E+02  0.92793819537E+02  0.93712803952E+02  0.00000000000E+00 0. -1.
        -12    1    4    4    0    0 -0.46762126728E+02 -0.89706676575E+02  0.21464778304E+03  0.23729234097E+03  0.00000000000E+00 0.  1.
</event>
<event>
12    1  0.8135779E-002  0.1879407E+03  0.7818608E-02  0.1161212E+00
         21   -1    0    0  501  502  0.00000000000E+00  0.00000000000E+00  0.11299583172E+03  0.11299583172E+03  0.00000000000E+00 0. -1.
         21   -1    0    0  502  503 -0.00000000000E+00 -0.00000000000E+00 -0.47205122333E+03  0.47205122333E+03  0.00000000000E+00 0.  1.
         -6    2    1    2    0  503  0.60943720173E+01  0.71714645102E+02 -0.35167246492E+03  0.39696137545E+03  0.16948356654E+03 0.  0.
        -24    2    3    3    0    0  0.38778367717E+02  0.82127205119E+02 -0.33919966563E+03  0.36016021102E+03  0.80064504130E+02 0.  0.
          6    2    1    2  501    0 -0.60943720173E+01 -0.71714645102E+02 -0.73829266923E+01  0.18808567961E+03  0.17361331624E+03 0.  0.
         24    2    5    5    0    0  0.12550549843E+02  0.11134053686E+02 -0.39417671395E+02  0.97201935900E+02  0.87252392928E+02 0.  0.
          5    1    5    5  501    0 -0.18644921860E+02 -0.82848698788E+02  0.32034744702E+02  0.90883743707E+02  0.47000000000E+01 0. -1.
        -11    1    6    6    0    0  0.99732432991E+01 -0.35772744444E+02 -0.33202062597E+02  0.49814975536E+02  0.00000000000E+00 0.  1.
         12    1    6    6    0    0  0.25773065436E+01  0.46906798130E+02 -0.62156087973E+01  0.47386960364E+02  0.00000000000E+00 0. -1.
         -5    1    3    3    0  503 -0.32683995700E+02 -0.10412560017E+02 -0.12472799291E+02  0.36801164426E+02  0.47000000000E+01 0.  1.
         11    1    4    4    0    0  0.23028211784E+02  0.44649608831E+02 -0.61085545234E+02  0.79090643842E+02  0.00000000000E+00 0. -1.
        -12    1    4    4    0    0  0.15750155933E+02  0.37477596288E+02 -0.27811412039E+03  0.28106956718E+03  0.00000000000E+00 0.  1.
</event>
<event>
12    1  0.8135779E-002  0.2182559E+03  0.7818608E-02  0.1136725E+00
         21   -1    0    0  503  502  0.00000000000E+00  0.00000000000E+00  0.46655286257E+02  0.46655286257E+02  0.00000000000E+00 0. -1.
         21   -1    0    0  501  503 -0.00000000000E+00 -0.00000000000E+00 -0.98448845754E+03  0.98448845754E+03  0.00000000000E+00 0. -1.
          6    2    1    2  501    0 -0.12069485549E+03 -0.96850575334E+01 -0.46580122429E+03  0.51439908398E+03  0.18158906512E+03 0.  0.
         24    2    3    3    0    0  0.23276626761E+01  0.38531611430E+02 -0.19187876915E+03  0.21023631740E+03  0.76757696768E+02 0.  0.
         -6    2    1    2    0  502  0.12069485549E+03  0.96850575334E+01 -0.47203194699E+03  0.51674465981E+03  0.17190065731E+03 0.  0.
        -24    2    5    5    0    0 -0.38946882221E+01 -0.24784232060E+02 -0.22431707054E+03  0.23728905271E+03  0.73201910112E+02 0.  0.
          5    1    3    3  501    0 -0.12302251816E+03 -0.48216668963E+02 -0.27392245514E+03  0.30416276658E+03  0.47000000000E+01 0. -1.
        -11    1    4    4    0    0  0.45368815153E+01 -0.67770193602E+01 -0.14418324629E+03  0.14441371055E+03  0.00000000000E+00 0.  1.
         12    1    4    4    0    0 -0.22092188392E+01  0.45308630790E+02 -0.47695522859E+02  0.65822606852E+02  0.00000000000E+00 0. -1.
         -5    1    5    5    0  502  0.12458954371E+03  0.34469289594E+02 -0.24771487645E+03  0.27945560710E+03  0.47000000000E+01 0.  1.
         11    1    6    6    0    0  0.11338604349E+02  0.22598548962E+02 -0.10512570410E+03  0.10812341110E+03  0.00000000000E+00 0. -1.
        -12    1    6    6    0    0 -0.15233292571E+02 -0.47382781022E+02 -0.11919136644E+03  0.12916564161E+03  0.00000000000E+00 0.  1.
</event>
<event>
12    1  0.8135779E-002  0.2275810E+03  0.7818608E-02  0.1128947E+00
         21   -1    0    0  503  502  0.00000000000E+00  0.00000000000E+00  0.41990412120E+03  0.41990412120E+03  0.00000000000E+00 0.  1.
         21   -1    0    0  501  503 -0.00000000000E+00 -0.00000000000E+00 -0.19562433891E+03  0.19562433891E+03  0.00000000000E+00 0.  1.
          6    2    1    2  501    0 -0.25063298687E+02  0.13541838960E+03 -0.76712628477E+02  0.24016235217E+03  0.18118172879E+03 0.  0.
         24    2    3    3    0    0 -0.88658668350E+02  0.94143010656E+02 -0.43474293664E+02  0.15724730618E+03  0.78188459274E+02 0.  0.
         -6    2    1    2    0  502  0.25063298687E+02 -0.13541838960E+03  0.30099241077E+03  0.37536610794E+03  0.17702252531E+03 0.  0.
        -24    2    5    5    0    0  0.42739331693E+02 -0.54564534623E+02  0.63589267908E+02  0.12390611063E+03  0.80654760218E+02 0.  0.
          5    1    3    3  501    0  0.63595369662E+02  0.41275378941E+02 -0.33238334813E+02  0.82915045983E+02  0.47000000000E+01 0. -1.
        -11    1    4    4    0    0  0.20501111849E+01  0.21569267959E+02  0.15814534655E+02  0.26824164153E+02  0.00000000000E+00 0.  1.
         12    1    4    4    0    0 -0.90708779534E+02  0.72573742697E+02 -0.59288828319E+02  0.13042314203E+03  0.00000000000E+00 0. -1.
         -5    1    5    5    0  502 -0.17676033005E+02 -0.80853854974E+02  0.23740314287E+03  0.25145999731E+03  0.47000000000E+01 0.  1.
         13    1    6    6    0    0  0.48354703561E+02  0.18733606217E+01  0.38726832988E+02  0.61979467808E+02  0.00000000000E+00 0. -1.
        -14    1    6    6    0    0 -0.56153718684E+01 -0.56437895244E+02  0.24862434920E+02  0.61926642820E+02  0.00000000000E+00 0.  1.
</event>
<event>
12    1  0.8135779E-002  0.1882184E+03  0.7818608E-02  0.1160161E+00
         21   -1    0    0  501  502  0.00000000000E+00  0.00000000000E+00  0.16573836320E+03  0.16573836320E+03  0.00000000000E+00 0. -1.
         21   -1    0    0  502  503 -0.00000000000E+00 -0.00000000000E+00 -0.21365989910E+03  0.21365989910E+03  0.00000000000E+00 0. -1.
         -6    2    1    2    0  503 -0.66605366511E+02  0.32574655713E+02 -0.31343484529E+02  0.19045113885E+03  0.17260312634E+03 0.  0.
        -24    2    3    3    0    0 -0.42793220748E+02  0.76897874932E+02 -0.53008782766E+02  0.13546894905E+03  0.88302673767E+02 0.  0.
          6    2    1    2  501    0  0.66605366511E+02 -0.32574655713E+02 -0.16578051371E+02  0.18894712345E+03  0.17299942379E+03 0.  0.
         24    2    5    5    0    0 -0.22280496057E+02  0.65783787448E+01 -0.35003687806E+02  0.89976164329E+02  0.79566050649E+02 0.  0.
          5    1    5    5  501    0  0.88885862568E+02 -0.39153034458E+02  0.18425636435E+02  0.98970959123E+02  0.47000000000E+01 0. -1.
        -13    1    6    6    0    0 -0.43095668370E+02  0.99619578987E+01  0.52404924531E+01  0.44541441362E+02  0.00000000000E+00 0.  1.
         14    1    6    6    0    0  0.20815172313E+02 -0.33835791539E+01 -0.40244180260E+02  0.45434722967E+02  0.00000000000E+00 0. -1.
         -5    1    3    3    0  503 -0.23812145764E+02 -0.44323219218E+02  0.21665298238E+02  0.54982189802E+02  0.47000000000E+01 0.  1.
         13    1    4    4    0    0 -0.34434163074E+02  0.59756578902E+01  0.13897317490E+02  0.37610577066E+02  0.00000000000E+00 0. -1.
        -14    1    4    4    0    0 -0.83590576737E+01  0.70922217042E+02 -0.66906100256E+02  0.97858371981E+02  0.00000000000E+00 0.  1.
</event>
<event>
12    1  0.8135779E-002  0.2242775E+03  0.7818608E-02  0.1131110E+00
         21   -1    0    0  501  502  0.00000000000E+00  0.00000000000E+00  0.39435970276E+03  0.39435970276E+03  0.00000000000E+00 0.  1.
         21   -1    0    0  502  503 -0.00000000000E+00 -0.00000000000E+00 -0.13112999524E+03  0.13112999524E+03  0.00000000000E+00 0. -1.
         -6    2    1    2    0  503 -0.16203195259E+02  0.14292100416E+03  0.81029149069E+02  0.23653049263E+03  0.16938711279E+03 0.  0.
        -24    2    3    3    0    0  0.14479869103E+02  0.11146902282E+03 -0.70590411596E+01  0.13797950670E+03  0.79708873731E+02 0.  0.
          6    2    1    2  501    0  0.16203195259E+02 -0.14292100416E+03  0.18220055845E+03  0.28895920538E+03  0.17207969638E+03 0.  0.
         24    2    5    5    0    0  0.62077725960E+02 -0.10524830938E+03  0.69214745745E+02  0.16124237653E+03  0.79231131953E+02 0.  0.
          5    1    5    5  501    0 -0.45874530701E+02 -0.37672694774E+02  0.11298581271E+03  0.12771682885E+03  0.47000000000E+01 0. -1.
        -11    1    6    6    0    0  0.97542855107E+01 -0.75136264860E+02  0.66501423701E+02  0.10081192259E+03  0.00000000000E+00 0.  1.
         12    1    6    6    0    0  0.52323440449E+02 -0.30112044523E+02  0.27133220444E+01  0.60430453931E+02  0.00000000000E+00 0. -1.
         -5    1    3    3    0  503 -0.30683064362E+02  0.31451981341E+02  0.88088190229E+02  0.98550985924E+02  0.47000000000E+01 0.  1.
         11    1    4    4    0    0  0.22656464291E+01  0.10273413656E+03  0.22165803393E+02  0.10512258943E+03  0.00000000000E+00 0. -1.
        -12    1    4    4    0    0  0.12214222674E+02  0.87348862509E+01 -0.29224844552E+02  0.32856917269E+02  0.00000000000E+00 0.  1.
</event>
<event>
12    1  0.8135779E-002  0.3042998E+03  0.7818608E-02  0.1083441E+00
         21   -1    0    0  501  502  0.00000000000E+00  0.00000000000E+00  0.82078862777E+03  0.82078862777E+03  0.00000000000E+00 0.  1.
         21   -1    0    0  502  503 -0.00000000000E+00 -0.00000000000E+00 -0.13724863068E+03  0.13724863068E+03  0.00000000000E+00 0. -1.
         -6    2    1    2    0  503 -0.10738815831E+03  0.22652710774E+03  0.13438217521E+03  0.33020550489E+03  0.16772107607E+03 0.  0.
        -24    2    3    3    0    0 -0.10622215001E+03  0.78927810973E+02  0.68702474060E+02  0.16857993412E+03  0.78653796785E+02 0.  0.
          6    2    1    2  501    0  0.10738815831E+03 -0.22652710774E+03  0.54915782188E+03  0.62783175356E+03  0.17248666721E+03 0.  0.
         24    2    5    5    0    0  0.96194515615E+01 -0.17679307934E+03  0.34324165907E+03  0.39447419593E+03  0.80291518739E+02 0.  0.
          5    1    5    5  501    0  0.97768706748E+02 -0.49734028408E+02  0.20591616280E+03  0.23335755763E+03  0.47000000000E+01 0. -1.
        -13    1    6    6    0    0 -0.29611309680E+01 -0.96251249048E+02  0.10404829830E+03  0.14177136389E+03  0.00000000000E+00 0.  1.
         14    1    6    6    0    0  0.12580582530E+02 -0.80541830288E+02  0.23919336077E+03  0.25270283204E+03  0.00000000000E+00 0. -1.
         -5    1    3    3    0  503 -0.11660082984E+01  0.14759929677E+03  0.65679701146E+02  0.16162557077E+03  0.47000000000E+01 0.  1.
         11    1    4    4    0    0 -0.23193363993E+02  0.61552799245E+01  0.51533337165E+02  0.56846323044E+02  0.00000000000E+00 0. -1.
        -12    1    4    4    0    0 -0.83028786019E+02  0.72772531048E+02  0.17169136895E+02  0.11173361108E+03  0.00000000000E+00 0.  1.
</event>
<event>
12    1  0.8135779E-002  0.1868326E+03  0.7818608E-02  0.1162203E+00
         21   -1    0    0  503  502  0.00000000000E+00  0.00000000000E+00  0.99539633439E+02  0.99539633439E+02  0.00000000000E+00 0.  1.
         21   -1    0    0  501  503 -0.00000000000E+00 -0.00000000000E+00 -0.41600064900E+03  0.41600064900E+03  0.00000000000E+00 0.  1.
          6    2    1    2  501    0  0.57615377367E+02  0.12232402419E+02 -0.26429461494E+03  0.32156158122E+03  0.17343887584E+03 0.  0.
         24    2    3    3    0    0  0.21920860493E+02 -0.44300735882E+02 -0.22639489347E+03  0.24456435303E+03  0.78192043455E+02 0.  0.
         -6    2    1    2    0  502 -0.57615377367E+02 -0.12232402419E+02 -0.52166400620E+02  0.19397870122E+03  0.17730549849E+03 0.  0.
        -24    2    5    5    0    0 -0.79616492546E+02 -0.26768956105E+02 -0.91942365909E+02  0.14602478713E+03  0.76252717393E+02 0.  0.
          5    1    3    3  501    0  0.35694516874E+02  0.56533138301E+02 -0.37899721464E+02  0.76997228185E+02  0.47000000000E+01 0. -1.
        -13    1    4    4    0    0  0.21837125345E+02  0.97606480519E+01 -0.14429209168E+03  0.14626119791E+03  0.00000000000E+00 0.  1.
         14    1    4    4    0    0  0.83735148552E-01 -0.54061383934E+02 -0.82102801797E+02  0.98303155124E+02  0.00000000000E+00 0. -1.
         -5    1    5    5    0  502  0.22001115179E+02  0.14536553686E+02  0.39775965289E+02  0.47953914093E+02  0.47000000000E+01 0.  1.
         13    1    6    6    0    0 -0.15799772894E+02  0.24331237687E+02 -0.39069771206E+02  0.48663014425E+02  0.00000000000E+00 0. -1.
        -14    1    6    6    0    0 -0.63816719652E+02 -0.51100193792E+02 -0.52872594703E+02  0.97361772700E+02  0.00000000000E+00 0.  1.
</event>
<event>
12    1  0.8135779E-002  0.2452358E+03  0.7818608E-02  0.1116631E+00
         21   -1    0    0  501  502  0.00000000000E+00  0.00000000000E+00  0.40435943225E+03  0.40435943225E+03  0.00000000000E+00 0.  1.
         21   -1    0    0  502  503 -0.00000000000E+00 -0.00000000000E+00 -0.84589513637E+03  0.84589513637E+03  0.00000000000E+00 0.  1.
         -6    2    1    2    0  503  0.47697742772E+02  0.16656357820E+03 -0.78883794954E+03  0.82607861949E+03  0.17355712226E+03 0.  0.
        -24    2    3    3    0    0 -0.13574827811E+02  0.18107931584E+02 -0.22277823670E+03  0.23765777059E+03  0.79617209424E+02 0.  0.
          6    2    1    2  501    0 -0.47697742772E+02 -0.16656357820E+03  0.34730224543E+03  0.42417594913E+03  0.17113703834E+03 0.  0.
         24    2    5    5    0    0 -0.71458141196E+02 -0.63254451497E+02  0.25323699769E+03  0.28237435172E+03  0.80615792105E+02 0.  0.
          5    1    5    5  501    0  0.23760398424E+02 -0.10330912670E+03  0.94065247738E+02  0.14180159740E+03  0.47000000000E+01 0. -1.
        -11    1    6    6    0    0 -0.41098625443E+02 -0.82144204634E+01  0.18462404258E+03  0.18932144838E+03  0.00000000000E+00 0.  1.
         12    1    6    6    0    0 -0.30359515754E+02 -0.55040031034E+02  0.68612955109E+02  0.93052903349E+02  0.00000000000E+00 0. -1.
         -5    1    3    3    0  503  0.61272570583E+02  0.14845564662E+03 -0.56605971284E+03  0.58842084890E+03  0.47000000000E+01 0.  1.
         11    1    4    4    0    0 -0.43520722046E+02  0.16951174872E+02 -0.17609285826E+03  0.18218147630E+03  0.00000000000E+00 0. -1.
        -12    1    4    4    0    0  0.29945894235E+02  0.11567567124E+01 -0.46685378448E+02  0.55476294293E+02  0.00000000000E+00 0.  1.
</event>
<event>
12    1  0.8135779E-002  0.1974722E+03  0.7818608E-02  0.1152131E+00
         21   -1    0    0  503  502  0.00000000000E+00  0.00000000000E+00  0.40417190051E+03  0.40417190051E+03  0.00000000000E+00 0. -1.
         21   -1    0    0  501  503 -0.00000000000E+00 -0.00000000000E+00 -0.15418722047E+03  0.15418722047E+03  0.00000000000E+00 0.  1.
          6    2    1    2  501    0  0.61119474316E+02  0.76009742010E+02 -0.46386779966E+02  0.20284724628E+03  0.17170381751E+03 0.  0.
         24    2    3    3    0    0  0.41713417250E+02  0.79234948717E+02  0.30503851612E+02  0.12334091802E+03  0.79147399312E+02 0.  0.
         -6    2    1    2    0  502 -0.61119474316E+02 -0.76009742010E+02  0.29637146001E+03  0.35551187470E+03  0.17041003410E+03 0.  0.
        -24    2    5    5    0    0  0.90195361853E+01 -0.29332955895E+01  0.20052305172E+03  0.21598175183E+03  0.79678520301E+02 0.  0.
          5    1    3    3  501    0  0.19406057066E+02 -0.32252067069E+01 -0.76890631578E+02  0.79506328261E+02  0.47000000000E+01 0. -1.
        -11    1    4    4    0    0  0.56194571691E+02  0.31838599302E+02 -0.10379249107E+01  0.64595693209E+02  0.00000000000E+00 0.  1.
         12    1    4    4    0    0 -0.14481154441E+02  0.47396349415E+02  0.31541776522E+02  0.58745224810E+02  0.00000000000E+00 0. -1.
         -5    1    5    5    0  502 -0.70139010501E+02 -0.73076446420E+02  0.95848408287E+02  0.13953012286E+03  0.47000000000E+01 0.  1.
         13    1    6    6    0    0 -0.99686445636E+01 -0.36979957770E+02  0.70391841804E+02  0.80136773978E+02  0.00000000000E+00 0. -1.
        -14    1    6    6    0    0  0.18988180749E+02  0.34046662181E+02  0.13013120992E+03  0.13584497785E+03  0.00000000000E+00 0.  1.
</event>
<event>
12    1  0.8135779E-002  0.1855106E+03  0.7818608E-02  0.1162756E+00
         21   -1    0    0  503  502  0.00000000000E+00  0.00000000000E+00  0.22484551415E+02  0.22484551415E+02  0.00000000000E+00 0.  1.
         21   -1    0    0  501  503 -0.00000000000E+00 -0.00000000000E+00 -0.17014850803E+04  0.17014850803E+04  0.00000000000E+00 0.  1.
          6    2    1    2  501    0  0.11087467790E+01 -0.69434503895E+02 -0.11193906499E+04  0.11346583661E+04  0.17202267591E+03 0.  0.
         24    2    3    3    0    0  0.63455498652E+02 -0.22704716369E+02 -0.55838852839E+03  0.56825192117E+03  0.81057959689E+02 0.  0.
         -6    2    1    2    0  502 -0.11087467790E+01  0.69434503895E+02 -0.55960987897E+03  0.58931126560E+03  0.17117877051E+03 0.  0.
        -24    2    5    5    0    0  0.40515460507E+02  0.27089337433E+02 -0.48536832067E+03  0.49412940423E+03  0.78778973548E+02 0.  0.
          5    1    3    3  501    0 -0.62346751873E+02 -0.46729787527E+02 -0.56100212151E+03  0.56640644492E+03  0.47000000000E+01 0. -1.
        -11    1    4    4    0    0  0.58507256849E+02 -0.28307407138E+02 -0.55683730284E+03  0.56061768634E+03  0.00000000000E+00 0.  1.
         12    1    4    4    0    0  0.49482418032E+01  0.56026907687E+01 -0.15512255461E+01  0.76342348331E+01  0.00000000000E+00 0. -1.
         -5    1    5    5    0  502 -0.41624207286E+02  0.42345166462E+02 -0.74241558300E+02  0.95181861369E+02  0.47000000000E+01 0.  1.
         13    1    6    6    0    0  0.62590071047E+02  0.73868529095E+01 -0.33542026929E+03  0.34128996417E+03  0.00000000000E+00 0. -1.
        -14    1    6    6    0    0 -0.22074610540E+02  0.19702484523E+02 -0.14994805138E+03  0.15283944006E+03  0.00000000000E+00 0.  1.
</event>
<event>
12    1  0.8135779E-002  0.1814866E+03  0.7818608E-02  0.1166422E+00
         21   -1    0    0  501  502  0.00000000000E+00  0.00000000000E+00  0.52576394426E+03  0.52576394426E+03  0.00000000000E+00 0.  1.
         21   -1    0    0  502  503 -0.00000000000E+00 -0.00000000000E+00 -0.70189187553E+02  0.70189187553E+02  0.00000000000E+00 0.  1.
         -6    2    1    2    0  503  0.44001476317E+02 -0.39624660309E+02  0.12975601716E+03  0.22310089620E+03  0.17155507068E+03 0.  0.
        -24    2    3    3    0    0  0.88983900547E+01  0.21564486579E+02  0.12609173767E+03  0.15230643804E+03  0.82182214219E+02 0.  0.
          6    2    1    2  501    0 -0.44001476317E+02  0.39624660309E+02  0.32581873955E+03  0.37285223561E+03  0.17133211881E+03 0.  0.
         24    2    5    5    0    0 -0.73513524584E+02  0.40546519720E+00  0.12254149058E+03  0.16368044925E+03  0.79815223212E+02 0.  0.
          5    1    5    5  501    0  0.29512048267E+02  0.39219195112E+02  0.20327724897E+03  0.20917178635E+03  0.47000000000E+01 0. -1.
        -11    1    6    6    0    0 -0.16312553944E+01  0.15570712365E+02 -0.50502867003E+01  0.16450333537E+02  0.00000000000E+00 0.  1.
         12    1    6    6    0    0 -0.71882269190E+02 -0.15165247168E+02  0.12759177728E+03  0.14723011572E+03  0.00000000000E+00 0. -1.
         -5    1    3    3    0  503  0.35103086262E+02 -0.61189146888E+02  0.36642794912E+01  0.70794458160E+02  0.47000000000E+01 0.  1.
         11    1    4    4    0    0  0.43962547864E+02  0.30115772784E+01  0.51157420008E+02  0.67519307122E+02  0.00000000000E+00 0. -1.
        -12    1    4    4    0    0 -0.35064157809E+02  0.18552909301E+02  0.74934317662E+02  0.84787130921E+02  0.00000000000E+00 0.  1.
</event>
<event>
12    1  0.8135779E-002  0.1994324E+03  0.7818608E-02  0.1150900E+00
         21   -1    0    0  503  502  0.00000000000E+00  0.00000000000E+00  0.43433358520E+03  0.43433358520E+03  0.00000000000E+00 0.  1.
         21   -1    0    0  501  503 -0.00000000000E+00 -0.00000000000E+00 -0.10365109271E+03  0.10365109271E+03  0.00000000000E+00 0. -1.
          6    2    1    2  501    0 -0.59553907512E+02 -0.82008075889E+02  0.69293676971E+02  0.21112768753E+03  0.17175940837E+03 0.  0.
         24    2    3    3    0    0 -0.25716582317E+02 -0.12072341713E+03  0.42380019241E+02  0.15290160063E+03  0.79670241584E+02 0.  0.
         -6    2    1    2    0  502  0.59553907512E+02  0.82008075889E+02  0.26138881552E+03  0.32685699037E+03  0.16804578800E+03 0.  0.
        -24    2    5    5    0    0  0.41494946363E+02  0.15293393812E+01  0.21336685611E+03  0.23129993049E+03  0.79057403862E+02 0.  0.
          5    1    3    3  501    0 -0.33837325195E+02  0.38715341243E+02  0.26913657730E+02  0.58226086905E+02  0.47000000000E+01 0. -1.
        -11    1    4    4    0    0 -0.42415337316E+02 -0.78009567366E+02  0.56098982888E+02  0.10503165866E+03  0.00000000000E+00 0.  1.
         12    1    4    4    0    0  0.16698754999E+02 -0.42713849767E+02 -0.13718963648E+02  0.47869941968E+02  0.00000000000E+00 0. -1.
         -5    1    5    5    0  502  0.18058961149E+02  0.80478736508E+02  0.48021959407E+02  0.95557059880E+02  0.47000000000E+01 0.  1.
         11    1    6    6    0    0  0.18262494159E+02 -0.84396601118E+01  0.41256163932E+01  0.20536973154E+02  0.00000000000E+00 0. -1.
        -12    1    6    6    0    0  0.23232452204E+02  0.99689994930E+01  0.20924123972E+03  0.21076295733E+03  0.00000000000E+00 0.  1.
</event>
<event>
12    1  0.8135779E-002  0.2512535E+03  0.7818608E-02  0.1112517E+00
         21   -1    0    0  503  502  0.00000000000E+00  0.00000000000E+00  0.14834366012E+03  0.14834366012E+03  0.00000000000E+00 0.  1.
         21   -1    0    0  501  503 -0.00000000000E+00 -0.00000000000E+00 -0.42581702356E+03  0.42581702356E+03  0.00000000000E+00 0. -1.
          6    2    1    2  501    0  0.17424478490E+03  0.55134754181E+02 -0.14610495514E+03  0.29064583313E+03  0.17241593956E+03 0.  0.
         24    2    3    3    0    0  0.57710755761E+02 -0.27498888361E+02 -0.83194369273E+02  0.13447819678E+03  0.84121115891E+02 0.  0.
         -6    2    1    2    0  502 -0.17424478490E+03 -0.55134754181E+02 -0.13136840831E+03  0.28351485056E+03  0.17240048028E+03 0.  0.
        -24    2    5    5    0    0 -0.79901176949E+02 -0.74352712405E+02 -0.12948852666E+03  0.18710079434E+03  0.79541843004E+02 0.  0.
          5    1    3    3  501    0  0.11653402914E+03  0.82633642542E+02 -0.62910585863E+02  0.15616763635E+03  0.47000000000E+01 0. -1.
        -11    1    4    4    0    0  0.67558241231E+02  0.82821674730E+01 -0.47606507750E+02  0.83060759907E+02  0.00000000000E+00 0.  1.
         12    1    4    4    0    0 -0.98474854695E+01 -0.35781055835E+02 -0.35587861524E+02  0.51417436872E+02  0.00000000000E+00 0. -1.
         -5    1    5    5    0  502 -0.94343607955E+02  0.19217958224E+02 -0.18798816481E+01  0.96414056213E+02  0.47000000000E+01 0.  1.
         13    1    6    6    0    0  0.52073377481E+01 -0.44154181375E+02 -0.37088837266E+02  0.57898963282E+02  0.00000000000E+00 0. -1.
        -14    1    6    6    0    0 -0.85108514697E+02 -0.30198531030E+02 -0.92399689392E+02  0.12920183106E+03  0.00000000000E+00 0.  1.
</event>
<event>
12    1  0.8135779E-002  0.3960280E+03  0.7818608E-02  0.1045174E+00
         21   -1    0    0  501  502  0.00000000000E+00  0.00000000000E+00  0.74553097818E+03  0.74553097818E+03  0.00000000000E+00 0. -1.
         21   -1    0    0  502  503 -0.00000000000E+00 -0.00000000000E+00 -0.21303486595E+03  0.21303486595E+03  0.00000000000E+00 0. -1.
         -6    2    1    2    0  503  0.11909831805E+03 -0.33638270247E+03  0.21209508818E+03  0.44924660722E+03  0.17175696721E+03 0.  0.
        -24    2    3    3    0    0  0.64662492261E+02 -0.16009655393E+03  0.24857579354E+02  0.18633970353E+03  0.65516725917E+02 0.  0.
          6    2    1    2  501    0 -0.11909831805E+03  0.33638270247E+03  0.32040102404E+03  0.50931923691E+03  0.17149792126E+03 0.  0.
         24    2    5    5    0    0 -0.92827108010E+02  0.10012370569E+03  0.12538733190E+03  0.20181164325E+03  0.79776738010E+02 0.  0.
          5    1    5    5  501    0 -0.26271210042E+02  0.23625899678E+03  0.19501369214E+03  0.30750759366E+03  0.47000000000E+01 0. -1.
        -13    1    6    6    0    0 -0.42373111453E+02  0.98801881513E+02  0.89469838841E+02  0.13986473618E+03  0.00000000000E+00 0.  1.
         14    1    6    6    0    0 -0.50453996557E+02  0.13218241774E+01  0.35917493059E+02  0.61946907069E+02  0.00000000000E+00 0. -1.
         -5    1    3    3    0  503  0.54435825790E+02 -0.17628614854E+03  0.18723750883E+03  0.26290690369E+03  0.47000000000E+01 0.  1.
         13    1    4    4    0    0 -0.11482844176E+02 -0.44606908110E+02  0.17835271840E+01  0.46095693190E+02  0.00000000000E+00 0. -1.
        -14    1    4    4    0    0  0.76145336437E+02 -0.11548964582E+03  0.23074052170E+02  0.14024401034E+03  0.00000000000E+00 0.  1.
</event>
<event>
12    1  0.8135779E-002  0.1868615E+03  0.7818608E-02  0.1161541E+00
         21   -1    0    0  501  502  0.00000000000E+00  0.00000000000E+00  0.14149708533E+03  0.14149708533E+03  0.00000000000E+00 0.  1.
         21   -1    0    0  502  503 -0.00000000000E+00 -0.00000000000E+00 -0.28263358796E+03  0.28263358796E+03  0.00000000000E+00 0. -1.
         -6    2    1    2    0  503 -0.60369707299E+02 -0.35319960133E+02 -0.14725632569E+03  0.23716903178E+03  0.17225772272E+03 0.  0.
        -24    2    3    3    0    0 -0.98268591519E+02  0.11287905935E+02 -0.10973644451E+03  0.16618699117E+03  0.76104506327E+02 0.  0.
          6    2    1    2  501    0  0.60369707299E+02  0.35319960133E+02  0.61198230643E+01  0.18696164151E+03  0.17327781745E+03 0.  0.
         24    2    5    5    0    0  0.45317931213E+02  0.77758309158E+02 -0.36437762238E+02  0.12482624502E+03  0.78446232511E+02 0.  0.
          5    1    5    5  501    0  0.15051776086E+02 -0.42438349025E+02  0.42557585302E+02  0.62135396498E+02  0.47000000000E+01 0. -1.
        -11    1    6    6    0    0  0.49315702312E+02  0.91573588522E+02 -0.26458390972E+02  0.10732104669E+03  0.00000000000E+00 0.  1.
         12    1    6    6    0    0 -0.39977710987E+01 -0.13815279364E+02 -0.99793712653E+01  0.17505198328E+02  0.00000000000E+00 0. -1.
         -5    1    3    3    0  503  0.37898884220E+02 -0.46607866068E+02 -0.37519881188E+02  0.70982040608E+02  0.47000000000E+01 0.  1.
         13    1    4    4    0    0 -0.77731439804E+02  0.17009839244E+01 -0.11863123500E+03  0.14183948674E+03  0.00000000000E+00 0. -1.
        -14    1    4    4    0    0 -0.20537151714E+02  0.95869220106E+01  0.88947904973E+01  0.24347504434E+02  0.00000000000E+00 0.  1.
</event>
<event>
12    1  0.8135779E-002  0.2227733E+03  0.7818608E-02  0.1131931E+00
         21   -1    0    0  501  502  0.00000000000E+00  0.00000000000E+00  0.40942276060E+02  0.40942276060E+02  0.00000000000E+00 0.  1.
         21   -1    0    0  502  503 -0.00000000000E+00 -0.00000000000E+00 -0.14659445984E+04  0.14659445984E+04  0.00000000000E+00 0. -1.
         -6    2    1    2    0  503 -0.57335059035E+02  0.12958979201E+03 -0.10285172911E+04  0.10523667508E+04  0.17189280633E+03 0.  0.
        -24    2    3    3    0    0 -0.10374221966E+03  0.75645061258E+02 -0.64270197625E+03  0.66001588012E+03  0.77913466781E+02 0.  0.
          6    2    1    2  501    0  0.57335059035E+02 -0.12958979201E+03 -0.39648503121E+03  0.45452012365E+03  0.17119386567E+03 0.  0.
         24    2    5    5    0    0  0.19805573967E+02 -0.20005346710E+02 -0.26968723382E+03  0.28271504712E+03  0.80025740362E+02 0.  0.
          5    1    5    5  501    0  0.37529485068E+02 -0.10958444530E+03 -0.12679779739E+03  0.17180507654E+03  0.47000000000E+01 0. -1.
        -13    1    6    6    0    0 -0.19914241224E+02 -0.18856424086E+02 -0.33907476166E+02  0.43610304663E+02  0.00000000000E+00 0.  1.
         14    1    6    6    0    0  0.39719815191E+02 -0.11489226238E+01 -0.23577975766E+03  0.23910474245E+03  0.00000000000E+00 0. -1.
         -5    1    3    3    0  503  0.46407160624E+02  0.53944730752E+02 -0.38581531486E+03  0.39235087067E+03  0.47000000000E+01 0.  1.
         13    1    4    4    0    0 -0.24640552484E+02 -0.86889672045E+01 -0.53060052292E+02  0.59144096299E+02  0.00000000000E+00 0. -1.
        -14    1    4    4    0    0 -0.79101667175E+02  0.84334028463E+02 -0.58964192396E+03  0.60087178382E+03  0.00000000000E+00 0.  1.
</event>
<event>
12    1  0.8135779E-002  0.1725555E+03  0.7818608E-02  0.1175415E+00
         21   -1    0    0  503  502  0.00000000000E+00  0.00000000000E+00  0.24927471306E+02  0.24927471306E+02  0.00000000000E+00 0.  1.
         21   -1    0    0  501  503 -0.00000000000E+00 -0.00000000000E+00 -0.13085925012E+04  0.13085925012E+04  0.00000000000E+00 0.  1.
          6    2    1    2  501    0 -0.24218635835E+00  0.14167482517E+02 -0.84482822654E+03  0.86227033755E+03  0.17197274915E+03 0.  0.
         24    2    3    3    0    0 -0.60518394665E+02  0.25503894365E+01 -0.65630967853E+03  0.66395364364E+03  0.80144034062E+02 0.  0.
         -6    2    1    2    0  502  0.24218635835E+00 -0.14167482517E+02 -0.43883680334E+03  0.47124963494E+03  0.17116571575E+03 0.  0.
        -24    2    5    5    0    0 -0.58477487367E+02 -0.23779472864E+02 -0.18592824058E+03  0.21139347943E+03  0.78312276434E+02 0.  0.
          5    1    3    3  501    0  0.60276208307E+02  0.11617093080E+02 -0.18851854801E+03  0.19831669391E+03  0.47000000000E+01 0. -1.
        -13    1    4    4    0    0 -0.58220582498E+02 -0.30205108895E+02 -0.37015177304E+03  0.37591796966E+03  0.00000000000E+00 0.  1.
         14    1    4    4    0    0 -0.22978121678E+01  0.32755498331E+02 -0.28615790549E+03  0.28803567398E+03  0.00000000000E+00 0. -1.
         -5    1    5    5    0  502  0.58719673725E+02  0.96119903469E+01 -0.25290856275E+03  0.25985615551E+03  0.47000000000E+01 0.  1.
         11    1    6    6    0    0 -0.65910248480E+02 -0.22317176145E+02 -0.19031645416E+03  0.20263901384E+03  0.00000000000E+00 0. -1.
        -12    1    6    6    0    0  0.74327611129E+01 -0.14622967190E+01  0.43882135732E+01  0.87544655931E+01  0.00000000000E+00 0.  1.
</event>
<event>
12    1  0.8135779E-002  0.1723614E+03  0.7818608E-02  0.1175467E+00
         21   -1    0    0  503  502  0.00000000000E+00  0.00000000000E+00  0.69008834812E+03  0.69008834812E+03  0.00000000000E+00 0. -1.
         21   -1    0    0  501  503 -0.00000000000E+00 -0.00000000000E+00 -0.49687047391E+02  0.49687047391E+02  0.00000000000E+00 0. -1.
          6    2    1    2  501    0 -0.59871636604E+01 -0.11721977808E+02  0.18424115856E+03  0.25213770434E+03  0.17162565820E+03 0.  0.
         24    2    3    3    0    0 -0.45376481125E+02  0.95694616911E+01  0.18633316479E+03  0.20706764536E+03  0.77500721425E+02 0.  0.
         -6    2    1    2    0  502  0.59871636604E+01  0.11721977808E+02  0.45616014217E+03  0.48763769117E+03  0.17185805670E+03 0.  0.
        -24    2    5    5    0    0  0.23916919275E+02  0.15297163804E+02  0.45952368198E+03  0.46846319010E+03  0.86543191133E+02 0.  0.
          5    1    3    3  501    0  0.39389317465E+02 -0.21291439500E+02 -0.20920062256E+01  0.45070058979E+02  0.47000000000E+01 0. -1.
        -13    1    4    4    0    0 -0.62347435289E+02 -0.76363192485E+01  0.15675596583E+03  0.16887258180E+03  0.00000000000E+00 0.  1.
         14    1    4    4    0    0  0.16970954164E+02  0.17205780940E+02  0.29577198954E+02  0.38195063568E+02  0.00000000000E+00 0. -1.
         -5    1    5    5    0  502 -0.17929755614E+02 -0.35751859957E+01 -0.33635398075E+01  0.19174501071E+02  0.47000000000E+01 0.  1.
         13    1    6    6    0    0  0.19927762378E+01 -0.19030477454E+02  0.36544523912E+03  0.36594583346E+03  0.00000000000E+00 0. -1.
        -14    1    6    6    0    0  0.21924143037E+02  0.34327641259E+02  0.94078442857E+02  0.10251735664E+03  0.00000000000E+00 0.  1.
</event>
<event>
12    1  0.8135779E-002  0.1804237E+03  0.7818608E-02  0.1167428E+00
         21   -1    0    0  503  502  0.00000000000E+00  0.00000000000E+00  0.97191658282E+03  0.97191658282E+03  0.00000000000E+00 0. -1.
         21   -1    0    0  501  503 -0.00000000000E+00 -0.00000000000E+00 -0.78557325390E+02  0.78557325390E+02  0.00000000000E+00 0. -1.
          6    2    1    2  501    0 -0.45096220141E+02 -0.30990162897E+02  0.48674463489E+02  0.18673487257E+03  0.17177499810E+03 0.  0.
         24    2    3    3    0    0 -0.58799244265E+02 -0.19417649874E+02  0.94130097060E+02  0.13764311613E+03  0.79061722670E+02 0.  0.
         -6    2    1    2    0  502  0.45096220141E+02  0.30990162897E+02  0.84468479394E+03  0.86373903563E+03  0.17192632521E+03 0.  0.
        -24    2    5    5    0    0  0.55434495424E+02  0.80997365910E+02  0.63733802192E+03  0.65014508873E+03  0.82796893928E+02 0.  0.
          5    1    3    3  501    0  0.13703024124E+02 -0.11572513024E+02 -0.45455633571E+02  0.49091756448E+02  0.47000000000E+01 0. -1.
        -11    1    4    4    0    0 -0.14053853408E+02  0.30053915473E+02  0.38168346114E+02  0.50572435930E+02  0.00000000000E+00 0.  1.
         12    1    4    4    0    0 -0.44745390857E+02 -0.49471565346E+02  0.55961750946E+02  0.87070680195E+02  0.00000000000E+00 0. -1.
         -5    1    5    5    0  502 -0.10338275283E+02 -0.50007203013E+02  0.20734677202E+03  0.21359394690E+03  0.47000000000E+01 0.  1.
         11    1    6    6    0    0  0.71552038421E+02  0.35206662004E+02  0.40965326745E+03  0.41734278811E+03  0.00000000000E+00 0. -1.
        -12    1    6    6    0    0 -0.16117542997E+02  0.45790703906E+02  0.22768475447E+03  0.23280230062E+03  0.00000000000E+00 0.  1.
</event>
<event>
12    1  0.8135779E-002  0.3582747E+03  0.7818608E-02  0.1059284E+00
         21   -1    0    0  503  502  0.00000000000E+00  0.00000000000E+00  0.23644169344E+03  0.23644169344E+03  0.00000000000E+00 0. -1.
         21   -1    0    0  501  503 -0.00000000000E+00 -0.00000000000E+00 -0.58077623795E+03  0.58077623795E+03  0.00000000000E+00 0.  1.
          6    2    1    2  501    0  0.24877927830E+03 -0.19148734153E+03 -0.27687368927E+03  0.45279109145E+03  0.17263314111E+03 0.  0.
         24    2    3    3    0    0  0.20604855156E+03 -0.14995186643E+03 -0.13338718467E+03  0.29735114259E+03  0.75392261654E+02 0.  0.
         -6    2    1    2    0  502 -0.24877927830E+03  0.19148734153E+03 -0.67460855243E+02  0.36442683994E+03  0.17232940377E+03 0.  0.
        -24    2    5    5    0    0 -0.12060633098E+03  0.36926092788E+02  0.99894286437E+01  0.14916392973E+03  0.78997885088E+02 0.  0.
          5    1    3    3  501    0  0.42730726735E+02 -0.41535475095E+02 -0.14348650460E+03  0.15543994886E+03  0.47000000000E+01 0. -1.
        -13    1    4    4    0    0  0.99621101662E+02 -0.10197845436E+03 -0.40607645495E+02  0.14823275590E+03  0.00000000000E+00 0.  1.
         14    1    4    4    0    0  0.10642744990E+03 -0.47973412069E+02 -0.92779539171E+02  0.14911838668E+03  0.00000000000E+00 0. -1.
         -5    1    5    5    0  502 -0.12817294732E+03  0.15456124874E+03 -0.77450283887E+02  0.21526291021E+03  0.47000000000E+01 0.  1.
         11    1    6    6    0    0 -0.59117589161E+02  0.38572416781E+02 -0.29025954377E+02  0.76323172838E+02  0.00000000000E+00 0. -1.
        -12    1    6    6    0    0 -0.61488741814E+02 -0.16463239931E+01  0.39015383021E+02  0.72840756894E+02  0.00000000000E+00 0.  1.
</event>
<event>
12    1  0.8135779E-002  0.2261718E+03  0.7818608E-02  0.1129841E+00
         21   -1    0    0  503  502  0.00000000000E+00  0.00000000000E+00  0.99020652293E+02  0.99020652293E+02  0.00000000000E+00 0. -1.
         21   -1    0    0  501  503 -0.00000000000E+00 -0.00000000000E+00 -0.58696776018E+03  0.58696776018E+03  0.00000000000E+00 0.  1.
          6    2    1    2  501    0  0.14790785811E+02 -0.13615111086E+03 -0.11900722743E+03  0.25324101210E+03  0.17667030791E+03 0.  0.
         24    2    3    3    0    0 -0.27054194749E+01 -0.16839937058E+03 -0.10397988062E+03  0.21331635047E+03  0.79538559799E+02 0.  0.
         -6    2    1    2    0  502 -0.14790785811E+02  0.13615111086E+03 -0.36893988045E+03  0.43274740037E+03  0.17999384657E+03 0.  0.
        -24    2    5    5    0    0  0.18336532933E+02  0.14235140633E+03 -0.36385659898E+03  0.39834111226E+03  0.75391417069E+02 0.  0.
          5    1    3    3  501    0  0.17496205286E+02  0.32248259722E+02 -0.15027346811E+02  0.39924661635E+02  0.47000000000E+01 0. -1.
        -11    1    4    4    0    0 -0.18836544682E-01 -0.98087096053E+02 -0.10399237913E+03  0.14295276732E+03  0.00000000000E+00 0.  1.
         12    1    4    4    0    0 -0.26865829302E+01 -0.70312274530E+02  0.12498505734E-01  0.70363583149E+02  0.00000000000E+00 0. -1.
         -5    1    5    5    0  502 -0.33127318744E+02 -0.62002954672E+01 -0.50832814679E+01  0.34406288110E+02  0.47000000000E+01 0.  1.
         11    1    6    6    0    0  0.12576499162E+02  0.81625979642E+02 -0.11173097634E+03  0.13894164227E+03  0.00000000000E+00 0. -1.
        -12    1    6    6    0    0  0.57600337715E+01  0.60725426686E+02 -0.25212562264E+03  0.25939946998E+03  0.00000000000E+00 0.  1.
</event>
<event>
12    1  0.8135779E-002  0.2079350E+03  0.7818608E-02  0.1146557E+00
         21   -1    0    0  503  502  0.00000000000E+00  0.00000000000E+00  0.88076885737E+02  0.88076885737E+02  0.00000000000E+00 0.  1.
         21   -1    0    0  501  503 -0.00000000000E+00 -0.00000000000E+00 -0.73384714318E+03  0.73384714318E+03  0.00000000000E+00 0.  1.
          6    2    1    2  501    0 -0.24148877298E+02  0.78488584788E+02 -0.58457661316E+03  0.62045691116E+03  0.19103228978E+03 0.  0.
         24    2    3    3    0    0  0.10945507703E+02 -0.22997423459E+02 -0.37762575244E+03  0.38725790928E+03  0.81968248513E+02 0.  0.
         -6    2    1    2    0  502  0.24148877298E+02 -0.78488584788E+02 -0.61193644281E+02  0.20146711775E+03  0.17349556541E+03 0.  0.
        -24    2    5    5    0    0  0.58699071497E+02 -0.10774492553E+03 -0.41398668012E+02  0.15183264910E+03  0.79276438155E+02 0.  0.
          5    1    3    3  501    0 -0.35094385002E+02  0.10148600825E+03 -0.20695086072E+03  0.23319900188E+03  0.47000000000E+01 0. -1.
        -13    1    4    4    0    0  0.32480246447E+02  0.71056722275E+01 -0.29314955561E+03  0.29502901373E+03  0.00000000000E+00 0.  1.
         14    1    4    4    0    0 -0.21534738743E+02 -0.30103095686E+02 -0.84476196829E+02  0.92228895544E+02  0.00000000000E+00 0. -1.
         -5    1    5    5    0  502 -0.34550194198E+02  0.29256340747E+02 -0.19794976269E+02  0.49634468653E+02  0.47000000000E+01 0.  1.
         11    1    6    6    0    0  0.58044633695E+01 -0.45979630355E+02 -0.52194240237E+02  0.69800121178E+02  0.00000000000E+00 0. -1.
        -12    1    6    6    0    0  0.52894608127E+02 -0.61765295180E+02  0.10795572225E+02  0.82032527922E+02  0.00000000000E+00 0.  1.
</event>
<event>
12    1  0.8135779E-002  0.2643113E+03  0.7818608E-02  0.1104667E+00
         21   -1    0    0  501  502  0.00000000000E+00  0.00000000000E+00  0.98069845185E+02  0.98069845185E+02  0.00000000000E+00 0.  1.
         21   -1    0    0  502  503 -0.00000000000E+00 -0.00000000000E+00 -0.10374338695E+04  0.10374338695E+04  0.00000000000E+00 0. -1.
         -6    2    1    2    0  503  0.92092913561E+02  0.17828660101E+03 -0.15145126726E+03  0.30462753672E+03  0.17202683787E+03 0.  0.
        -24    2    3    3    0    0  0.59040959656E+02  0.88818364739E+02 -0.16151432113E+03  0.20860487267E+03  0.77811182614E+02 0.  0.
          6    2    1    2  501    0 -0.92092913561E+02 -0.17828660101E+03 -0.78791275707E+03  0.83087617797E+03  0.17111836121E+03 0.  0.
         24    2    5    5    0    0 -0.53778552135E+02 -0.65704154368E+02 -0.20412151008E+03  0.23507662473E+03  0.79914079149E+02 0.  0.
          5    1    5    5  501    0 -0.38314361427E+02 -0.11258244664E+03 -0.58379124699E+03  0.59579955325E+03  0.47000000000E+01 0. -1.
        -13    1    6    6    0    0  0.44641593862E+01 -0.93463186075E+01  0.44794135738E+01  0.11284836574E+02  0.00000000000E+00 0.  1.
         14    1    6    6    0    0 -0.58242711521E+02 -0.56357835760E+02 -0.20860092365E+03  0.22379178815E+03  0.00000000000E+00 0. -1.
         -5    1    3    3    0  503  0.33051953906E+02  0.89468236272E+02  0.10063053872E+02  0.96022664053E+02  0.47000000000E+01 0.  1.
         13    1    4    4    0    0 -0.19316481198E+02  0.17399035593E+02 -0.31584057801E+02  0.40907280435E+02  0.00000000000E+00 0. -1.
        -14    1    4    4    0    0  0.78357440854E+02  0.71419329146E+02 -0.12993026333E+03  0.16769759223E+03  0.00000000000E+00 0.  1.
</event>
<event>
12    1  0.8135779E-002  0.3112800E+03  0.7818608E-02  0.1079766E+00
         21   -1    0    0  501  502  0.00000000000E+00  0.00000000000E+00  0.33906786466E+03  0.33906786466E+03  0.00000000000E+00 0.  1.
         21   -1    0    0  502  503 -0.00000000000E+00 -0.00000000000E+00 -0.45689371735E+03  0.45689371735E+03  0.00000000000E+00 0. -1.
         -6    2    1    2    0  503  0.24942687852E+03  0.70404624756E+02 -0.30266439215E+03  0.43416697219E+03  0.17240837147E+03 0.  0.
        -24    2    3    3    0    0  0.24404199299E+03  0.91762966616E+02 -0.30756831025E+03  0.41111671900E+03  0.80260543162E+02 0.  0.
          6    2    1    2  501    0 -0.24942687852E+03 -0.70404624756E+02  0.18483853946E+03  0.36179460981E+03  0.17192869192E+03 0.  0.
         24    2    5    5    0    0 -0.17929819336E+03 -0.10711700037E+03  0.16962853708E+03  0.28105264316E+03  0.81208704746E+02 0.  0.
          5    1    5    5  501    0 -0.70128685163E+02  0.36712375617E+02  0.15210002372E+02  0.80741966649E+02  0.47000000000E+01 0. -1.
        -11    1    6    6    0    0 -0.80978637191E+02 -0.52795616485E+01  0.47065603588E+02  0.93811430506E+02  0.00000000000E+00 0.  1.
         12    1    6    6    0    0 -0.98319556167E+02 -0.10183743872E+03  0.12256293350E+03  0.18724121266E+03  0.00000000000E+00 0. -1.
         -5    1    3    3    0  503  0.53848855350E+01 -0.21358341860E+02  0.49039181067E+01  0.23050253188E+02  0.47000000000E+01 0.  1.
         11    1    4    4    0    0  0.42258894988E+00  0.39978657406E+01  0.42146851045E+01  0.58245242235E+01  0.00000000000E+00 0. -1.
        -12    1    4    4    0    0  0.24361940404E+03  0.87765100875E+02 -0.31178299536E+03  0.40529219478E+03  0.00000000000E+00 0.  1.
</event>
<event>
12    1  0.8135779E-002  0.2027035E+03  0.7818608E-02  0.1147480E+00
         21   -1    0    0  501  502  0.00000000000E+00  0.00000000000E+00  0.62380717149E+03  0.62380717149E+03  0.00000000000E+00 0. -1.
         21   -1    0    0  502  503 -0.00000000000E+00 -0.00000000000E+00 -0.14806457394E+03  0.14806457394E+03  0.00000000000E+00 0. -1.
         -6    2    1    2    0  503  0.94079965163E+02 -0.51524372502E+02  0.52542749430E+03  0.56316790999E+03  0.17198326160E+03 0.  0.
        -24    2    3    3    0    0  0.11340680394E+03 -0.83782121197E+02  0.38145618652E+03  0.41429240323E+03  0.79049516950E+02 0.  0.
          6    2    1    2  501    0 -0.94079965163E+02  0.51524372502E+02 -0.49684896750E+02  0.20870383544E+03  0.17199680565E+03 0.  0.
         24    2    5    5    0    0 -0.27600538297E+02 -0.39196890899E+02 -0.31237986977E+02  0.94632628251E+02  0.75374641152E+02 0.  0.
          5    1    5    5  501    0 -0.66479426866E+02  0.90721263401E+02 -0.18446909773E+02  0.11407120719E+03  0.47000000000E+01 0. -1.
        -13    1    6    6    0    0  0.15866053090E+01 -0.17351977234E+02 -0.50484892778E+02  0.53407235738E+02  0.00000000000E+00 0.  1.
         14    1    6    6    0    0 -0.29187143606E+02 -0.21844913665E+02  0.19246905801E+02  0.41225392513E+02  0.00000000000E+00 0. -1.
         -5    1    3    3    0  503 -0.19326838781E+02  0.32257748695E+02  0.14397130778E+03  0.14887550676E+03  0.47000000000E+01 0.  1.
         11    1    4    4    0    0  0.73026332376E+02 -0.90299426566E+02  0.32043563246E+03  0.34083108163E+03  0.00000000000E+00 0. -1.
        -12    1    4    4    0    0  0.40380471568E+02  0.65173053691E+01  0.61020554061E+02  0.73461321600E+02  0.00000000000E+00 0.  1.
</event>
<event>
12    1  0.8135779E-002  0.1990380E+03  0.7818608E-02  0.1150611E+00
         21   -1    0    0  503  502  0.00000000000E+00  0.00000000000E+00  0.26816461107E+02  0.26816461107E+02  0.00000000000E+00 0. -1.
         21   -1    0    0  501  503 -0.00000000000E+00 -0.00000000000E+00 -0.18105061254E+04  0.18105061254E+04  0.00000000000E+00 0. -1.
          6    2    1    2  501    0 -0.89606372704E+02 -0.45735884427E+02 -0.12876330585E+04  0.13029255590E+04  0.17174121777E+03 0.  0.
         24    2    3    3    0    0 -0.31450438261E+02  0.33937585400E+02 -0.78827393948E+03  0.79389550662E+03  0.82178963279E+02 0.  0.
         -6    2    1    2    0  502  0.89606372704E+02  0.45735884427E+02 -0.49605660587E+03  0.53439702755E+03  0.17142623392E+03 0.  0.
        -24    2    5    5    0    0  0.66870738126E+01 -0.40037110656E+02 -0.92773658398E+02  0.11381190830E+03  0.51947200045E+02 0.  0.
          5    1    3    3  501    0 -0.58155934443E+02 -0.79673469827E+02 -0.49935911898E+03  0.50903005237E+03  0.47000000000E+01 0. -1.
        -13    1    4    4    0    0 -0.57926427425E+02  0.32411490559E+02 -0.62023499886E+03  0.62377674654E+03  0.00000000000E+00 0.  1.
         14    1    4    4    0    0  0.26475989163E+02  0.15260948411E+01 -0.16803894062E+03  0.17011876008E+03  0.00000000000E+00 0. -1.
         -5    1    5    5    0  502  0.82919298891E+02  0.85772995083E+02 -0.40328294747E+03  0.42058511925E+03  0.47000000000E+01 0.  1.
         13    1    6    6    0    0 -0.89742480393E+00  0.10106100172E+02 -0.37280340152E+02  0.38636283385E+02  0.00000000000E+00 0. -1.
        -14    1    6    6    0    0  0.75844986165E+01 -0.50143210828E+02 -0.55493318245E+02  0.75175624914E+02  0.00000000000E+00 0.  1.
</event>
<event>
12    1  0.8135779E-002  0.1801213E+03  0.7818608E-02  0.1168131E+00
         21   -1    0    0  501  502  0.00000000000E+00  0.00000000000E+00  0.10823534159E+03  0.10823534159E+03  0.00000000000E+00 0.  1.
         21   -1    0    0  502  503 -0.00000000000E+00 -0.00000000000E+00 -0.30551380872E+03  0.30551380872E+03  0.00000000000E+00 0.  1.
         -6    2    1    2    0  503 -0.53490559130E+02  0.15733654633E+02 -0.13425092404E+03  0.22464858736E+03  0.17127431038E+03 0.  0.
        -24    2    3    3    0    0  0.26173556852E+02 -0.24201637950E+01 -0.11285144736E+03  0.14005567926E+03  0.78671671216E+02 0.  0.
          6    2    1    2  501    0  0.53490559130E+02 -0.15733654633E+02 -0.63027543093E+02  0.18910056295E+03  0.16934510301E+03 0.  0.
         24    2    5    5    0    0 -0.26779404172E+02 -0.27253497598E+01  0.32409723339E+01  0.84095376687E+02  0.79605052977E+02 0.  0.
          5    1    5    5  501    0  0.80269963302E+02 -0.13008304873E+02 -0.66268515427E+02  0.10500518626E+03  0.47000000000E+01 0. -1.
        -13    1    6    6    0    0 -0.23541058902E+02  0.22443320554E+02 -0.28647345881E+02  0.43342294791E+02  0.00000000000E+00 0.  1.
         14    1    6    6    0    0 -0.32383452692E+01 -0.25168670314E+02  0.31888318215E+02  0.40753081896E+02  0.00000000000E+00 0. -1.
         -5    1    3    3    0  503 -0.79664115982E+02  0.18153818428E+02 -0.21399476678E+02  0.84592908100E+02  0.47000000000E+01 0.  1.
         11    1    4    4    0    0 -0.15315815449E+02  0.26718692254E+02 -0.55779226008E+02  0.63716440365E+02  0.00000000000E+00 0. -1.
        -12    1    4    4    0    0  0.41489372301E+02 -0.29138856049E+02 -0.57072221349E+02  0.76339238897E+02  0.00000000000E+00 0.  1.
</event>
<event>
12    1  0.8135779E-002  0.1746350E+03  0.7818608E-02  0.1173116E+00
         21   -1    0    0  501  502  0.00000000000E+00  0.00000000000E+00  0.39360799939E+03  0.39360799939E+03  0.00000000000E+00 0.  1.
         21   -1    0    0  502  503 -0.00000000000E+00 -0.00000000000E+00 -0.88244336418E+02  0.88244336418E+02  0.00000000000E+00 0.  1.
         -6    2    1    2    0  503  0.25577410309E+02 -0.16865195402E+02  0.68448978794E+02  0.18757041974E+03  0.17192661496E+03 0.  0.
        -24    2    3    3    0    0 -0.16045106404E+02 -0.59433621059E+01  0.10259434287E+03  0.13243679817E+03  0.81982542816E+02 0.  0.
          6    2    1    2  501    0 -0.25577410309E+02  0.16865195402E+02  0.23691468418E+03  0.29428191607E+03  0.17185645117E+03 0.  0.
         24    2    5    5    0    0  0.22683147931E+02  0.37094356967E+01  0.22887788682E+03  0.24340131459E+03  0.79566498950E+02 0.  0.
          5    1    5    5  501    0 -0.48260558240E+02  0.13155759705E+02  0.80367973607E+01  0.50880601479E+02  0.47000000000E+01 0. -1.
        -13    1    6    6    0    0 -0.78580956966E+00 -0.32187678536E+02  0.50122358632E+02  0.59572770467E+02  0.00000000000E+00 0.  1.
         14    1    6    6    0    0  0.23468957501E+02  0.35897114233E+02  0.17875552819E+03  0.18382854412E+03  0.00000000000E+00 0. -1.
         -5    1    3    3    0  503  0.41622516713E+02 -0.10921833296E+02 -0.34145364077E+02  0.55133621576E+02  0.47000000000E+01 0.  1.
         13    1    4    4    0    0  0.12332463174E+02 -0.34506883341E+02  0.23073455417E+02  0.43303567875E+02  0.00000000000E+00 0. -1.
        -14    1    4    4    0    0 -0.28377569578E+02  0.28563521235E+02  0.79520887454E+02  0.89133230291E+02  0.00000000000E+00 0.  1.
</event>
<event>
12    1  0.8135779E-002  0.1885884E+03  0.7818608E-02  0.1159834E+00
         21   -1    0    0  503  502  0.00000000000E+00  0.00000000000E+00  0.54259978923E+02  0.54259978923E+02  0.00000000000E+00 0. -1.
         21   -1    0    0  501  503 -0.00000000000E+00 -0.00000000000E+00 -0.10413195171E+04  0.10413195171E+04  0.00000000000E+00 0. -1.
          6    2    1    2  501    0  0.22884179550E+02 -0.78339631069E+02 -0.82725850662E+03  0.84839141496E+03  0.16955993848E+03 0.  0.
         24    2    3    3    0    0 -0.22155348469E+02 -0.53327621802E+02 -0.74180946036E+03  0.74850253070E+03  0.81486614099E+02 0.  0.
         -6    2    1    2    0  502 -0.22884179550E+02  0.78339631069E+02 -0.15980103155E+03  0.24718808105E+03  0.17001410018E+03 0.  0.
        -24    2    5    5    0    0 -0.69578716282E+02  0.78486076975E+02 -0.12741481972E+03  0.19016740127E+03  0.94487259353E+02 0.  0.
          5    1    3    3  501    0  0.45039528020E+02 -0.25012009267E+02 -0.85449046261E+02  0.99888884260E+02  0.47000000000E+01 0. -1.
        -11    1    4    4    0    0 -0.43337797130E+02 -0.30920624150E+02 -0.24406329268E+03  0.24980220274E+03  0.00000000000E+00 0.  1.
         12    1    4    4    0    0  0.21182448660E+02 -0.22406997652E+02 -0.49774616768E+03  0.49870032797E+03  0.00000000000E+00 0. -1.
         -5    1    5    5    0  502  0.46694536731E+02 -0.14644590658E+00 -0.32386211823E+02  0.57020679786E+02  0.47000000000E+01 0.  1.
         11    1    6    6    0    0  0.19880367772E+02  0.20451529884E+02 -0.52829449506E+02  0.60037028844E+02  0.00000000000E+00 0. -1.
        -12    1    6    6    0    0 -0.89459084053E+02  0.58034547091E+02 -0.74585370218E+02  0.13013037242E+03  0.00000000000E+00 0.  1.
</event>
<event>
12    1  0.8135779E-002  0.1768460E+03  0.7818608E-02  0.1171534E+00
         21   -1    0    0  501  502  0.00000000000E+00  0.00000000000E+00  0.87035672729E+03  0.87035672729E+03  0.00000000000E+00 0. -1.
         21   -1    0    0  502  503 -0.00000000000E+00 -0.00000000000E+00 -0.36484258657E+02  0.36484258657E+02  0.00000000000E+00 0. -1.
         -6    2    1    2    0  503  0.26145140304E+02 -0.41689457263E+02  0.34214278798E+03  0.38514439747E+03  0.16986153282E+03 0.  0.
        -24    2    3    3    0    0  0.37972071482E+02 -0.20514428330E+02  0.77910417525E+02  0.11975959432E+03  0.80060023044E+02 0.  0.
          6    2    1    2  501    0 -0.26145140304E+02  0.41689457263E+02  0.49172968066E+03  0.52169658847E+03  0.16717557351E+03 0.  0.
         24    2    5    5    0    0  0.47610039841E+02  0.48439143893E+01  0.26153580944E+03  0.27713835620E+03  0.78195328867E+02 0.  0.
          5    1    5    5  501    0 -0.73755180145E+02  0.36845542873E+02  0.23019387121E+03  0.24455823227E+03  0.47000000000E+01 0. -1.
        -11    1    6    6    0    0  0.66939672494E+02  0.90657589335E+01  0.15971013209E+03  0.17340828709E+03  0.00000000000E+00 0.  1.
         12    1    6    6    0    0 -0.19329632653E+02 -0.42218445443E+01  0.10182567735E+03  0.10373006911E+03  0.00000000000E+00 0. -1.
         -5    1    3    3    0  503 -0.11826931178E+02 -0.21175028933E+02  0.26423237045E+03  0.26538480316E+03  0.47000000000E+01 0.  1.
         13    1    4    4    0    0  0.21898990099E+02  0.27774935619E+02  0.51347854510E+02  0.62350741606E+02  0.00000000000E+00 0. -1.
        -14    1    4    4    0    0  0.16073081383E+02 -0.48289363949E+02  0.26562563015E+02  0.57408852712E+02  0.00000000000E+00 0.  1.
</event>
<event>
12    1  0.8135779E-002  0.1806823E+03  0.7818608E-02  0.1167202E+00
         21   -1    0    0  501  502  0.00000000000E+00  0.00000000000E+00  0.23163450088E+04  0.23163450088E+04  0.00000000000E+00 0.  1.
         21   -1    0    0  502  503 -0.00000000000E+00 -0.00000000000E+00 -0.14837560378E+02  0.14837560378E+02  0.00000000000E+00 0. -1.
         -6    2    1    2    0  503 -0.43971382829E+02 -0.33244174378E+02  0.88724286758E+03  0.90545348527E+03  0.17206815592E+03 0.  0.
        -24    2    3    3    0    0  0.20428800674E+02 -0.36156958950E+02  0.72891120857E+03  0.73443631598E+03  0.79752684394E+02 0.  0.
          6    2    1    2  501    0  0.43971382829E+02  0.33244174378E+02  0.14142645808E+04  0.14257290839E+04  0.17181518685E+03 0.  0.
         24    2    5    5    0    0  0.40856397392E+02 -0.37474623986E+02  0.10578254366E+04  0.10622984782E+04  0.80061288613E+02 0.  0.
          5    1    5    5  501    0  0.31149854376E+01  0.70718798364E+02  0.35643914430E+03  0.36343060571E+03  0.47000000000E+01 0. -1.
        -13    1    6    6    0    0  0.64843081911E+02 -0.23028853239E+02  0.80141372961E+03  0.80436243035E+03  0.00000000000E+00 0.  1.
         14    1    6    6    0    0 -0.23986684519E+02 -0.14445770746E+02  0.25641170694E+03  0.25793604786E+03  0.00000000000E+00 0. -1.
         -5    1    3    3    0  503 -0.64400183503E+02  0.29127845719E+01  0.15833165901E+03  0.17101716930E+03  0.47000000000E+01 0.  1.
         11    1    4    4    0    0  0.47067015100E+02 -0.18348042248E+02  0.29082710336E+03  0.29518190767E+03  0.00000000000E+00 0. -1.
        -12    1    4    4    0    0 -0.26638214426E+02 -0.17808916702E+02  0.43808410521E+03  0.43925440831E+03  0.00000000000E+00 0.  1.
</event>
<event>
12    1  0.8135779E-002  0.2116750E+03  0.7818608E-02  0.1140479E+00
         21   -1    0    0  501  502  0.00000000000E+00  0.00000000000E+00  0.14268698540E+03  0.14268698540E+03  0.00000000000E+00 0. -1.
         21   -1    0    0  502  503 -0.00000000000E+00 -0.00000000000E+00 -0.31834505903E+03  0.31834505903E+03  0.00000000000E+00 0. -1.
         -6    2    1    2    0  503  0.29897219651E+02 -0.11744927579E+03 -0.11944298677E+03  0.24201962658E+03  0.17210083218E+03 0.  0.
        -24    2    3    3    0    0 -0.42913091043E+02 -0.38895518932E+02 -0.67391838476E+02  0.12284141507E+03  0.84817206911E+02 0.  0.
          6    2    1    2  501    0 -0.29897219651E+02  0.11744927579E+03 -0.56215086852E+02  0.21901241785E+03  0.17354574917E+03 0.  0.
         24    2    5    5    0    0  0.49667415770E+02  0.10758258663E+03 -0.29356351303E+02  0.13432850887E+03  0.56048976766E+02 0.  0.
          5    1    5    5  501    0 -0.79564635421E+02  0.98666891579E+01 -0.26858735549E+02  0.84683908979E+02  0.47000000000E+01 0. -1.
        -13    1    6    6    0    0 -0.40047271807E+01  0.19201802504E+02  0.11965042706E+02  0.22976277030E+02  0.00000000000E+00 0.  1.
         14    1    6    6    0    0  0.53672142951E+02  0.88380784130E+02 -0.41321394009E+02  0.11135223184E+03  0.00000000000E+00 0. -1.
         -5    1    3    3    0  503  0.72810310693E+02 -0.78553756860E+02 -0.52051148295E+02  0.11917821151E+03  0.47000000000E+01 0.  1.
         11    1    4    4    0    0 -0.27857638257E+02 -0.65969104762E+02 -0.44317489102E+02  0.84214076214E+02  0.00000000000E+00 0. -1.
        -12    1    4    4    0    0 -0.15055452786E+02  0.27073585830E+02 -0.23074349374E+02  0.38627338859E+02  0.00000000000E+00 0.  1.
</event>
<event>
12    1  0.8135779E-002  0.2612132E+03  0.7818608E-02  0.1106728E+00
         21   -1    0    0  501  502  0.00000000000E+00  0.00000000000E+00  0.89221230343E+03  0.89221230343E+03  0.00000000000E+00 0. -1.
         21   -1    0    0  502  503 -0.00000000000E+00 -0.00000000000E+00 -0.78903959311E+02  0.78903959311E+02  0.00000000000E+00 0.  1.
         -6    2    1    2    0  503  0.35237652396E+02 -0.19166098410E+03  0.30984454738E+03  0.40392306057E+03  0.17080565079E+03 0.  0.
        -24    2    3    3    0    0 -0.55977096879E+01 -0.60017285889E+02  0.21256596652E+03  0.23515457308E+03  0.80498286677E+02 0.  0.
          6    2    1    2  501    0 -0.35237652396E+02  0.19166098410E+03  0.50346379673E+03  0.56719320217E+03  0.17394455725E+03 0.  0.
         24    2    5    5    0    0 -0.88637337440E+02  0.12625572705E+03  0.38057468489E+03  0.41801814453E+03  0.78134449360E+02 0.  0.
          5    1    5    5  501    0  0.53399685044E+02  0.65405257050E+02  0.12288911184E+03  0.14917505763E+03  0.47000000000E+01 0. -1.
        -13    1    6    6    0    0 -0.80479250423E+02  0.13528340599E+03  0.36922137558E+03  0.40137629958E+03  0.00000000000E+00 0.  1.
         14    1    6    6    0    0 -0.81580870171E+01 -0.90276789431E+01  0.11353309316E+02  0.16641844949E+02  0.00000000000E+00 0. -1.
         -5    1    3    3    0  503  0.40835362084E+02 -0.13164369821E+03  0.97278580863E+02  0.16876848749E+03  0.47000000000E+01 0.  1.
         11    1    4    4    0    0 -0.20294622292E+01 -0.79970042641E+02  0.17652065337E+03  0.19380110294E+03  0.00000000000E+00 0. -1.
        -12    1    4    4    0    0 -0.35682474587E+01  0.19952756752E+02  0.36045313157E+02  0.41353470139E+02  0.00000000000E+00 0.  1.
</event>
<event>
12    1  0.8135779E-002  0.3319973E+03  0.7818608E-02  0.1070292E+00
         21   -1    0    0  501  502  0.00000000000E+00  0.00000000000E+00  0.80481112167E+03  0.80481112167E+03  0.00000000000E+00 0.  1.
         21   -1    0    0  502  503 -0.00000000000E+00 -0.00000000000E+00 -0.60098966970E+03  0.60098966970E+03  0.00000000000E+00 0. -1.
         -6    2    1    2    0  503 -0.12495356298E+03  0.25584953007E+03 -0.51580731778E+03  0.61341616243E+03  0.17073319629E+03 0.  0.
        -24    2    3    3    0    0  0.60574521940E+01  0.99888881009E+02 -0.19159444893E+03  0.23050144023E+03  0.80049983190E+02 0.  0.
          6    2    1    2  501    0  0.12495356298E+03 -0.25584953007E+03  0.71962876975E+03  0.79238462894E+03  0.17010425915E+03 0.  0.
         24    2    5    5    0    0  0.40633358703E+01 -0.53379038083E+02  0.15854536693E+03  0.18374235135E+03  0.75886664848E+02 0.  0.
          5    1    5    5  501    0  0.12089022711E+03 -0.20247049199E+03  0.56108340282E+03  0.60864227758E+03  0.47000000000E+01 0. -1.
        -11    1    6    6    0    0  0.17734836326E+02 -0.64627111839E+02  0.14956091063E+03  0.16388915154E+03  0.00000000000E+00 0.  1.
         12    1    6    6    0    0 -0.13671500456E+02  0.11248073756E+02  0.89844563010E+01  0.19853199817E+02  0.00000000000E+00 0. -1.
         -5    1    3    3    0  503 -0.13101101518E+03  0.15596064906E+03 -0.32421286885E+03  0.38291472221E+03  0.47000000000E+01 0.  1.
         11    1    4    4    0    0 -0.27498227194E+02  0.72753947612E+01 -0.57094710596E+02  0.63787850299E+02  0.00000000000E+00 0. -1.
        -12    1    4    4    0    0  0.33555679388E+02  0.92613486248E+02 -0.13449973834E+03  0.16671358993E+03  0.00000000000E+00 0.  1.
</event>
<event>
12    1  0.8135779E-002  0.1750992E+03  0.7818608E-02  0.1172704E+00
         21   -1    0    0  501  502  0.00000000000E+00  0.00000000000E+00  0.11347438776E+03  0.11347438776E+03  0.00000000000E+00 0. -1.
         21   -1    0    0  502  503 -0.00000000000E+00 -0.00000000000E+00 -0.16918365104E+04  0.16918365104E+04  0.00000000000E+00 0. -1.
         -6    2    1    2    0  503  0.26928796719E+02  0.12358379695E+02 -0.16166504287E+04  0.16260743701E+04  0.17228278794E+03 0.  0.
        -24    2    3    3    0    0  0.55526175710E+02 -0.15468523162E+02 -0.14882883867E+04  0.14915713946E+04  0.80377060152E+02 0.  0.
          6    2    1    2  501    0 -0.26928796719E+02 -0.12358379695E+02  0.38288306075E+02  0.17923652798E+03  0.17257418387E+03 0.  0.
         24    2    5    5    0    0 -0.69085734044E+02 -0.20130810004E+02 -0.19070326833E+02  0.10747497277E+03  0.77518412307E+02 0.  0.
          5    1    5    5  501    0  0.42156937325E+02  0.77724303091E+01  0.57358632908E+02  0.71761555213E+02  0.47000000000E+01 0. -1.
        -13    1    6    6    0    0 -0.72650964512E+02 -0.40933780430E+02 -0.21803701181E+02  0.86192449843E+02  0.00000000000E+00 0.  1.
         14    1    6    6    0    0  0.35652304674E+01  0.20802970425E+02  0.27333743485E+01  0.21282522927E+02  0.00000000000E+00 0. -1.
         -5    1    3    3    0  503 -0.28597378991E+02  0.27826902858E+02 -0.12836204201E+03  0.13450297557E+03  0.47000000000E+01 0.  1.
         13    1    4    4    0    0  0.52971789443E+02  0.19831604835E+02 -0.11605492053E+04  0.11619267451E+04  0.00000000000E+00 0. -1.
        -14    1    4    4    0    0  0.25543862668E+01 -0.35300127997E+02 -0.32773918132E+03  0.32964464943E+03  0.00000000000E+00 0.  1.
</event>
<event>
12    1  0.8135779E-002  0.1899720E+03  0.7818608E-02  0.1160517E+00
         21   -1    0    0  501  502  0.00000000000E+00  0.00000000000E+00  0.94495765513E+03  0.94495765513E+03  0.00000000000E+00 0.  1.
         21   -1    0    0  502  503 -0.00000000000E+00 -0.00000000000E+00 -0.62588990088E+02  0.62588990088E+02  0.00000000000E+00 0.  1.
         -6    2    1    2    0  503  0.21476856238E+02  0.59474697387E+02  0.12173708488E+03  0.22563082211E+03  0.17913920583E+03 0.  0.
        -24    2    3    3    0    0  0.31236245083E+02  0.26858045263E+02 -0.93232474434E+01  0.90139153082E+02  0.79630938543E+02 0.  0.
          6    2    1    2  501    0 -0.21476856238E+02 -0.59474697387E+02  0.76063158016E+03  0.78191582311E+03  0.16980417754E+03 0.  0.
         24    2    5    5    0    0  0.50733181006E+02 -0.45582453495E+02  0.36848510386E+03  0.38290675956E+03  0.78642857459E+02 0.  0.
          5    1    5    5  501    0 -0.72210037244E+02 -0.13892243892E+02  0.39214647630E+03  0.39900906355E+03  0.47000000000E+01 0. -1.
        -11    1    6    6    0    0  0.59375433064E+02 -0.17299102861E+01  0.21108812994E+03  0.21928664629E+03  0.00000000000E+00 0.  1.
         12    1    6    6    0    0 -0.86422520578E+01 -0.43852543209E+02  0.15739697392E+03  0.16362011327E+03  0.00000000000E+00 0. -1.
         -5    1    3    3    0  503 -0.97593888450E+01  0.32616652124E+02  0.13106033232E+03  0.13549166903E+03  0.47000000000E+01 0.  1.
         11    1    4    4    0    0  0.36736524940E+02  0.43325712582E+02  0.16382746650E+02  0.59119235645E+02  0.00000000000E+00 0. -1.
        -12    1    4    4    0    0 -0.55002798573E+01 -0.16467667319E+02 -0.25705994094E+02  0.31019917437E+02  0.00000000000E+00 0.  1.
</event>
<event>
12    1  0.8135779E-002  0.1806415E+03  0.7818608E-02  0.1167379E+00
         21   -1    0    0  503  502  0.00000000000E+00  0.00000000000E+00  0.32259925385E+03  0.32259925385E+03  0.00000000000E+00 0. -1.
         21   -1    0    0  501  503 -0.00000000000E+00 -0.00000000000E+00 -0.10969911962E+03  0.10969911962E+03  0.00000000000E+00 0. -1.
          6    2    1    2  501    0  0.19026862398E+02 -0.49805582622E+02  0.44317072011E+02  0.18521212754E+03  0.17174664993E+03 0.  0.
         24    2    3    3    0    0  0.33805467827E+02  0.33400772168E+02  0.44094839692E+02  0.10057263295E+03  0.76890040808E+02 0.  0.
         -6    2    1    2    0  502 -0.19026862398E+02  0.49805582622E+02  0.16858306221E+03  0.24708624593E+03  0.17259416708E+03 0.  0.
        -24    2    5    5    0    0 -0.27234580387E+02  0.99293367716E+02  0.11961681639E+03  0.17682821623E+03  0.79744216406E+02 0.  0.
          5    1    3    3  501    0 -0.14778605428E+02 -0.83206354790E+02  0.22223231892E+00  0.84639494582E+02  0.47000000000E+01 0. -1.
        -11    1    4    4    0    0  0.12633881225E+02  0.12938439908E+02 -0.21844302377E+02  0.28358274426E+02  0.00000000000E+00 0.  1.
         12    1    4    4    0    0  0.21171586602E+02  0.20462332260E+02  0.65939142070E+02  0.72214358528E+02  0.00000000000E+00 0. -1.
         -5    1    5    5    0  502  0.82077179887E+01 -0.49487785093E+02  0.48966245821E+02  0.70258029704E+02  0.47000000000E+01 0.  1.
         13    1    6    6    0    0  0.86888116034E+01  0.94161588102E+01 -0.91471723274E+01  0.15742625429E+02  0.00000000000E+00 0. -1.
        -14    1    6    6    0    0 -0.35923391990E+02  0.89877208906E+02  0.12876398872E+03  0.16108559080E+03  0.00000000000E+00 0.  1.
</event>
<event>
12    1  0.8135779E-002  0.1855143E+03  0.7818608E-02  0.1162798E+00
         21   -1    0    0  503  502  0.00000000000E+00  0.00000000000E+00  0.49883418865E+02  0.49883418865E+02  0.00000000000E+00 0.  1.
         21   -1    0    0  501  503 -0.00000000000E+00 -0.00000000000E+00 -0.11106196141E+04  0.11106196141E+04  0.00000000000E+00 0.  1.
          6    2    1    2  501    0  0.66259124159E+02 -0.74150649575E+01 -0.88816314255E+03  0.90713175601E+03  0.17207265980E+03 0.  0.
         24    2    3    3    0    0  0.98677826864E+02 -0.39049497404E+02 -0.74837625665E+03  0.76011416159E+03  0.80276648884E+02 0.  0.
         -6    2    1    2    0  502 -0.66259124159E+02  0.74150649575E+01 -0.17257305264E+03  0.25337127692E+03  0.17311929628E+03 0.  0.
        -24    2    5    5    0    0 -0.87359876496E+02  0.32024084194E+02 -0.53503620155E+02  0.12987850251E+03  0.73133426388E+02 0.  0.
          5    1    3    3  501    0 -0.32418702705E+02  0.31634432447E+02 -0.13978688589E+03  0.14701759442E+03  0.47000000000E+01 0. -1.
        -13    1    4    4    0    0  0.47316250879E+00 -0.99474666514E+01 -0.82440896457E+01  0.12928301885E+02  0.00000000000E+00 0.  1.
         14    1    4    4    0    0  0.98204664356E+02 -0.29102030753E+02 -0.74013216701E+03  0.74718585970E+03  0.00000000000E+00 0. -1.
         -5    1    5    5    0  502  0.21100752337E+02 -0.24609019237E+02 -0.11906943249E+03  0.12349277441E+03  0.47000000000E+01 0.  1.
         11    1    6    6    0    0 -0.26173959167E+02  0.26234551807E+02  0.13049106587E+02  0.39288764675E+02  0.00000000000E+00 0. -1.
        -12    1    6    6    0    0 -0.61185917329E+02  0.57895323874E+01 -0.66552726742E+02  0.90589737837E+02  0.00000000000E+00 0.  1.
</event>
<event>
12    1  0.8135779E-002  0.3276712E+03  0.7818608E-02  0.1072502E+00
         21   -1    0    0  501  502  0.00000000000E+00  0.00000000000E+00  0.54818720222E+02  0.54818720222E+02  0.00000000000E+00 0.  1.
         21   -1    0    0  502  503 -0.00000000000E+00 -0.00000000000E+00 -0.23304692578E+04  0.23304692578E+04  0.00000000000E+00 0.  1.
         -6    2    1    2    0  503  0.27535985934E+03  0.93785866251E+01 -0.16296132640E+04  0.16622297656E+04  0.17736232245E+03 0.  0.
        -24    2    3    3    0    0  0.22230291542E+03  0.67677354816E+02 -0.11279115864E+04  0.11543513855E+04  0.79647748910E+02 0.  0.
          6    2    1    2  501    0 -0.27535985934E+03 -0.93785866251E+01 -0.64603727362E+03  0.72305821246E+03  0.17186625522E+03 0.  0.
         24    2    5    5    0    0 -0.20750927750E+03 -0.57236488859E+02 -0.54900751348E+03  0.59526562811E+03  0.81214544568E+02 0.  0.
          5    1    5    5  501    0 -0.67850581838E+02  0.47857902234E+02 -0.97029760136E+02  0.12779258435E+03  0.47000000000E+01 0. -1.
        -13    1    6    6    0    0 -0.16807634004E+03 -0.61092183810E+02 -0.35788508214E+03  0.40007954587E+03  0.00000000000E+00 0.  1.
         14    1    6    6    0    0 -0.39432937458E+02  0.38556949507E+01 -0.19112243135E+03  0.19518608225E+03  0.00000000000E+00 0. -1.
         -5    1    3    3    0  503  0.53056943917E+02 -0.58298768191E+02 -0.50170167754E+03  0.50787838004E+03  0.47000000000E+01 0.  1.
         11    1    4    4    0    0  0.12664183717E+01 -0.34372073613E+01 -0.10422071328E+01  0.38084649985E+01  0.00000000000E+00 0. -1.
        -12    1    4    4    0    0  0.22103649705E+03  0.71114562177E+02 -0.11268693793E+04  0.11505429205E+04  0.00000000000E+00 0.  1.
</event>
<event>
12    1  0.8135779E-002  0.2655697E+03  0.7818608E-02  0.1103873E+00
         21   -1    0    0  501  502  0.00000000000E+00  0.00000000000E+00  0.70710192882E+02  0.70710192882E+02  0.00000000000E+00 0.  1.
         21   -1    0    0  502  503 -0.00000000000E+00 -0.00000000000E+00 -0.11859469023E+04  0.11859469023E+04  0.00000000000E+00 0. -1.
         -6    2    1    2    0  503 -0.47308019299E+02 -0.19735917274E+03 -0.80848099496E+03  0.85091539592E+03  0.17095847465E+03 0.  0.
        -24    2    3    3    0    0 -0.92886595239E+02 -0.11054231046E+03 -0.55824869750E+03  0.58211646204E+03  0.79815068440E+02 0.  0.
          6    2    1    2  501    0  0.47308019299E+02  0.19735917274E+03 -0.30675571442E+03  0.40574169922E+03  0.17128504431E+03 0.  0.
         24    2    5    5    0    0  0.49792354892E+02  0.21809960343E+03 -0.24856591213E+03  0.34373782451E+03  0.79523353205E+02 0.  0.
          5    1    5    5  501    0 -0.24843355935E+01 -0.20740430689E+02 -0.58189802291E+02  0.62003874711E+02  0.47000000000E+01 0. -1.
        -11    1    6    6    0    0  0.58646526942E+02  0.12314477845E+03 -0.18199640388E+03  0.22743513934E+03  0.00000000000E+00 0.  1.
         12    1    6    6    0    0 -0.88541720496E+01  0.94954824977E+02 -0.66569508257E+02  0.11630268517E+03  0.00000000000E+00 0. -1.
         -5    1    3    3    0  503  0.45578575940E+02 -0.86816862282E+02 -0.25023229746E+03  0.26879893388E+03  0.47000000000E+01 0.  1.
         13    1    4    4    0    0  0.91686255716E+01  0.10916454834E+01 -0.79716898588E+02  0.80249855484E+02  0.00000000000E+00 0. -1.
        -14    1    4    4    0    0 -0.10205522081E+03 -0.11163395594E+03 -0.47853179891E+03  0.50186660656E+03  0.00000000000E+00 0.  1.
</event>
<event>
12    1  0.8135779E-002  0.1836549E+03  0.7818608E-02  0.1166912E+00
         21   -1    0    0  501  502  0.00000000000E+00  0.00000000000E+00  0.31081459638E+02  0.31081459638E+02  0.00000000000E+00 0. -1.
         21   -1    0    0  502  503 -0.00000000000E+00 -0.00000000000E+00 -0.10239998310E+04  0.10239998310E+04  0.00000000000E+00 0.  1.
         -6    2    1    2    0  503 -0.41158206029E+02 -0.47691503267E+02 -0.46488535592E+03  0.49602137246E+03  0.16109106237E+03 0.  0.
        -24    2    3    3    0    0 -0.44917377398E+02 -0.25837168179E+02 -0.13356196017E+03  0.16392345632E+03  0.79667887349E+02 0.  0.
          6    2    1    2  501    0  0.41158206029E+02  0.47691503267E+02 -0.52803301539E+03  0.55905991813E+03  0.17251275116E+03 0.  0.
         24    2    5    5    0    0 -0.31954107760E+02  0.74240621017E+01 -0.37644808478E+03  0.38595024644E+03  0.78538210388E+02 0.  0.
          5    1    5    5  501    0  0.73112313789E+02  0.40267441165E+02 -0.15158493061E+03  0.17310967170E+03  0.47000000000E+01 0. -1.
        -11    1    6    6    0    0  0.18726913841E+02 -0.13568297654E+02 -0.52181411001E+02  0.57076226726E+02  0.00000000000E+00 0.  1.
         12    1    6    6    0    0 -0.50681021600E+02  0.20992359755E+02 -0.32426667377E+03  0.32887401971E+03  0.00000000000E+00 0. -1.
         -5    1    3    3    0  503  0.37591713685E+01 -0.21854335088E+02 -0.33132339575E+03  0.33209791614E+03  0.47000000000E+01 0.  1.
         11    1    4    4    0    0 -0.26151874847E+02 -0.34466229060E+02 -0.13637960964E+03  0.14307773911E+03  0.00000000000E+00 0. -1.
        -12    1    4    4    0    0 -0.18765502550E+02  0.86290608805E+01  0.28176494618E+01  0.20845717213E+02  0.00000000000E+00 0.  1.
</event>
<event>
12    1  0.8135779E-002  0.4456023E+03  0.7818608E-02  0.1029115E+00
         21   -1    0    0  503  502  0.00000000000E+00  0.00000000000E+00  0.10080819265E+04  0.10080819265E+04  0.00000000000E+00 0.  1.
         21   -1    0    0  501  503 -0.00000000000E+00 -0.00000000000E+00 -0.25395855354E+03  0.25395855354E+03  0.00000000000E+00 0. -1.
          6    2    1    2  501    0 -0.40535034369E+03 -0.64215086915E+02  0.77330480479E+02  0.45226252920E+03  0.17357682331E+03 0.  0.
         24    2    3    3    0    0 -0.94348452193E+02  0.58262890256E+01 -0.24024868657E+01  0.12361772559E+03  0.79624079658E+02 0.  0.
         -6    2    1    2    0  502  0.40535034369E+03  0.64215086915E+02  0.67679289248E+03  0.80977795085E+03  0.17105330120E+03 0.  0.
        -24    2    5    5    0    0  0.23254377552E+03  0.82160086619E+02  0.34780365786E+03  0.43770250217E+03  0.98940429623E+02 0.  0.
          5    1    3    3  501    0 -0.31100189150E+03 -0.70041375940E+02  0.79732967345E+02  0.32864480361E+03  0.47000000000E+01 0. -1.
        -13    1    4    4    0    0  0.78717479751E+01 -0.12080111495E+02  0.12112296809E+02  0.18830858820E+02  0.00000000000E+00 0.  1.
         14    1    4    4    0    0 -0.10222020017E+03  0.17906400520E+02 -0.14514783675E+02  0.10478686677E+03  0.00000000000E+00 0. -1.
         -5    1    5    5    0  502  0.17280656817E+03 -0.17944999704E+02  0.32898923462E+03  0.37207544868E+03  0.47000000000E+01 0.  1.
         13    1    6    6    0    0  0.18952738965E+02  0.16563258432E+02  0.10461776262E+01  0.25192108522E+02  0.00000000000E+00 0. -1.
        -14    1    6    6    0    0  0.21359103656E+03  0.65596828187E+02  0.34675748024E+03  0.41251039365E+03  0.00000000000E+00 0.  1.
</event>
<event>
12    1  0.8135779E-002  0.1739798E+03  0.7818608E-02  0.1174114E+00
         21   -1    0    0  503  502  0.00000000000E+00  0.00000000000E+00  0.12540312407E+03  0.12540312407E+03  0.00000000000E+00 0. -1.
         21   -1    0    0  501  503 -0.00000000000E+00 -0.00000000000E+00 -0.31148226953E+03  0.31148226953E+03  0.00000000000E+00 0. -1.
          6    2    1    2  501    0 -0.15484943819E+02 -0.91449367536E+01 -0.19780179321E+03  0.26251111315E+03  0.17164825015E+03 0.  0.
         24    2    3    3    0    0 -0.23416393567E+02  0.34630911310E+02 -0.19780393170E+03  0.21777496699E+03  0.80943890125E+02 0.  0.
         -6    2    1    2    0  502  0.15484943819E+02  0.91449367536E+01  0.11722647748E+02  0.17437428045E+03  0.17304784268E+03 0.  0.
        -24    2    5    5    0    0  0.44003309048E+02  0.60403484866E+02  0.43466872893E+02  0.10751232011E+03  0.63911327205E+02 0.  0.
          5    1    3    3  501    0  0.79314497482E+01 -0.43775848063E+02  0.21384846856E-02  0.44736146161E+02  0.47000000000E+01 0. -1.
        -11    1    4    4    0    0 -0.89577257677E+01  0.35541628426E+02 -0.25005505392E+02  0.44370299774E+02  0.00000000000E+00 0.  1.
         12    1    4    4    0    0 -0.14458667799E+02 -0.91071711684E+00 -0.17279842630E+03  0.17340466722E+03  0.00000000000E+00 0. -1.
         -5    1    5    5    0  502 -0.28518365229E+02 -0.51258548112E+02 -0.31744225146E+02  0.66861960336E+02  0.47000000000E+01 0.  1.
         13    1    6    6    0    0  0.25228282846E+02  0.31209072632E+02 -0.12170334056E+02  0.41935539831E+02  0.00000000000E+00 0. -1.
        -14    1    6    6    0    0  0.18775026202E+02  0.29194412234E+02  0.55637206949E+02  0.65576780278E+02  0.00000000000E+00 0.  1.
</event>
<event>
12    1  0.8135779E-002  0.1979232E+03  0.7818608E-02  0.1151669E+00
         21   -1    0    0  501  502  0.00000000000E+00  0.00000000000E+00  0.22981996555E+04  0.22981996555E+04  0.00000000000E+00 0.  1.
         21   -1    0    0  502  503 -0.00000000000E+00 -0.00000000000E+00 -0.68505184359E+02  0.68505184359E+02  0.00000000000E+00 0.  1.
         -6    2    1    2    0  503  0.66811344288E+02 -0.73198790726E+02  0.89105048015E+02  0.21705594581E+03  0.17132353994E+03 0.  0.
        -24    2    3    3    0    0  0.10010124914E+03 -0.13839083756E+02  0.64074563482E+02  0.14438953175E+03  0.80814645175E+02 0.  0.
          6    2    1    2  501    0 -0.66811344288E+02  0.73198790726E+02  0.21405894231E+04  0.21496488940E+04  0.17042731769E+03 0.  0.
         24    2    5    5    0    0 -0.15519134894E+02 -0.65183646403E+01  0.14795018277E+04  0.14817831782E+04  0.80451204852E+02 0.  0.
          5    1    5    5  501    0 -0.51292209394E+02  0.79717155366E+02  0.66108759543E+03  0.66786571587E+03  0.47000000000E+01 0. -1.
        -13    1    6    6    0    0 -0.42223309901E+02 -0.24520812918E+02  0.76572988479E+03  0.76728504132E+03  0.00000000000E+00 0.  1.
         14    1    6    6    0    0  0.26704175007E+02  0.18002448278E+02  0.71377194289E+03  0.71449813686E+03  0.00000000000E+00 0. -1.
         -5    1    3    3    0  503 -0.33289904848E+02 -0.59359706969E+02  0.25030484533E+02  0.72666414059E+02  0.47000000000E+01 0.  1.
         11    1    4    4    0    0  0.14163890014E+02 -0.13275904215E+02  0.54577369140E+02  0.57927149380E+02  0.00000000000E+00 0. -1.
        -12    1    4    4    0    0  0.85937359123E+02 -0.56317954166E+00  0.94971943423E+01  0.86462382367E+02  0.00000000000E+00 0.  1.
</event>
<event>
12    1  0.8135779E-002  0.2703821E+03  0.7818608E-02  0.1101189E+00
         21   -1    0    0  501  502  0.00000000000E+00  0.00000000000E+00  0.13072318623E+04  0.13072318623E+04  0.00000000000E+00 0.  1.
         21   -1    0    0  502  503 -0.00000000000E+00 -0.00000000000E+00 -0.55774488352E+02  0.55774488352E+02  0.00000000000E+00 0. -1.
         -6    2    1    2    0  503  0.18850598004E+03 -0.88294842777E+02  0.60969642481E+03  0.66696040821E+03  0.17255715552E+03 0.  0.
        -24    2    3    3    0    0  0.19452886886E+03 -0.10702002522E+03  0.59988467065E+03  0.64448223732E+03  0.78746234928E+02 0.  0.
          6    2    1    2  501    0 -0.18850598004E+03  0.88294842777E+02  0.64176094912E+03  0.69604594242E+03  0.17115009311E+03 0.  0.
         24    2    5    5    0    0 -0.20735839170E+03  0.69954180755E+02  0.61763858903E+03  0.66004911527E+03  0.79349340836E+02 0.  0.
          5    1    5    5  501    0  0.18852411659E+02  0.18340662022E+02  0.24122360084E+02  0.35996827149E+02  0.47000000000E+01 0. -1.
        -13    1    6    6    0    0 -0.27291297741E+02  0.42392131637E+02  0.12290418512E+03  0.13284331552E+03  0.00000000000E+00 0.  1.
         14    1    6    6    0    0 -0.18006709396E+03  0.27562049118E+02  0.49473440391E+03  0.52720579975E+03  0.00000000000E+00 0. -1.
         -5    1    3    3    0  503 -0.60228888140E+01  0.18725182439E+02  0.98117541521E+01  0.22478170891E+02  0.47000000000E+01 0.  1.
         13    1    4    4    0    0  0.15302268421E+03 -0.10921746883E+03  0.42498111272E+03  0.46470780448E+03  0.00000000000E+00 0. -1.
        -14    1    4    4    0    0  0.41506184649E+02  0.21974436109E+01  0.17490355793E+03  0.17977443283E+03  0.00000000000E+00 0.  1.
</event>
<event>
12    1  0.8135779E-002  0.2644910E+03  0.7818608E-02  0.1104620E+00
         21   -1    0    0  503  502  0.00000000000E+00  0.00000000000E+00  0.45830119791E+02  0.45830119791E+02  0.00000000000E+00 0. -1.
         21   -1    0    0  501  503 -0.00000000000E+00 -0.00000000000E+00 -0.15460226967E+04  0.15460226967E+04  0.00000000000E+00 0. -1.
          6    2    1    2  501    0 -0.67384547110E+02  0.18815039449E+03 -0.85333380888E+03  0.89338350938E+03  0.17324623320E+03 0.  0.
         24    2    3    3    0    0 -0.45694053767E+02  0.18835155701E+03 -0.53896196778E+03  0.57822916236E+03  0.79402178256E+02 0.  0.
         -6    2    1    2    0  502  0.67384547110E+02 -0.18815039449E+03 -0.64685876805E+03  0.69846930714E+03  0.17173193957E+03 0.  0.
        -24    2    5    5    0    0  0.86188283639E+02 -0.12644052770E+03 -0.58051820064E+03  0.60581484664E+03  0.81207264741E+02 0.  0.
          5    1    3    3  501    0 -0.21690493344E+02 -0.20116252691E+00 -0.31437184110E+03  0.31515434702E+03  0.47000000000E+01 0. -1.
        -13    1    4    4    0    0 -0.49249815745E+00  0.20088373886E+02 -0.15853137451E+03  0.15979981860E+03  0.00000000000E+00 0.  1.
         14    1    4    4    0    0 -0.45201555609E+02  0.16826318313E+03 -0.38043059326E+03  0.41842934376E+03  0.00000000000E+00 0. -1.
         -5    1    5    5    0  502 -0.18803736529E+02 -0.61709866783E+02 -0.66340567411E+02  0.92654460499E+02  0.47000000000E+01 0.  1.
         11    1    6    6    0    0  0.20481411489E+02 -0.53656611578E+02 -0.35899367386E+03  0.36355876836E+03  0.00000000000E+00 0. -1.
        -12    1    6    6    0    0  0.65706872151E+02 -0.72783916126E+02 -0.22152452678E+03  0.24225607827E+03  0.00000000000E+00 0.  1.
</event>
<event>
12    1  0.8135779E-002  0.1794430E+03  0.7818608E-02  0.1168416E+00
         21   -1    0    0  503  502  0.00000000000E+00  0.00000000000E+00  0.44065446558E+03  0.44065446558E+03  0.00000000000E+00 0. -1.
         21   -1    0    0  501  503 -0.00000000000E+00 -0.00000000000E+00 -0.75966322645E+02  0.75966322645E+02  0.00000000000E+00 0. -1.
          6    2    1    2  501    0 -0.25481991355E+02  0.43585281001E+02  0.13102061850E+03  0.22218508019E+03  0.17219407302E+03 0.  0.
         24    2    3    3    0    0 -0.20756877036E+01 -0.36613248412E+02  0.98271124065E+02  0.13232809072E+03  0.80676336871E+02 0.  0.
         -6    2    1    2    0  502  0.25481991355E+02 -0.43585281001E+02  0.23366752444E+03  0.29443570803E+03  0.17188038162E+03 0.  0.
        -24    2    5    5    0    0  0.11539185591E+01  0.40568025917E+02  0.14237019184E+03  0.16782241043E+03  0.79044251298E+02 0.  0.
          5    1    3    3  501    0 -0.23406303652E+02  0.80198529413E+02  0.32749494438E+02  0.89856989470E+02  0.47000000000E+01 0. -1.
        -11    1    4    4    0    0  0.10537495026E+02  0.15712754308E+02 -0.14851559839E+01  0.18977226817E+02  0.00000000000E+00 0.  1.
         12    1    4    4    0    0 -0.12613182730E+02 -0.52326002720E+02  0.99756280049E+02  0.11335086391E+03  0.00000000000E+00 0. -1.
         -5    1    5    5    0  502  0.24328072796E+02 -0.84153306918E+02  0.91297332596E+02  0.12661329760E+03  0.47000000000E+01 0.  1.
         13    1    6    6    0    0  0.30156651409E+02  0.25771867255E+02  0.12453127011E+03  0.13069678650E+03  0.00000000000E+00 0. -1.
        -14    1    6    6    0    0 -0.29002732849E+02  0.14796158662E+02  0.17838921733E+02  0.37125623934E+02  0.00000000000E+00 0.  1.
</event>
<event>
12    1  0.8135779E-002  0.2246099E+03  0.7818608E-02  0.1130702E+00
         21   -1    0    0  501  502  0.00000000000E+00  0.00000000000E+00  0.24807260439E+03  0.24807260439E+03  0.00000000000E+00 0.  1.
         21   -1    0    0  502  503 -0.00000000000E+00 -0.00000000000E+00 -0.21137286095E+03  0.21137286095E+03  0.00000000000E+00 0.  1.
         -6    2    1    2    0  503  0.35741154499E+02 -0.13832370646E+03 -0.29227056878E+02  0.22536011533E+03  0.17181991397E+03 0.  0.
        -24    2    3    3    0    0  0.72212651590E+00 -0.65986622257E+02 -0.81345913524E+02  0.12945677186E+03  0.76073269607E+02 0.  0.
          6    2    1    2  501    0 -0.35741154499E+02  0.13832370646E+03  0.65926800317E+02  0.23408535002E+03  0.17331684915E+03 0.  0.
         24    2    5    5    0    0 -0.14235351550E+02 -0.13288739221E+01  0.93889610586E+01  0.81822550766E+02  0.80014786661E+02 0.  0.
          5    1    5    5  501    0 -0.21505802948E+02  0.13965258038E+03  0.56537839258E+02  0.15226279925E+03  0.47000000000E+01 0. -1.
        -11    1    6    6    0    0  0.78238817087E+01 -0.32394588356E+02 -0.15040002008E+02  0.36562605762E+02  0.00000000000E+00 0.  1.
         12    1    6    6    0    0 -0.22059233259E+02  0.31065714434E+02  0.24428963066E+02  0.45259945004E+02  0.00000000000E+00 0. -1.
         -5    1    3    3    0  503  0.35019027983E+02 -0.72337084202E+02  0.52118856646E+02  0.95903343476E+02  0.47000000000E+01 0.  1.
         11    1    4    4    0    0 -0.11161759806E+02 -0.56341004391E+02 -0.12304568480E+02  0.58739220825E+02  0.00000000000E+00 0. -1.
        -12    1    4    4    0    0  0.11883886322E+02 -0.96456178664E+01 -0.69041345045E+02  0.70717551030E+02  0.00000000000E+00 0.  1.
</event>
<event>
12    1  0.8135779E-002  0.2859553E+03  0.7818608E-02  0.1092513E+00
         21   -1    0    0  501  502  0.00000000000E+00  0.00000000000E+00  0.10441695786E+04  0.10441695786E+04  0.00000000000E+00 0. -1.
         21   -1    0    0  502  503 -0.00000000000E+00 -0.00000000000E+00 -0.96935371013E+02  0.96935371013E+02  0.00000000000E+00 0.  1.
         -6    2    1    2    0  503 -0.14183572991E+03  0.17889205753E+03  0.22323698351E+03  0.36277427559E+03  0.17219373305E+03 0.  0.
        -24    2    3    3    0    0 -0.89049827358E+02  0.34376425116E+02  0.56681885686E+02  0.13598404183E+03  0.78531605815E+02 0.  0.
          6    2    1    2  501    0  0.14183572991E+03 -0.17889205753E+03  0.72399722404E+03  0.77833067397E+03  0.17177576986E+03 0.  0.
         24    2    5    5    0    0  0.30817892071E+02 -0.80776696285E+02  0.47360379159E+03  0.48734863768E+03  0.75720050917E+02 0.  0.
          5    1    5    5  501    0  0.11101783784E+03 -0.98115361244E+02  0.25039343245E+03  0.29098203629E+03  0.47000000000E+01 0. -1.
        -11    1    6    6    0    0  0.16746485781E+02 -0.19909578685E+02  0.31507736542E+02  0.40860415703E+02  0.00000000000E+00 0.  1.
         12    1    6    6    0    0  0.14071406290E+02 -0.60867117601E+02  0.44209605505E+03  0.44648822198E+03  0.00000000000E+00 0. -1.
         -5    1    3    3    0  503 -0.52785902550E+02  0.14451563241E+03  0.16655509782E+03  0.22679023376E+03  0.47000000000E+01 0.  1.
         11    1    4    4    0    0 -0.31997878989E+02 -0.25472518738E+02  0.20013570071E+02  0.45533026010E+02  0.00000000000E+00 0. -1.
        -12    1    4    4    0    0 -0.57051948369E+02  0.59848943855E+02  0.36668315614E+02  0.90451015822E+02  0.00000000000E+00 0.  1.
</event>
<event>
12    1  0.8135779E-002  0.1762749E+03  0.7818608E-02  0.1171706E+00
         21   -1    0    0  501  502  0.00000000000E+00  0.00000000000E+00  0.10648315629E+04  0.10648315629E+04  0.00000000000E+00 0.  1.
         21   -1    0    0  502  503 -0.00000000000E+00 -0.00000000000E+00 -0.29108320634E+02  0.29108320634E+02  0.00000000000E+00 0.  1.
         -6    2    1    2    0  503  0.30138724755E+02  0.14879116378E+02  0.48560764552E+03  0.51627215419E+03  0.17202447782E+03 0.  0.
        -24    2    3    3    0    0 -0.11287549410E+02  0.55616337987E+01  0.92170855078E+02  0.12052280202E+03  0.76628576508E+02 0.  0.
          6    2    1    2  501    0 -0.30138724755E+02 -0.14879116378E+02  0.55011559678E+03  0.57766772938E+03  0.17304076083E+03 0.  0.
         24    2    5    5    0    0 -0.57487848125E+02 -0.65814942238E+02  0.35728754276E+03  0.37630442258E+03  0.79461757734E+02 0.  0.
          5    1    5    5  501    0  0.27349123370E+02  0.50935825860E+02  0.19282805402E+03  0.20136330679E+03  0.47000000000E+01 0. -1.
        -13    1    6    6    0    0 -0.59635552360E+01  0.12593460333E+02  0.12515685333E+03  0.12593012812E+03  0.00000000000E+00 0.  1.
         14    1    6    6    0    0 -0.51524292889E+02 -0.78408402571E+02  0.23213068943E+03  0.25037429446E+03  0.00000000000E+00 0. -1.
         -5    1    3    3    0  503  0.41426274165E+02  0.93174825793E+01  0.39343679045E+03  0.39574935218E+03  0.47000000000E+01 0.  1.
         13    1    4    4    0    0  0.17787786483E+02  0.31352391346E+02  0.60334331711E+02  0.70282354643E+02  0.00000000000E+00 0. -1.
        -14    1    4    4    0    0 -0.29075335893E+02 -0.25790757547E+02  0.31836523367E+02  0.50240447373E+02  0.00000000000E+00 0.  1.
</event>
<event>
12    1  0.8135779E-002  0.2408206E+03  0.7818608E-02  0.1119252E+00
         21   -1    0    0  501  502  0.00000000000E+00  0.00000000000E+00  0.11936360905E+03  0.11936360905E+03  0.00000000000E+00 0.  1.
         21   -1    0    0  502  503 -0.00000000000E+00 -0.00000000000E+00 -0.50623167747E+03  0.50623167747E+03  0.00000000000E+00 0. -1.
         -6    2    1    2    0  503  0.16149301867E+03 -0.47278572474E+02 -0.13061511539E+03  0.27396143405E+03  0.17227681355E+03 0.  0.
        -24    2    3    3    0    0  0.68419750803E+02 -0.59418449239E+02 -0.10057885564E+02  0.12110154572E+03  0.79703255293E+02 0.  0.
          6    2    1    2  501    0 -0.16149301867E+03  0.47278572474E+02 -0.25625295304E+03  0.35163385246E+03  0.17223684787E+03 0.  0.
         24    2    5    5    0    0 -0.93212848571E+02  0.93842139729E+02 -0.14591346142E+03  0.21369458744E+03  0.82943692656E+02 0.  0.
          5    1    5    5  501    0 -0.68280170096E+02 -0.46563567255E+02 -0.11033949162E+03  0.13793926502E+03  0.47000000000E+01 0. -1.
        -11    1    6    6    0    0 -0.18569971852E+00  0.50223157137E+02 -0.28784124370E+02  0.57887181767E+02  0.00000000000E+00 0.  1.
         12    1    6    6    0    0 -0.93027148852E+02  0.43618982592E+02 -0.11712933705E+03  0.15580740567E+03  0.00000000000E+00 0. -1.
         -5    1    3    3    0  503  0.93073267864E+02  0.12139876765E+02 -0.12055722982E+03  0.15285988833E+03  0.47000000000E+01 0.  1.
         11    1    4    4    0    0  0.22401851557E+00 -0.10087979136E+02 -0.32469620622E+02  0.34001378953E+02  0.00000000000E+00 0. -1.
        -12    1    4    4    0    0  0.68195732287E+02 -0.49330470103E+02  0.22411735059E+02  0.87100166768E+02  0.00000000000E+00 0.  1.
</event>
<event>
12    1  0.8135779E-002  0.2281759E+03  0.7818608E-02  0.1128098E+00
         21   -1    0    0  503  502  0.00000000000E+00  0.00000000000E+00  0.15444328248E+03  0.15444328248E+03  0.00000000000E+00 0. -1.
         21   -1    0    0  501  503 -0.00000000000E+00 -0.00000000000E+00 -0.56562359452E+03  0.56562359452E+03  0.00000000000E+00 0. -1.
          6    2    1    2  501    0 -0.13624072416E+03  0.59289896272E+02 -0.43487387181E+03  0.49066414950E+03  0.17192788171E+03 0.  0.
         24    2    3    3    0    0 -0.11442687355E+03 -0.22787739268E+02 -0.26474157049E+03  0.30045460115E+03  0.81068352355E+02 0.  0.
         -6    2    1    2    0  502  0.13624072416E+03 -0.59289896272E+02  0.23693559771E+02  0.22940272750E+03  0.17316870356E+03 0.  0.
        -24    2    5    5    0    0  0.12695078453E+03 -0.10039850011E+03  0.22172845945E+02  0.18696898081E+03  0.90936264341E+02 0.  0.
          5    1    3    3  501    0 -0.21813850604E+02  0.82077635539E+02 -0.17013230132E+03  0.19020954836E+03  0.47000000000E+01 0. -1.
        -13    1    4    4    0    0 -0.24427027222E+02  0.80391668795E+01 -0.84375641358E+01  0.27064743700E+02  0.00000000000E+00 0.  1.
         14    1    4    4    0    0 -0.89999846332E+02 -0.30826906147E+02 -0.25630400635E+03  0.27338985745E+03  0.00000000000E+00 0. -1.
         -5    1    5    5    0  502  0.92899396256E+01  0.41108603834E+02  0.15207138259E+01  0.42433746687E+02  0.47000000000E+01 0.  1.
         11    1    6    6    0    0  0.14109385879E+03 -0.86632074359E+02  0.23305569141E+02  0.16719970948E+03  0.00000000000E+00 0. -1.
        -12    1    6    6    0    0 -0.14143074259E+02 -0.13766425746E+02 -0.11327231958E+01  0.19769271336E+02  0.00000000000E+00 0.  1.
</event>
<event>
12    1  0.8135779E-002  0.1886295E+03  0.7818608E-02  0.1159910E+00
         21   -1    0    0  503  502  0.00000000000E+00  0.00000000000E+00  0.39342080349E+03  0.39342080349E+03  0.00000000000E+00 0.  1.
         21   -1    0    0  501  503 -0.00000000000E+00 -0.00000000000E+00 -0.92827677225E+02  0.92827677225E+02  0.00000000000E+00 0.  1.
          6    2    1    2  501    0  0.64017034776E+02  0.41539565351E+02  0.19233498243E+03  0.26876077205E+03  0.17151061452E+03 0.  0.
         24    2    3    3    0    0  0.10301452488E+03  0.37343016013E+02  0.18333781823E+03  0.22824590780E+03  0.80479473479E+02 0.  0.
         -6    2    1    2    0  502 -0.64017034776E+02 -0.41539565351E+02  0.10825814383E+03  0.21748770867E+03  0.17250322167E+03 0.  0.
        -24    2    5    5    0    0 -0.16172328549E+02  0.36200446229E+02  0.19101434996E+02  0.89802024096E+02  0.78278491266E+02 0.  0.
          5    1    3    3  501    0 -0.38997490109E+02  0.41965493382E+01  0.89971641986E+01  0.40514864245E+02  0.47000000000E+01 0. -1.
        -11    1    4    4    0    0  0.31770744513E+01 -0.16547046386E+02  0.52150908040E+02  0.54805252993E+02  0.00000000000E+00 0.  1.
         12    1    4    4    0    0  0.99837450433E+02  0.53890062400E+02  0.13118691019E+03  0.17344065481E+03  0.00000000000E+00 0. -1.
         -5    1    5    5    0  502 -0.47844706227E+02 -0.77740011581E+02  0.89156708837E+02  0.12768568457E+03  0.47000000000E+01 0.  1.
         11    1    6    6    0    0 -0.65982339895E+01  0.25496896723E+02  0.49562530575E+02  0.56125509987E+02  0.00000000000E+00 0. -1.
        -12    1    6    6    0    0 -0.95740945595E+01  0.10703549506E+02 -0.30461095579E+02  0.33676514109E+02  0.00000000000E+00 0.  1.
</event>
<event>
12    1  0.8135779E-002  0.2491741E+03  0.7818608E-02  0.1113849E+00
         21   -1    0    0  503  502  0.00000000000E+00  0.00000000000E+00  0.27672488155E+04  0.27672488155E+04  0.00000000000E+00 0. -1.
         21   -1    0    0  501  503 -0.00000000000E+00 -0.00000000000E+00 -0.68969829590E+02  0.68969829590E+02  0.00000000000E+00 0.  1.
          6    2    1    2  501    0 -0.10843146993E+03  0.14299205181E+03  0.18428006564E+03  0.30991432165E+03  0.17286883358E+03 0.  0.
         24    2    3    3    0    0 -0.11361005877E+03  0.11910823920E+03  0.20699739058E+03  0.27621831091E+03  0.79715854642E+02 0.  0.
         -6    2    1    2    0  502  0.10843146993E+03 -0.14299205181E+03  0.25139989202E+04  0.25263043234E+04  0.17268136246E+03 0.  0.
        -24    2    5    5    0    0  0.49777076519E+02 -0.80633909875E+02  0.74392175026E+03  0.75415191647E+03  0.79661520412E+02 0.  0.
          5    1    3    3  501    0  0.51785888398E+01  0.23883812614E+02 -0.22717324938E+02  0.33696010739E+02  0.47000000000E+01 0. -1.
        -13    1    4    4    0    0  0.42155616899E+01  0.12339577106E+02 -0.24349842735E+01  0.13265190233E+02  0.00000000000E+00 0.  1.
         14    1    4    4    0    0 -0.11782562046E+03  0.10676866209E+03  0.20943237485E+03  0.26295312068E+03  0.00000000000E+00 0. -1.
         -5    1    5    5    0  502  0.58654393407E+02 -0.62358141935E+02  0.17700771700E+04  0.17721524069E+04  0.47000000000E+01 0.  1.
         13    1    6    6    0    0  0.42497233152E+02 -0.96852455187E+02  0.65274471202E+03  0.66125794663E+03  0.00000000000E+00 0. -1.
        -14    1    6    6    0    0  0.72798433662E+01  0.16218545312E+02  0.91177038237E+02  0.92893969843E+02  0.00000000000E+00 0.  1.
</event>
<event>
12    1  0.8135779E-002  0.2040224E+03  0.7818608E-02  0.1146480E+00
         21   -1    0    0  503  502  0.00000000000E+00  0.00000000000E+00  0.64873160815E+02  0.64873160815E+02  0.00000000000E+00 0.  1.
         21   -1    0    0  501  503 -0.00000000000E+00 -0.00000000000E+00 -0.67860795865E+03  0.67860795865E+03  0.00000000000E+00 0.  1.
          6    2    1    2  501    0  0.10497453964E+03  0.40492471056E+02 -0.21816332621E+03  0.29839470907E+03  0.16966104831E+03 0.  0.
         24    2    3    3    0    0  0.12835321336E+03 -0.26213869125E+01 -0.18215620012E+03  0.23737036751E+03  0.81745893349E+02 0.  0.
         -6    2    1    2    0  502 -0.10497453964E+03 -0.40492471056E+02 -0.39557147162E+03  0.44508641039E+03  0.17019350565E+03 0.  0.
        -24    2    5    5    0    0 -0.14946655093E+02 -0.43511315589E+01 -0.29163431817E+03  0.30283227764E+03  0.80090436388E+02 0.  0.
          5    1    3    3  501    0 -0.23378673724E+02  0.43113857968E+02 -0.36007126094E+02  0.61024341566E+02  0.47000000000E+01 0. -1.
        -13    1    4    4    0    0  0.14971139197E+02 -0.67451220827E+01  0.61427275459E+01  0.17531821995E+02  0.00000000000E+00 0.  1.
         14    1    4    4    0    0  0.11338207417E+03  0.41237351702E+01 -0.18829892766E+03  0.21983854551E+03  0.00000000000E+00 0. -1.
         -5    1    5    5    0  502 -0.90027884547E+02 -0.36141339497E+02 -0.10393715345E+03  0.14225413275E+03  0.47000000000E+01 0.  1.
         13    1    6    6    0    0  0.56222725302E+01 -0.10294830851E+02 -0.14045142717E+01  0.11813811874E+02  0.00000000000E+00 0. -1.
        -14    1    6    6    0    0 -0.20568927623E+02  0.59436992921E+01 -0.29022980390E+03  0.29101846577E+03  0.00000000000E+00 0.  1.
</event>
<event>
12    1  0.8135779E-002  0.2380613E+03  0.7818608E-02  0.1121135E+00
         21   -1    0    0  503  502  0.00000000000E+00  0.00000000000E+00  0.14251927228E+03  0.14251927228E+03  0.00000000000E+00 0. -1.
         21   -1    0    0  501  503 -0.00000000000E+00 -0.00000000000E+00 -0.11208481190E+04  0.11208481190E+04  0.00000000000E+00 0.  1.
          6    2    1    2  501    0  0.28240594299E+02  0.16148107910E+03 -0.99662623845E+03  0.10246039982E+04  0.17226672300E+03 0.  0.
         24    2    3    3    0    0  0.17812267087E+02  0.43583379827E+02 -0.69065173169E+03  0.69650171796E+03  0.76798702959E+02 0.  0.
         -6    2    1    2    0  502 -0.28240594299E+02 -0.16148107910E+03  0.18297391687E+02  0.23876339313E+03  0.17262529735E+03 0.  0.
        -24    2    5    5    0    0 -0.48194628651E+02 -0.33184249365E+02 -0.20659097079E+02  0.10312439423E+03  0.82364590431E+02 0.  0.
          5    1    3    3  501    0  0.10428327212E+02  0.11789769927E+03 -0.30597450676E+03  0.32810228022E+03  0.47000000000E+01 0. -1.
        -13    1    4    4    0    0  0.46690738468E+02  0.35428327515E+02 -0.39389698728E+03  0.39823363499E+03  0.00000000000E+00 0.  1.
         14    1    4    4    0    0 -0.28878471381E+02  0.81550523124E+01 -0.29675474441E+03  0.29826808297E+03  0.00000000000E+00 0. -1.
         -5    1    5    5    0  502  0.19954034352E+02 -0.12829682973E+03  0.38956488766E+02  0.13563899890E+03  0.47000000000E+01 0.  1.
         13    1    6    6    0    0  0.88762816074E+01 -0.28069071295E+02  0.17531449220E+02  0.34263870918E+02  0.00000000000E+00 0. -1.
        -14    1    6    6    0    0 -0.57070910258E+02 -0.51151780697E+01 -0.38190546299E+02  0.68860523313E+02  0.00000000000E+00 0.  1.
</event>
<event>
12    1  0.8135779E-002  0.1869464E+03  0.7818608E-02  0.1162465E+00
         21   -1    0    0  503  502  0.00000000000E+00  0.00000000000E+00  0.66695628260E+02  0.66695628260E+02  0.00000000000E+00 0.  1.
         21   -1    0    0  501  503 -0.00000000000E+00 -0.00000000000E+00 -0.55480343236E+03  0.55480343236E+03  0.00000000000E+00 0.  1.
          6    2    1    2  501    0  0.36152854287E+01 -0.66467023548E+02 -0.32969576849E+03  0.37646167195E+03  0.16909510690E+03 0.  0.
         24    2    3    3    0    0 -0.53586115475E+02 -0.62123245492E+02 -0.16021786147E+03  0.19747642217E+03  0.81218253949E+02 0.  0.
         -6    2    1    2    0  502 -0.36152854287E+01  0.66467023548E+02 -0.15841203561E+03  0.24503738867E+03  0.17469405632E+03 0.  0.
        -24    2    5    5    0    0 -0.30779966712E+02 -0.23018559452E+02 -0.11343689186E+03  0.14116033139E+03  0.74706427391E+02 0.  0.
          5    1    3    3  501    0  0.57201400904E+02 -0.43437780556E+01 -0.16947790701E+03  0.17898524978E+03  0.47000000000E+01 0. -1.
        -13    1    4    4    0    0 -0.67611631103E+02 -0.67837531663E+02 -0.15345214937E+03  0.18088898670E+03  0.00000000000E+00 0.  1.
         14    1    4    4    0    0  0.14025515628E+02  0.57142861711E+01 -0.67657120996E+01  0.16587435465E+02  0.00000000000E+00 0. -1.
         -5    1    5    5    0  502  0.27164681284E+02  0.89485582999E+02 -0.44975143755E+02  0.10387705728E+03  0.47000000000E+01 0.  1.
         13    1    6    6    0    0 -0.32410720189E+02  0.16176221977E+02 -0.85918266667E+02  0.93242015678E+02  0.00000000000E+00 0. -1.
        -14    1    6    6    0    0  0.16307534767E+01 -0.39194781429E+02 -0.27518625190E+02  0.47918315710E+02  0.00000000000E+00 0.  1.
</event>
<event>
12    1  0.8135779E-002  0.1850297E+03  0.7818608E-02  0.1163311E+00
         21   -1    0    0  501  502  0.00000000000E+00  0.00000000000E+00  0.65940019655E+03  0.65940019655E+03  0.00000000000E+00 0. -1.
         21   -1    0    0  502  503 -0.00000000000E+00 -0.00000000000E+00 -0.12459643308E+03  0.12459643308E+03  0.00000000000E+00 0. -1.
         -6    2    1    2    0  503  0.13916568997E+02  0.65152372865E+02 -0.32322451220E+02  0.18783168071E+03  0.17261951467E+03 0.  0.
        -24    2    3    3    0    0 -0.51399318246E+02 -0.16778044065E+01 -0.97815099755E+01  0.91589165407E+02  0.75154456546E+02 0.  0.
          6    2    1    2  501    0 -0.13916568997E+02 -0.65152372865E+02  0.56712621469E+03  0.59616494892E+03  0.17129506810E+03 0.  0.
         24    2    5    5    0    0  0.26122894605E+02 -0.77697431853E+02  0.23543459731E+03  0.26179695376E+03  0.79930587687E+02 0.  0.
          5    1    5    5  501    0 -0.40039463602E+02  0.12545058988E+02  0.33169161737E+03  0.33436799516E+03  0.47000000000E+01 0. -1.
        -13    1    6    6    0    0 -0.13881473536E+02  0.12644783908E+01  0.47721712598E+01  0.14733222040E+02  0.00000000000E+00 0.  1.
         14    1    6    6    0    0  0.40004368141E+02 -0.78961910244E+02  0.23066242605E+03  0.24706373172E+03  0.00000000000E+00 0. -1.
         -5    1    3    3    0  503  0.65315887243E+02  0.66830177271E+02 -0.22540941244E+02  0.96242515307E+02  0.47000000000E+01 0.  1.
         13    1    4    4    0    0  0.28242791326E+01 -0.28390904411E+01 -0.32529989465E+02  0.32775557993E+02  0.00000000000E+00 0. -1.
        -14    1    4    4    0    0 -0.54223597378E+02  0.11612860346E+01  0.22748479490E+02  0.58813607413E+02  0.00000000000E+00 0.  1.
</event>
<event>
12    1  0.8135779E-002  0.1975098E+03  0.7818608E-02  0.1152141E+00
         21   -1    0    0  501  502  0.00000000000E+00  0.00000000000E+00  0.21898204270E+03  0.21898204270E+03  0.00000000000E+00 0. -1.
         21   -1    0    0  502  503 -0.00000000000E+00 -0.00000000000E+00 -0.29329827722E+03  0.29329827722E+03  0.00000000000E+00 0. -1.
         -6    2    1    2    0  503  0.97506661900E+02  0.17825840099E+01 -0.19855399450E+03  0.28006039555E+03  0.17175392194E+03 0.  0.
        -24    2    3    3    0    0  0.21625317299E+02  0.58594168824E+02 -0.11503925933E+03  0.15363913302E+03  0.80436441002E+02 0.  0.
          6    2    1    2  501    0 -0.97506661900E+02 -0.17825840099E+01  0.12423775997E+03  0.23221992437E+03  0.17023614643E+03 0.  0.
         24    2    5    5    0    0  0.35403268015E+01  0.26125430974E+02  0.22753956757E+02  0.86239091588E+02  0.78894653255E+02 0.  0.
          5    1    5    5  501    0 -0.10104698870E+03 -0.27908014984E+02  0.10148380321E+03  0.14598083279E+03  0.47000000000E+01 0. -1.
        -11    1    6    6    0    0 -0.36129007740E+02  0.20821545299E+02  0.19647809219E+02  0.46096402854E+02  0.00000000000E+00 0.  1.
         12    1    6    6    0    0  0.39669334542E+02  0.53038856747E+01  0.31061475378E+01  0.40142688734E+02  0.00000000000E+00 0. -1.
         -5    1    3    3    0  503  0.75881344601E+02 -0.56811584814E+02 -0.83514735170E+02  0.12642126252E+03  0.47000000000E+01 0.  1.
         11    1    4    4    0    0  0.39378784459E+02  0.38466571741E+02 -0.11421389558E+03  0.12678793220E+03  0.00000000000E+00 0. -1.
        -12    1    4    4    0    0 -0.17753467160E+02  0.20127597083E+02 -0.82536374710E+00  0.26851200827E+02  0.00000000000E+00 0.  1.
</event>
<event>
12    1  0.8135779E-002  0.1882070E+03  0.7818608E-02  0.1160295E+00
         21   -1    0    0  503  502  0.00000000000E+00  0.00000000000E+00  0.43609606531E+03  0.43609606531E+03  0.00000000000E+00 0.  1.
         21   -1    0    0  501  503 -0.00000000000E+00 -0.00000000000E+00 -0.80862548114E+02  0.80862548114E+02  0.00000000000E+00 0. -1.
          6    2    1    2  501    0 -0.43884723841E+01  0.76049584251E+02  0.18192265926E+03  0.26111000659E+03  0.17111336486E+03 0.  0.
         24    2    3    3    0    0 -0.18271602534E+02  0.89654456542E+02  0.53105488687E+02  0.13074978533E+03  0.76834500043E+02 0.  0.
         -6    2    1    2    0  502  0.43884723841E+01 -0.76049584251E+02  0.17331085793E+03  0.25584860683E+03  0.17210188316E+03 0.  0.
        -24    2    5    5    0    0 -0.59142293252E+02 -0.67783842141E+02  0.13670351553E+03  0.18191168647E+03  0.79445266758E+02 0.  0.
          5    1    3    3  501    0  0.13883130150E+02 -0.13604872291E+02  0.12881717058E+03  0.13036022126E+03  0.47000000000E+01 0. -1.
        -13    1    4    4    0    0 -0.70889151766E+01  0.66030567574E+02  0.72413325010E+02  0.98254659999E+02  0.00000000000E+00 0.  1.
         14    1    4    4    0    0 -0.11182687358E+02  0.23623888968E+02 -0.19307836323E+02  0.32495125326E+02  0.00000000000E+00 0. -1.
         -5    1    5    5    0  502  0.63530765636E+02 -0.82657421099E+01  0.36607342400E+02  0.73936920361E+02  0.47000000000E+01 0.  1.
         13    1    6    6    0    0 -0.55421122492E+02 -0.18263216330E+02  0.33261406406E+02  0.67166710840E+02  0.00000000000E+00 0. -1.
        -14    1    6    6    0    0 -0.37211707597E+01 -0.49520625811E+02  0.10344210913E+03  0.11474497563E+03  0.00000000000E+00 0.  1.
</event>
<event>
12    1  0.8135779E-002  0.1777051E+03  0.7818608E-02  0.1170701E+00
         21   -1    0    0  503  502  0.00000000000E+00  0.00000000000E+00  0.11382460427E+03  0.11382460427E+03  0.00000000000E+00 0.  1.
         21   -1    0    0  501  503 -0.00000000000E+00 -0.00000000000E+00 -0.98605667438E+03  0.98605667438E+03  0.00000000000E+00 0.  1.
          6    2    1    2  501    0  0.30455433701E+02 -0.11671471432E+02 -0.90457836299E+03  0.92186828029E+03  0.17468644690E+03 0.  0.
         24    2    3    3    0    0 -0.15327227727E+02 -0.40245707897E+02 -0.28624200564E+03  0.30116345520E+03  0.83128214453E+02 0.  0.
         -6    2    1    2    0  502 -0.30455433701E+02  0.11671471432E+02  0.32346292869E+02  0.17801299837E+03  0.17198426741E+03 0.  0.
        -24    2    5    5    0    0  0.29057886846E+02  0.18401336980E+02  0.66662542514E+02  0.10882613977E+03  0.78843288438E+02 0.  0.
          5    1    3    3  501    0  0.45782661428E+02  0.28574236465E+02 -0.61833635734E+03  0.62070482509E+03  0.47000000000E+01 0. -1.
        -13    1    4    4    0    0 -0.42238016126E+02 -0.25204413956E+02 -0.24376547931E+03  0.24867834926E+03  0.00000000000E+00 0.  1.
         14    1    4    4    0    0  0.26910788399E+02 -0.15041293941E+02 -0.42476526337E+02  0.52485105938E+02  0.00000000000E+00 0. -1.
         -5    1    5    5    0  502 -0.59513320547E+02 -0.67298655479E+01 -0.34316249645E+02  0.69186858597E+02  0.47000000000E+01 0.  1.
         13    1    6    6    0    0 -0.25147382030E+02  0.17176890575E+02  0.15052028461E+02  0.33970574820E+02  0.00000000000E+00 0. -1.
        -14    1    6    6    0    0  0.54205268876E+02  0.12244464047E+01  0.51610514053E+02  0.74855564949E+02  0.00000000000E+00 0.  1.
</event>
<event>
12    1  0.8135779E-002  0.3376508E+03  0.7818608E-02  0.1067921E+00
         21   -1    0    0  501  502  0.00000000000E+00  0.00000000000E+00  0.32384312193E+04  0.32384312193E+04  0.00000000000E+00 0. -1.
         21   -1    0    0  502  503 -0.00000000000E+00 -0.00000000000E+00 -0.39066459636E+02  0.39066459636E+02  0.00000000000E+00 0.  1.
         -6    2    1    2    0  503 -0.13819502071E+03 -0.25354178142E+03  0.10791168242E+04  0.11307082781E+04  0.17500511778E+03 0.  0.
        -24    2    3    3    0    0 -0.48847922129E+00 -0.76312089151E+02  0.28890386067E+03  0.30922664526E+03  0.79573260988E+02 0.  0.
          6    2    1    2  501    0  0.13819502071E+03  0.25354178142E+03  0.21202479355E+04  0.21467894008E+04  0.17283554317E+03 0.  0.
         24    2    5    5    0    0 -0.17217364202E+01  0.11566641704E+03  0.93894495106E+03  0.94925645932E+03  0.78028969194E+02 0.  0.
          5    1    5    5  501    0  0.13991675713E+03  0.13787536438E+03  0.11813029844E+04  0.11975329415E+04  0.47000000000E+01 0. -1.
        -13    1    6    6    0    0 -0.23400847394E+02  0.68456788786E+02  0.74397518520E+03  0.74748445320E+03  0.00000000000E+00 0.  1.
         14    1    6    6    0    0  0.21679110974E+02  0.47209628252E+02  0.19496976586E+03  0.20177200612E+03  0.00000000000E+00 0. -1.
         -5    1    3    3    0  503 -0.13770654148E+03 -0.17722969227E+03  0.79021296357E+03  0.82148163289E+03  0.47000000000E+01 0.  1.
         13    1    4    4    0    0  0.10957380166E+02 -0.55005997855E+02  0.27633579950E+03  0.28197020776E+03  0.00000000000E+00 0. -1.
        -14    1    4    4    0    0 -0.11445859387E+02 -0.21306091296E+02  0.12568061173E+02  0.27256437498E+02  0.00000000000E+00 0.  1.
</event>
<event>
12    1  0.8135779E-002  0.2456139E+03  0.7818608E-02  0.1116584E+00
         21   -1    0    0  501  502  0.00000000000E+00  0.00000000000E+00  0.81925059854E+02  0.81925059854E+02  0.00000000000E+00 0.  1.
         21   -1    0    0  502  503 -0.00000000000E+00 -0.00000000000E+00 -0.86025920466E+03  0.86025920466E+03  0.00000000000E+00 0.  1.
         -6    2    1    2    0  503  0.10545098815E+03 -0.13644993068E+03 -0.57217466144E+03  0.62151636163E+03  0.17076372591E+03 0.  0.
        -24    2    3    3    0    0  0.11615919397E+03 -0.97453136682E+02 -0.29452855942E+03  0.34090120953E+03  0.80476643548E+02 0.  0.
          6    2    1    2  501    0 -0.10545098815E+03  0.13644993068E+03 -0.20615948336E+03  0.32066790289E+03  0.17489333000E+03 0.  0.
         24    2    5    5    0    0 -0.87472318775E+02  0.15685187763E+03 -0.21515214604E+03  0.29164325864E+03  0.80693409251E+02 0.  0.
          5    1    5    5  501    0 -0.17978669378E+02 -0.20401946950E+02  0.89926626741E+01  0.29024644251E+02  0.47000000000E+01 0. -1.
        -13    1    6    6    0    0 -0.37448707502E+01  0.30605529114E+02 -0.30302662622E+01  0.30982333400E+02  0.00000000000E+00 0.  1.
         14    1    6    6    0    0 -0.83727448025E+02  0.12624634851E+03 -0.21212187978E+03  0.26066092524E+03  0.00000000000E+00 0. -1.
         -5    1    3    3    0  503 -0.10708205816E+02 -0.38996793995E+02 -0.27764610203E+03  0.28061515209E+03  0.47000000000E+01 0.  1.
         11    1    4    4    0    0  0.44451642330E+02 -0.43490041320E+02 -0.48036369690E+02  0.78580054803E+02  0.00000000000E+00 0. -1.
        -12    1    4    4    0    0  0.71707551640E+02 -0.53963095362E+02 -0.24649218973E+03  0.26232115473E+03  0.00000000000E+00 0.  1.
</event>
<event>
12    1  0.8135779E-002  0.2131322E+03  0.7818608E-02  0.1139416E+00
         21   -1    0    0  503  502  0.00000000000E+00  0.00000000000E+00  0.20638095410E+03  0.20638095410E+03  0.00000000000E+00 0. -1.
         21   -1    0    0  501  503 -0.00000000000E+00 -0.00000000000E+00 -0.31652019107E+03  0.31652019107E+03  0.00000000000E+00 0. -1.
          6    2    1    2  501    0 -0.50798269306E+02 -0.11693778459E+03 -0.20071524656E+03  0.29276602470E+03  0.17079351683E+03 0.  0.
         24    2    3    3    0    0 -0.37721296792E+02 -0.46536370739E+00 -0.48722355169E+02  0.10077445961E+03  0.79740272262E+02 0.  0.
         -6    2    1    2    0  502  0.50798269306E+02  0.11693778459E+03  0.90576009591E+02  0.23013512046E+03  0.16882905711E+03 0.  0.
        -24    2    5    5    0    0  0.31994307781E+02  0.15482460120E+03  0.86252530202E+02  0.18735916558E+03  0.51668801947E+02 0.  0.
          5    1    3    3  501    0 -0.13076972514E+02 -0.11647242088E+03 -0.15199289139E+03  0.19199156510E+03  0.47000000000E+01 0. -1.
        -11    1    4    4    0    0 -0.21430142902E+01 -0.34873097661E+02 -0.61216451818E+01  0.35471114875E+02  0.00000000000E+00 0.  1.
         12    1    4    4    0    0 -0.35578282502E+02  0.34407733954E+02 -0.42600709987E+02  0.65303344730E+02  0.00000000000E+00 0. -1.
         -5    1    5    5    0  502  0.18803961525E+02 -0.37886816607E+02  0.43234793886E+01  0.42775954878E+02  0.47000000000E+01 0.  1.
         11    1    6    6    0    0  0.12538658806E+02  0.93681804436E+02  0.78236960731E+02  0.12269686415E+03  0.00000000000E+00 0. -1.
        -12    1    6    6    0    0  0.19455648975E+02  0.61142796761E+02  0.80155694713E+01  0.64662301434E+02  0.00000000000E+00 0.  1.
</event>
<event>
12    1  0.8135779E-002  0.2026237E+03  0.7818608E-02  0.1147573E+00
         21   -1    0    0  501  502  0.00000000000E+00  0.00000000000E+00  0.42060437791E+03  0.42060437791E+03  0.00000000000E+00 0.  1.
         21   -1    0    0  502  503 -0.00000000000E+00 -0.00000000000E+00 -0.10623063145E+03  0.10623063145E+03  0.00000000000E+00 0.  1.
         -6    2    1    2    0  503  0.10582233047E+03  0.19944019117E+01  0.81921035394E+02  0.21855756116E+03  0.17278312485E+03 0.  0.
        -24    2    3    3    0    0  0.20225667061E+02 -0.18477905615E+02  0.97370181238E+02  0.12907756189E+03  0.80184500903E+02 0.  0.
          6    2    1    2  501    0 -0.10582233047E+03 -0.19944019117E+01  0.23245271106E+03  0.30827744821E+03  0.17262206965E+03 0.  0.
         24    2    5    5    0    0 -0.11187411315E+03 -0.38333463437E+02  0.23030169913E+03  0.27107706758E+03  0.80365616619E+02 0.  0.
          5    1    5    5  501    0  0.60517826797E+01  0.36339061526E+02  0.21510119250E+01  0.37200380623E+02  0.47000000000E+01 0. -1.
        -13    1    6    6    0    0 -0.10915458090E+03 -0.98903285348E+01  0.20692805457E+03  0.23416182630E+03  0.00000000000E+00 0.  1.
         14    1    6    6    0    0 -0.27195322500E+01 -0.28443134903E+02  0.23373644568E+02  0.36915241285E+02  0.00000000000E+00 0. -1.
         -5    1    3    3    0  503  0.85596663406E+02  0.20472307526E+02 -0.15449145843E+02  0.89479999267E+02  0.47000000000E+01 0.  1.
         11    1    4    4    0    0  0.52127210411E+00 -0.11327695962E+01 -0.14304622067E+02  0.14358868481E+02  0.00000000000E+00 0. -1.
        -12    1    4    4    0    0  0.19704394957E+02 -0.17345136019E+02  0.11167480330E+03  0.11471869341E+03  0.00000000000E+00 0.  1.
</event>
<event>
12    1  0.8135779E-002  0.1955685E+03  0.7818608E-02  0.1155558E+00
         21   -1    0    0  503  502  0.00000000000E+00  0.00000000000E+00  0.50493795325E+03  0.50493795325E+03  0.00000000000E+00 0. -1.
         21   -1    0    0  501  503 -0.00000000000E+00 -0.00000000000E+00 -0.10497561898E+03  0.10497561898E+03  0.00000000000E+00 0. -1.
          6    2    1    2  501    0  0.46006135222E+02 -0.56876462958E+02  0.26509686208E+02  0.18835228793E+03  0.17152936888E+03 0.  0.
         24    2    3    3    0    0  0.18073587416E+02  0.34154575262E+02 -0.86296944821E+01  0.86746465157E+02  0.77183469843E+02 0.  0.
         -6    2    1    2    0  502 -0.46006135222E+02  0.56876462958E+02  0.37345264806E+03  0.42156128430E+03  0.18137127546E+03 0.  0.
        -24    2    5    5    0    0 -0.12657359043E+02  0.49846716469E+02  0.77244775708E+02  0.12336210279E+03  0.81280681286E+02 0.  0.
          5    1    3    3  501    0  0.27932547805E+02 -0.91031038220E+02  0.35139380690E+02  0.10160582277E+03  0.47000000000E+01 0. -1.
        -13    1    4    4    0    0 -0.87869088597E+01  0.29535680421E+02  0.27628394476E+02  0.41387128030E+02  0.00000000000E+00 0.  1.
         14    1    4    4    0    0  0.26860496276E+02  0.46188948411E+01 -0.36258088958E+02  0.45359337128E+02  0.00000000000E+00 0. -1.
         -5    1    5    5    0  502 -0.33348776179E+02  0.70297464894E+01  0.29620787235E+03  0.29819918151E+03  0.47000000000E+01 0.  1.
         13    1    6    6    0    0 -0.20802346901E+02  0.31743341140E+02  0.91409671380E+02  0.98975276534E+02  0.00000000000E+00 0. -1.
        -14    1    6    6    0    0  0.81449878578E+01  0.18103375329E+02 -0.14164895672E+02  0.24386826257E+02  0.00000000000E+00 0.  1.
</event>
<event>
12    1  0.8135779E-002  0.2178755E+03  0.7818608E-02  0.1135486E+00
         21   -1    0    0  501  502  0.00000000000E+00  0.00000000000E+00  0.16533948571E+03  0.16533948571E+03  0.00000000000E+00 0.  1.
         21   -1    0    0  502  503 -0.00000000000E+00 -0.00000000000E+00 -0.34152955152E+03  0.34152955152E+03  0.00000000000E+00 0.  1.
         -6    2    1    2    0  503 -0.10836442016E+03  0.77570678533E+02 -0.18931585069E+03  0.28859850758E+03  0.17230365500E+03 0.  0.
        -24    2    3    3    0    0 -0.12638521569E+03  0.24631870582E+02 -0.95553264886E+02  0.17932463625E+03  0.80292882261E+02 0.  0.
          6    2    1    2  501    0  0.10836442016E+03 -0.77570678533E+02  0.13125784885E+02  0.21827052966E+03  0.17236496211E+03 0.  0.
         24    2    5    5    0    0  0.11715884771E+03 -0.90037382933E+02 -0.32006879767E+02  0.17039769715E+03  0.78600311186E+02 0.  0.
          5    1    5    5  501    0 -0.87944275475E+01  0.12466704400E+02  0.45132664651E+02  0.47872832515E+02  0.47000000000E+01 0. -1.
        -11    1    6    6    0    0  0.10420721000E+03 -0.62601465735E+02  0.60641463641E+01  0.12171630951E+03  0.00000000000E+00 0.  1.
         12    1    6    6    0    0  0.12951637703E+02 -0.27435917198E+02 -0.38071026131E+02  0.48681387638E+02  0.00000000000E+00 0. -1.
         -5    1    3    3    0  503  0.18020795527E+02  0.52938807951E+02 -0.93762585808E+02  0.10927387133E+03  0.47000000000E+01 0.  1.
         13    1    4    4    0    0 -0.27909591960E+02 -0.11168028410E+02 -0.62666678996E+02  0.69503833263E+02  0.00000000000E+00 0. -1.
        -14    1    4    4    0    0 -0.98475623726E+02  0.35799898993E+02 -0.32886585890E+02  0.10982080298E+03  0.00000000000E+00 0.  1.
</event>
<event>
12    1  0.8135779E-002  0.1935912E+03  0.7818608E-02  0.1155881E+00
         21   -1    0    0  503  502  0.00000000000E+00  0.00000000000E+00  0.94739583295E+02  0.94739583295E+02  0.00000000000E+00 0. -1.
         21   -1    0    0  501  503 -0.00000000000E+00 -0.00000000000E+00 -0.48422296091E+03  0.48422296091E+03  0.00000000000E+00 0. -1.
          6    2    1    2  501    0  0.70229087953E+02 -0.35698462647E+02 -0.32364668331E+03  0.37712695911E+03  0.17683625940E+03 0.  0.
         24    2    3    3    0    0  0.10988681390E+03 -0.53704423211E+02 -0.21394180347E+03  0.25899906018E+03  0.79687771720E+02 0.  0.
         -6    2    1    2    0  502 -0.70229087953E+02  0.35698462647E+02 -0.65836694299E+02  0.20183558509E+03  0.17377177004E+03 0.  0.
        -24    2    5    5    0    0 -0.74766377267E+02  0.86108095410E+02 -0.56290199154E+02  0.15011572779E+03  0.79759199749E+02 0.  0.
          5    1    3    3  501    0 -0.39657725950E+02  0.18005960564E+02 -0.10970487985E+03  0.11812789893E+03  0.47000000000E+01 0. -1.
        -13    1    4    4    0    0  0.33931734806E+02 -0.59266939467E+02 -0.11991592336E+03  0.13799913556E+03  0.00000000000E+00 0.  1.
         14    1    4    4    0    0  0.75955079096E+02  0.55625162560E+01 -0.94025880107E+02  0.12099992462E+03  0.00000000000E+00 0. -1.
         -5    1    5    5    0  502  0.45372893149E+01 -0.50409632763E+02 -0.95464951457E+01  0.51719857301E+02  0.47000000000E+01 0.  1.
         13    1    6    6    0    0 -0.13927042663E+02 -0.15399152338E+02 -0.99370466170E+01  0.23018281984E+02  0.00000000000E+00 0. -1.
        -14    1    6    6    0    0 -0.60839334605E+02  0.10150724775E+03 -0.46353152537E+02  0.12709744581E+03  0.00000000000E+00 0.  1.
</event>
<event>
12    1  0.8135779E-002  0.2169955E+03  0.7818608E-02  0.1136362E+00
         21   -1    0    0  501  502  0.00000000000E+00  0.00000000000E+00  0.91090590726E+03  0.91090590726E+03  0.00000000000E+00 0.  1.
         21   -1    0    0  502  503 -0.00000000000E+00 -0.00000000000E+00 -0.51925692586E+02  0.51925692586E+02  0.00000000000E+00 0. -1.
         -6    2    1    2    0  503  0.11639939369E+02 -0.13016260392E+03  0.38080352632E+03  0.43772209301E+03  0.17178915393E+03 0.  0.
        -24    2    3    3    0    0  0.58683125936E+02 -0.88858042848E+02  0.16129105014E+03  0.20940883153E+03  0.80608900386E+02 0.  0.
          6    2    1    2  501    0 -0.11639939369E+02  0.13016260392E+03  0.47817668835E+03  0.52510950683E+03  0.17323180203E+03 0.  0.
         24    2    5    5    0    0  0.31350522889E+02  0.42188959907E+02  0.35423953705E+03  0.36709036445E+03  0.80665497214E+02 0.  0.
          5    1    5    5  501    0 -0.42990462258E+02  0.87973644009E+02  0.12393715130E+03  0.15801914238E+03  0.47000000000E+01 0. -1.
        -13    1    6    6    0    0  0.23385979285E+02  0.29044808017E+02  0.49551533495E+02  0.62014993119E+02  0.00000000000E+00 0.  1.
         14    1    6    6    0    0  0.79645436035E+01  0.13144151890E+02  0.30468800355E+03  0.30507537133E+03  0.00000000000E+00 0. -1.
         -5    1    3    3    0  503 -0.47043186567E+02 -0.41304561068E+02  0.21951247618E+03  0.22831326148E+03  0.47000000000E+01 0.  1.
         11    1    4    4    0    0 -0.92686784596E+01 -0.41478356340E+02  0.92255310519E+02  0.10157462658E+03  0.00000000000E+00 0. -1.
        -12    1    4    4    0    0  0.67951804396E+02 -0.47379686508E+02  0.69035739619E+02  0.10783420496E+03  0.00000000000E+00 0.  1.
</event>
<event>
12    1  0.8135779E-002  0.2848992E+03  0.7818608E-02  0.1093085E+00
         21   -1    0    0  503  502  0.00000000000E+00  0.00000000000E+00  0.65659833918E+03  0.65659833918E+03  0.00000000000E+00 0. -1.
         21   -1    0    0  501  503 -0.00000000000E+00 -0.00000000000E+00 -0.13656037017E+03  0.13656037017E+03  0.00000000000E+00 0.  1.
          6    2    1    2  501    0 -0.19325004795E+03 -0.12005046367E+03  0.38261979528E+03  0.47684980438E+03  0.17096822316E+03 0.  0.
         24    2    3    3    0    0 -0.11735091367E+03 -0.12238256122E+02  0.13349446396E+03  0.19494614816E+03  0.79134170389E+02 0.  0.
         -6    2    1    2    0  502  0.19325004795E+03  0.12005046367E+03  0.13741817374E+03  0.31630890498E+03  0.17149307284E+03 0.  0.
        -24    2    5    5    0    0  0.76835599024E+02 -0.10987581033E+02  0.52416673106E+02  0.12144834409E+03  0.77315952098E+02 0.  0.
          5    1    3    3  501    0 -0.75899134286E+02 -0.10781220755E+03  0.24912533132E+03  0.28190365622E+03  0.47000000000E+01 0. -1.
        -11    1    4    4    0    0 -0.36404251297E+02 -0.41686922344E+02  0.60971380412E+02  0.82344266566E+02  0.00000000000E+00 0.  1.
         12    1    4    4    0    0 -0.80946662372E+02  0.29448666222E+02  0.72523083546E+02  0.11260188159E+03  0.00000000000E+00 0. -1.
         -5    1    5    5    0  502  0.11641444893E+03  0.13103804470E+03  0.85001500631E+02  0.19486056088E+03  0.47000000000E+01 0.  1.
         11    1    6    6    0    0  0.25316291373E+02 -0.96459216576E+01  0.63229913634E+02  0.68789391564E+02  0.00000000000E+00 0. -1.
        -12    1    6    6    0    0  0.51519307650E+02 -0.13416593759E+01 -0.10813240528E+02  0.52658952528E+02  0.00000000000E+00 0.  1.
</event>
<event>
12    1  0.8135779E-002  0.2039143E+03  0.7818608E-02  0.1147881E+00
         21   -1    0    0  503  502  0.00000000000E+00  0.00000000000E+00  0.30401292835E+03  0.30401292835E+03  0.00000000000E+00 0. -1.
         21   -1    0    0  501  503 -0.00000000000E+00 -0.00000000000E+00 -0.13276503266E+03  0.13276503266E+03  0.00000000000E+00 0. -1.
          6    2    1    2  501    0  0.53012056928E+02 -0.80456650549E+02  0.74335863588E+02  0.21704116833E+03  0.17971504482E+03 0.  0.
         24    2    3    3    0    0  0.24258752697E+02 -0.90983173726E+02  0.11107973559E+03  0.16898118160E+03  0.85729266270E+02 0.  0.
         -6    2    1    2    0  502 -0.53012056928E+02  0.80456650549E+02  0.96912032112E+02  0.21973679268E+03  0.17207197707E+03 0.  0.
        -24    2    5    5    0    0 -0.10205790089E+03  0.72550402372E+02  0.71467183132E+02  0.16372309874E+03  0.77577824009E+02 0.  0.
          5    1    3    3  501    0  0.28753304231E+02  0.10526523177E+02 -0.36743871998E+02  0.48059986723E+02  0.47000000000E+01 0. -1.
        -13    1    4    4    0    0  0.45693460112E+02 -0.17057047592E+02  0.30385534313E+02  0.57464039756E+02  0.00000000000E+00 0.  1.
         14    1    4    4    0    0 -0.21434707416E+02 -0.73926126134E+02  0.80694201273E+02  0.11151714185E+03  0.00000000000E+00 0. -1.
         -5    1    5    5    0  502  0.49045843957E+02  0.79062481770E+01  0.25444848980E+02  0.56013693945E+02  0.47000000000E+01 0.  1.
         11    1    6    6    0    0 -0.28436568148E+01  0.34320130514E+02 -0.19830516717E+01  0.34494785642E+02  0.00000000000E+00 0. -1.
        -12    1    6    6    0    0 -0.99214244070E+02  0.38230271858E+02  0.73450234804E+02  0.12922831310E+03  0.00000000000E+00 0.  1.
</event>
<event>
12    1  0.8135779E-002  0.1794271E+03  0.7818608E-02  0.1169032E+00
         21   -1    0    0  501  502  0.00000000000E+00  0.00000000000E+00  0.15665802753E+03  0.15665802753E+03  0.00000000000E+00 0. -1.
         21   -1    0    0  502  503 -0.00000000000E+00 -0.00000000000E+00 -0.57949229809E+03  0.57949229809E+03  0.00000000000E+00 0. -1.
         -6    2    1    2    0  503  0.44301209960E+02 -0.60454849174E+01 -0.50777451163E+03  0.53763348225E+03  0.17092589471E+03 0.  0.
        -24    2    3    3    0    0 -0.25756681184E+02  0.39187838447E+02 -0.26610128424E+03  0.28193404836E+03  0.80484910647E+02 0.  0.
          6    2    1    2  501    0 -0.44301209960E+02  0.60454849174E+01  0.84940241073E+02  0.19851684338E+03  0.17376693431E+03 0.  0.
         24    2    5    5    0    0 -0.59356585044E+02 -0.50906760452E+02  0.83659797652E+02  0.13940718167E+03  0.79502818257E+02 0.  0.
          5    1    5    5  501    0  0.15055375084E+02  0.56952245369E+02  0.12804434210E+01  0.59109661705E+02  0.47000000000E+01 0. -1.
        -13    1    6    6    0    0 -0.13729016121E+02  0.15361101487E+02 -0.33801571653E+01  0.20877614448E+02  0.00000000000E+00 0.  1.
         14    1    6    6    0    0 -0.45627568923E+02 -0.66267861939E+02  0.87039954817E+02  0.11852956722E+03  0.00000000000E+00 0. -1.
         -5    1    3    3    0  503  0.70057891144E+02 -0.45233323364E+02 -0.24167322739E+03  0.25569943389E+03  0.47000000000E+01 0.  1.
         13    1    4    4    0    0 -0.20804528651E+02 -0.22839834995E+02 -0.91691757086E+02  0.96756729960E+02  0.00000000000E+00 0. -1.
        -14    1    4    4    0    0 -0.49521525331E+01  0.62027673442E+02 -0.17440952715E+03  0.18517731840E+03  0.00000000000E+00 0.  1.
</event>
<event>
12    1  0.8135779E-002  0.1810695E+03  0.7818608E-02  0.1167152E+00
         21   -1    0    0  501  502  0.00000000000E+00  0.00000000000E+00  0.11447023500E+04  0.11447023500E+04  0.00000000000E+00 0.  1.
         21   -1    0    0  502  503 -0.00000000000E+00 -0.00000000000E+00 -0.82352062869E+02  0.82352062869E+02  0.00000000000E+00 0.  1.
         -6    2    1    2    0  503  0.19158925131E+02 -0.53837351832E+02  0.33750534745E+02  0.18263897838E+03  0.17015396840E+03 0.  0.
        -24    2    3    3    0    0  0.45223037086E+02  0.19083471358E+02  0.46945626583E+02  0.10394345859E+03  0.78683217812E+02 0.  0.
          6    2    1    2  501    0 -0.19158925131E+02  0.53837351832E+02  0.10285997524E+04  0.10444154345E+04  0.17181566963E+03 0.  0.
         24    2    5    5    0    0  0.21898908698E+02 -0.72968385176E+01  0.25809119443E+03  0.27038141533E+03  0.77215536354E+02 0.  0.
          5    1    5    5  501    0 -0.41057833829E+02  0.61134190350E+02  0.77050855799E+03  0.77403401920E+03  0.47000000000E+01 0. -1.
        -13    1    6    6    0    0 -0.83514172152E+01 -0.20125418998E+02  0.21544999354E+03  0.21654902072E+03  0.00000000000E+00 0.  1.
         14    1    6    6    0    0  0.30250325913E+02  0.12828580480E+02  0.42641200892E+02  0.53832394601E+02  0.00000000000E+00 0. -1.
         -5    1    3    3    0  503 -0.26064111955E+02 -0.72920823190E+02 -0.13195091838E+02  0.78695519792E+02  0.47000000000E+01 0.  1.
         13    1    4    4    0    0 -0.82163800135E+01  0.33895162530E+02  0.29870869613E+02  0.45920145850E+02  0.00000000000E+00 0. -1.
        -14    1    4    4    0    0  0.53439417099E+02 -0.14811691172E+02  0.17074756970E+02  0.58023312736E+02  0.00000000000E+00 0.  1.
</event>
<event>
12    1  0.8135779E-002  0.2142601E+03  0.7818608E-02  0.1140722E+00
         21   -1    0    0  503  502  0.00000000000E+00  0.00000000000E+00  0.16507983514E+04  0.16507983514E+04  0.00000000000E+00 0. -1.
         21   -1    0    0  501  503 -0.00000000000E+00 -0.00000000000E+00 -0.28777230033E+02  0.28777230033E+02  0.00000000000E+00 0. -1.
          6    2    1    2  501    0  0.10362259034E+03  0.38893819477E+02  0.10837735819E+04  0.11047500037E+04  0.18345850595E+03 0.  0.
         24    2    3    3    0    0  0.33429224465E+02  0.22642171640E+02  0.24168290616E+03  0.25956953726E+03  0.85647746946E+02 0.  0.
         -6    2    1    2    0  502 -0.10362259034E+03 -0.38893819477E+02  0.53824753943E+03  0.57482557771E+03  0.16871176800E+03 0.  0.
        -24    2    5    5    0    0 -0.14215329154E+03 -0.17379336204E+02  0.39831357011E+03  0.42802267005E+03  0.63561830721E+02 0.  0.
          5    1    3    3  501    0  0.70193365871E+02  0.16251647836E+02  0.84209067579E+03  0.84518046648E+03  0.47000000000E+01 0. -1.
        -13    1    4    4    0    0 -0.30012112767E+01 -0.89258747721E+01  0.18466615910E+03  0.18490610814E+03  0.00000000000E+00 0.  1.
         14    1    4    4    0    0  0.36430435742E+02  0.31568046413E+02  0.57016747061E+02  0.74663429121E+02  0.00000000000E+00 0. -1.
         -5    1    5    5    0  502  0.38530701202E+02 -0.21514483272E+02  0.13993396933E+03  0.14680290766E+03  0.47000000000E+01 0.  1.
         13    1    6    6    0    0 -0.86947783882E+02 -0.38536602692E+02  0.28092385041E+03  0.29658590087E+03  0.00000000000E+00 0. -1.
        -14    1    6    6    0    0 -0.55205507657E+02  0.21157266488E+02  0.11738971970E+03  0.13143676918E+03  0.00000000000E+00 0.  1.
</event>
<event>
12    1  0.8135779E-002  0.1749682E+03  0.7818608E-02  0.1173381E+00
         21   -1    0    0  501  502  0.00000000000E+00  0.00000000000E+00  0.20754103930E+02  0.20754103930E+02  0.00000000000E+00 0.  1.
         21   -1    0    0  502  503 -0.00000000000E+00 -0.00000000000E+00 -0.15888008910E+04  0.15888008910E+04  0.00000000000E+00 0.  1.
         -6    2    1    2    0  503 -0.64017713461E+01 -0.19060516049E+02 -0.10129029193E+04  0.10274909257E+04  0.17135049612E+03 0.  0.
        -24    2    3    3    0    0  0.54338601727E+02  0.25270764587E+02 -0.58775201375E+03  0.59571547728E+03  0.76375421629E+02 0.  0.
          6    2    1    2  501    0  0.64017713461E+01  0.19060516049E+02 -0.55514386775E+03  0.58206406921E+03  0.17380903549E+03 0.  0.
         24    2    5    5    0    0  0.11074100916E+02 -0.15532256204E+02 -0.53522663009E+03  0.54160079065E+03  0.80622479387E+02 0.  0.
          5    1    5    5  501    0 -0.46723295702E+01  0.34592772253E+02 -0.19917237660E+02  0.40463278559E+02  0.47000000000E+01 0. -1.
        -11    1    6    6    0    0  0.26156619404E+02 -0.14780171314E+02 -0.51725516702E+03  0.51812694392E+03  0.00000000000E+00 0.  1.
         12    1    6    6    0    0 -0.15082518488E+02 -0.75208488926E+00 -0.17971463065E+02  0.23473846730E+02  0.00000000000E+00 0. -1.
         -5    1    3    3    0  503 -0.60740373073E+02 -0.44331280637E+02 -0.42515090557E+03  0.43177544843E+03  0.47000000000E+01 0.  1.
         11    1    4    4    0    0  0.13414796204E+02 -0.18869052759E+02 -0.33880159476E+03  0.33959169383E+03  0.00000000000E+00 0. -1.
        -12    1    4    4    0    0  0.40923805523E+02  0.44139817346E+02 -0.24895041899E+03  0.25612378345E+03  0.00000000000E+00 0.  1.
</event>
<event>
12    1  0.8135779E-002  0.1818944E+03  0.7818608E-02  0.1166265E+00
         21   -1    0    0  501  502  0.00000000000E+00  0.00000000000E+00  0.11727759363E+04  0.11727759363E+04  0.00000000000E+00 0. -1.
         21   -1    0    0  502  503 -0.00000000000E+00 -0.00000000000E+00 -0.49240727011E+02  0.49240727011E+02  0.00000000000E+00 0. -1.
         -6    2    1    2    0  503  0.49167479404E+02 -0.27569803992E+02  0.16177896534E+03  0.24342969396E+03  0.17293943204E+03 0.  0.
        -24    2    3    3    0    0  0.98035930551E+02 -0.35296430541E+02  0.11943072004E+03  0.17813581864E+03  0.81312922125E+02 0.  0.
          6    2    1    2  501    0 -0.49167479404E+02  0.27569803992E+02  0.96175624400E+03  0.97858696940E+03  0.17169696758E+03 0.  0.
         24    2    5    5    0    0 -0.55944805063E+02  0.35284045915E+02  0.96173809999E+03  0.96729396268E+03  0.79640769402E+02 0.  0.
          5    1    5    5  501    0  0.67773256581E+01 -0.77142419226E+01  0.18144008934E-01  0.11293006718E+02  0.47000000000E+01 0. -1.
        -11    1    6    6    0    0  0.37931142641E+01 -0.53417275464E+01  0.49108000129E+03  0.49112370075E+03  0.00000000000E+00 0.  1.
         12    1    6    6    0    0 -0.59737919327E+02  0.40625773461E+02  0.47065809870E+03  0.47617026193E+03  0.00000000000E+00 0. -1.
         -5    1    3    3    0  503 -0.48868451146E+02  0.77266265490E+01  0.42348245291E+02  0.65293875322E+02  0.47000000000E+01 0.  1.
         11    1    4    4    0    0 -0.80947453991E+01 -0.23803461484E+02  0.18397071187E+02  0.31154163606E+02  0.00000000000E+00 0. -1.
        -12    1    4    4    0    0  0.10613067595E+03 -0.11492969057E+02  0.10103364886E+03  0.14698165503E+03  0.00000000000E+00 0.  1.
</event>
<event>
12    1  0.8135779E-002  0.1735009E+03  0.7818608E-02  0.1174365E+00
         21   -1    0    0  501  502  0.00000000000E+00  0.00000000000E+00  0.92117166874E+03  0.92117166874E+03  0.00000000000E+00 0.  1.
         21   -1    0    0  502  503 -0.00000000000E+00 -0.00000000000E+00 -0.72982668281E+02  0.72982668281E+02  0.00000000000E+00 0.  1.
         -6    2    1    2    0  503 -0.10541536308E+02 -0.13441447450E+02  0.54036373835E+02  0.18126998411E+03  0.17218327719E+03 0.  0.
        -24    2    3    3    0    0 -0.25324098675E+02 -0.74551604560E+02  0.25266315517E+02  0.11196787947E+03  0.75492831553E+02 0.  0.
          6    2    1    2  501    0  0.10541536308E+02  0.13441447450E+02  0.79415262662E+03  0.81288435291E+03  0.17265798661E+03 0.  0.
         24    2    5    5    0    0 -0.42123192936E+02 -0.10180406145E+02  0.25569549045E+03  0.27132203594E+03  0.79733677301E+02 0.  0.
          5    1    5    5  501    0  0.52664729244E+02  0.23621853594E+02  0.53845713617E+03  0.54156231697E+03  0.47000000000E+01 0. -1.
        -13    1    6    6    0    0 -0.55011991375E+02 -0.14974569106E+02  0.25003198808E+03  0.25644990150E+03  0.00000000000E+00 0.  1.
         14    1    6    6    0    0  0.12888798439E+02  0.47941629611E+01  0.56635023717E+01  0.14872134440E+02  0.00000000000E+00 0. -1.
         -5    1    3    3    0  503  0.14782562367E+02  0.61110157111E+02  0.28770058318E+02  0.69302104642E+02  0.47000000000E+01 0.  1.
         13    1    4    4    0    0 -0.11233243564E+02 -0.88312654148E+02  0.24144672830E+02  0.92240315859E+02  0.00000000000E+00 0. -1.
        -14    1    4    4    0    0 -0.14090855111E+02  0.13761049588E+02  0.11216426869E+01  0.19727563606E+02  0.00000000000E+00 0.  1.
</event>
<event>
12    1  0.8135779E-002  0.1880647E+03  0.7818608E-02  0.1160659E+00
         21   -1    0    0  501  502  0.00000000000E+00  0.00000000000E+00  0.15684462465E+03  0.15684462465E+03  0.00000000000E+00 0. -1.
         21   -1    0    0  502  503 -0.00000000000E+00 -0.00000000000E+00 -0.27882685146E+03  0.27882685146E+03  0.00000000000E+00 0. -1.
         -6    2    1    2    0  503  0.77901489996E+02  0.23084046927E+01  0.36548101462E+02  0.18970357142E+03  0.16904943186E+03 0.  0.
        -24    2    3    3    0    0  0.67511616140E+02 -0.36263796548E+02  0.76142790277E+02  0.13326250862E+03  0.78027497972E+02 0.  0.
          6    2    1    2  501    0 -0.77901489996E+02 -0.23084046927E+01 -0.15853032828E+03  0.24596790469E+03  0.17115599398E+03 0.  0.
         24    2    5    5    0    0 -0.25141281030E+02 -0.93203264344E+01 -0.17126993329E+03  0.19103891205E+03  0.80271560153E+02 0.  0.
          5    1    5    5  501    0 -0.52760208965E+02  0.70119217417E+01  0.12739605013E+02  0.54928992640E+02  0.47000000000E+01 0. -1.
        -11    1    6    6    0    0  0.51497673771E+01  0.25606170431E+02 -0.11637212380E+03  0.11926720952E+03  0.00000000000E+00 0.  1.
         12    1    6    6    0    0 -0.30291048407E+02 -0.34926496866E+02 -0.54897809490E+02  0.71771702528E+02  0.00000000000E+00 0. -1.
         -5    1    3    3    0  503  0.10389873855E+02  0.38572201241E+02 -0.39594688815E+02  0.56441062797E+02  0.47000000000E+01 0.  1.
         13    1    4    4    0    0  0.42617825346E+02 -0.38055762064E+02  0.44031816455E+01  0.57305393045E+02  0.00000000000E+00 0. -1.
        -14    1    4    4    0    0  0.24893790794E+02  0.17919655157E+01  0.71739608631E+02  0.75957115579E+02  0.00000000000E+00 0.  1.
</event>
<event>
12    1  0.8135779E-002  0.1777735E+03  0.7818608E-02  0.1170055E+00
         21   -1    0    0  503  502  0.00000000000E+00  0.00000000000E+00  0.10703455316E+03  0.10703455316E+03  0.00000000000E+00 0. -1.
         21   -1    0    0  501  503 -0.00000000000E+00 -0.00000000000E+00 -0.29617786097E+03  0.29617786097E+03  0.00000000000E+00 0. -1.
          6    2    1    2  501    0 -0.27274222121E+02 -0.39111601196E+02 -0.10877229301E+03  0.20841021128E+03  0.17125946367E+03 0.  0.
         24    2    3    3    0    0  0.87150650889E+01 -0.29141553449E+02  0.28547041450E+01  0.90608228528E+02  0.85302516049E+02 0.  0.
         -6    2    1    2    0  502  0.27274222121E+02  0.39111601196E+02 -0.80371014803E+02  0.19480220285E+03  0.17092336784E+03 0.  0.
        -24    2    5    5    0    0  0.98932056140E+01  0.20851788576E+01 -0.11540427182E+03  0.14074228440E+03  0.79925097277E+02 0.  0.
          5    1    3    3  501    0 -0.35989287210E+02 -0.99700477475E+01 -0.11162699716E+03  0.11780198275E+03  0.47000000000E+01 0. -1.
        -11    1    4    4    0    0  0.20006465997E+02 -0.53186610869E+02 -0.14789659505E+02  0.58718040547E+02  0.00000000000E+00 0.  1.
         12    1    4    4    0    0 -0.11291400908E+02  0.24045057420E+02  0.17644363650E+02  0.31890187981E+02  0.00000000000E+00 0. -1.
         -5    1    5    5    0  502  0.17381016507E+02  0.37026422339E+02  0.35033257018E+02  0.54059918454E+02  0.47000000000E+01 0.  1.
         11    1    6    6    0    0 -0.13945319026E+02 -0.34201124707E+02 -0.58143861238E+02  0.68883216052E+02  0.00000000000E+00 0. -1.
        -12    1    6    6    0    0  0.23838524640E+02  0.36286303565E+02 -0.57260410582E+02  0.71859068345E+02  0.00000000000E+00 0.  1.
</event>
<event>
12    1  0.8135779E-002  0.2051973E+03  0.7818608E-02  0.1145504E+00
         21   -1    0    0  501  502  0.00000000000E+00  0.00000000000E+00  0.30482448408E+03  0.30482448408E+03  0.00000000000E+00 0.  1.
         21   -1    0    0  502  503 -0.00000000000E+00 -0.00000000000E+00 -0.14675453587E+03  0.14675453587E+03  0.00000000000E+00 0.  1.
         -6    2    1    2    0  503  0.11434861670E+03  0.39312893309E+01  0.13463549797E+03  0.24542340205E+03  0.17033751139E+03 0.  0.
        -24    2    3    3    0    0  0.29505119265E+02  0.40175961037E+02  0.18122713705E+02  0.96731054638E+02  0.80893783884E+02 0.  0.
          6    2    1    2  501    0 -0.11434861670E+03 -0.39312893309E+01  0.23434450248E+02  0.20615561790E+03  0.16988203011E+03 0.  0.
         24    2    5    5    0    0 -0.14846697105E+03 -0.13022536983E+02  0.14318156624E+02  0.16938729326E+03  0.79215008339E+02 0.  0.
          5    1    5    5  501    0  0.34118354349E+02  0.90912476524E+01  0.91162936245E+01  0.36768324640E+02  0.47000000000E+01 0. -1.
        -13    1    6    6    0    0 -0.12095080689E+02 -0.13135793382E+02  0.27061040587E+02  0.32421288720E+02  0.00000000000E+00 0.  1.
         14    1    6    6    0    0 -0.13637189036E+03  0.11325639891E+00 -0.12742883963E+02  0.13696600454E+03  0.00000000000E+00 0. -1.
         -5    1    3    3    0  503  0.84843497433E+02 -0.36244671706E+02  0.11651278426E+03  0.14869234741E+03  0.47000000000E+01 0.  1.
         11    1    4    4    0    0 -0.17529127877E+02 -0.13667515131E+02 -0.23822914895E+01  0.22355013011E+02  0.00000000000E+00 0. -1.
        -12    1    4    4    0    0  0.47034247142E+02  0.53843476168E+02  0.20505005195E+02  0.74376041627E+02  0.00000000000E+00 0.  1.
</event>
<event>
12    1  0.8135779E-002  0.1927958E+03  0.7818608E-02  0.1156357E+00
         21   -1    0    0  503  502  0.00000000000E+00  0.00000000000E+00  0.10795017395E+04  0.10795017395E+04  0.00000000000E+00 0.  1.
         21   -1    0    0  501  503 -0.00000000000E+00 -0.00000000000E+00 -0.34485058218E+02  0.34485058218E+02  0.00000000000E+00 0.  1.
          6    2    1    2  501    0 -0.56323784636E+02 -0.66621378809E+02  0.58242513098E+03  0.61350572282E+03  0.17192865355E+03 0.  0.
         24    2    3    3    0    0 -0.71022129953E+02 -0.92578230955E+02  0.55604701241E+03  0.57340965484E+03  0.77430487951E+02 0.  0.
         -6    2    1    2    0  502  0.56323784636E+02  0.66621378809E+02  0.46259155030E+03  0.50048107489E+03  0.16993995141E+03 0.  0.
        -24    2    5    5    0    0  0.70025008105E+02  0.50416527506E+02  0.15994861306E+03  0.19705866604E+03  0.76178940900E+02 0.  0.
          5    1    3    3  501    0  0.14698345317E+02  0.25956852146E+02  0.26378118569E+02  0.40096067983E+02  0.47000000000E+01 0. -1.
        -11    1    4    4    0    0 -0.78908969825E+01 -0.17380403900E+02  0.27581880561E+03  0.27647849505E+03  0.00000000000E+00 0.  1.
         12    1    4    4    0    0 -0.63131232971E+02 -0.75197827055E+02  0.28022820679E+03  0.29693115979E+03  0.00000000000E+00 0. -1.
         -5    1    5    5    0  502 -0.13701223469E+02  0.16204851303E+02  0.30264293725E+03  0.30342240885E+03  0.47000000000E+01 0.  1.
         11    1    6    6    0    0  0.34118049524E+02  0.29207886168E+02  0.14651726082E+03  0.15324636908E+03  0.00000000000E+00 0. -1.
        -12    1    6    6    0    0  0.35906958582E+02  0.21208641338E+02  0.13431352235E+02  0.43812296959E+02  0.00000000000E+00 0.  1.
</event>
<event>
12    1  0.8135779E-002  0.2357755E+03  0.7818608E-02  0.1123340E+00
         21   -1    0    0  503  502  0.00000000000E+00  0.00000000000E+00  0.34439545569E+03  0.34439545569E+03  0.00000000000E+00 0.  1.
         21   -1    0    0  501  503 -0.00000000000E+00 -0.00000000000E+00 -0.24952450115E+03  0.24952450115E+03  0.00000000000E+00 0. -1.
          6    2    1    2  501    0  0.12374388806E+03 -0.10381597007E+03 -0.13204552877E+03  0.26668732723E+03  0.16611984637E+03 0.  0.
         24    2    3    3    0    0  0.99990150548E+02 -0.62353406955E+02 -0.15778349093E+03  0.21220873618E+03  0.79062887239E+02 0.  0.
         -6    2    1    2    0  502 -0.12374388806E+03  0.10381597007E+03  0.22691648332E+03  0.32723262962E+03  0.17175505236E+03 0.  0.
        -24    2    5    5    0    0 -0.54615703412E+02  0.12185908533E+03  0.98673600409E+02  0.18035653579E+03  0.70423638422E+02 0.  0.
          5    1    3    3  501    0  0.23753737515E+02 -0.41462563117E+02  0.25737962154E+02  0.54478591042E+02  0.47000000000E+01 0. -1.
        -13    1    4    4    0    0  0.18239345113E+02 -0.33799491102E+02 -0.80540014188E+01  0.39242148867E+02  0.00000000000E+00 0.  1.
         14    1    4    4    0    0  0.81750805435E+02 -0.28553915853E+02 -0.14972948951E+03  0.17296658732E+03  0.00000000000E+00 0. -1.
         -5    1    5    5    0  502 -0.69128184651E+02 -0.18043115257E+02  0.12824288291E+03  0.14687609383E+03  0.47000000000E+01 0.  1.
         11    1    6    6    0    0  0.28795370092E+01 -0.39444439993E+01 -0.53820470941E+01  0.72675169607E+01  0.00000000000E+00 0. -1.
        -12    1    6    6    0    0 -0.57495240421E+02  0.12580352933E+03  0.10405564750E+03  0.17308901883E+03  0.00000000000E+00 0.  1.
</event>
<event>
12    1  0.8135779E-002  0.3512756E+03  0.7818608E-02  0.1062274E+00
         21   -1    0    0  503  502  0.00000000000E+00  0.00000000000E+00  0.25685320562E+03  0.25685320562E+03  0.00000000000E+00 0. -1.
         21   -1    0    0  501  503 -0.00000000000E+00 -0.00000000000E+00 -0.68630313845E+03  0.68630313845E+03  0.00000000000E+00 0.  1.
          6    2    1    2  501    0  0.19018212682E+03  0.23719656888E+03 -0.47491503778E+03  0.59071044419E+03  0.17596329761E+03 0.  0.
         24    2    3    3    0    0  0.16189214598E+03  0.92160846868E+02 -0.29055027661E+03  0.35438833596E+03  0.80429725828E+02 0.  0.
         -6    2    1    2    0  502 -0.19018212682E+03 -0.23719656888E+03  0.45465104960E+02  0.35244589988E+03  0.17239368585E+03 0.  0.
        -24    2    5    5    0    0 -0.12784699570E+03 -0.80455507325E+02 -0.17600420056E+02  0.17229935011E+03  0.80989803629E+02 0.  0.
          5    1    3    3  501    0  0.28289980841E+02  0.14503572202E+03 -0.18436476117E+03  0.23632210823E+03  0.47000000000E+01 0. -1.
        -13    1    4    4    0    0  0.12373135467E+03  0.10530661350E+03 -0.23636307298E+03  0.28682125661E+03  0.00000000000E+00 0.  1.
         14    1    4    4    0    0  0.38160791311E+02 -0.13145766632E+02 -0.54187203633E+02  0.67567079346E+02  0.00000000000E+00 0. -1.
         -5    1    5    5    0  502 -0.62335131118E+02 -0.15674106156E+03  0.63065525016E+02  0.18014654978E+03  0.47000000000E+01 0.  1.
         13    1    6    6    0    0 -0.17536334372E+02 -0.52696218817E+02 -0.18525476485E+02  0.58545775081E+02  0.00000000000E+00 0. -1.
        -14    1    6    6    0    0 -0.11031066133E+03 -0.27759288508E+02  0.92505642937E+00  0.11375357503E+03  0.00000000000E+00 0.  1.
</event>
<event>
12    1  0.8135779E-002  0.2315900E+03  0.7818608E-02  0.1125676E+00
         21   -1    0    0  503  502  0.00000000000E+00  0.00000000000E+00  0.14298307208E+04  0.14298307208E+04  0.00000000000E+00 0.  1.
         21   -1    0    0  501  503 -0.00000000000E+00 -0.00000000000E+00 -0.81771563637E+02  0.81771563637E+02  0.00000000000E+00 0.  1.
          6    2    1    2  501    0 -0.54581055329E+02 -0.14409884634E+03  0.11767683284E+03  0.25977255382E+03  0.17288832700E+03 0.  0.
         24    2    3    3    0    0 -0.63352212602E+02 -0.87857428856E+02  0.59135323267E+01  0.13426097833E+03  0.79111375862E+02 0.  0.
         -6    2    1    2    0  502  0.54581055329E+02  0.14409884634E+03  0.12303823243E+04  0.12518297306E+04  0.17173654631E+03 0.  0.
        -24    2    5    5    0    0  0.42838411774E+02  0.15505037789E+03  0.74880848041E+03  0.76996534839E+03  0.79099609206E+02 0.  0.
          5    1    3    3  501    0  0.87711572728E+01 -0.56241417480E+02  0.11176330051E+03  0.12551157549E+03  0.47000000000E+01 0. -1.
        -13    1    4    4    0    0 -0.69008205959E+02 -0.30567395435E+02  0.11800997912E+02  0.76392157353E+02  0.00000000000E+00 0.  1.
         14    1    4    4    0    0  0.56559933565E+01 -0.57290033421E+02 -0.58874655854E+01  0.57868820977E+02  0.00000000000E+00 0. -1.
         -5    1    5    5    0  502  0.11742643555E+02 -0.10951531556E+02  0.48157384393E+03  0.48186438225E+03  0.47000000000E+01 0.  1.
         11    1    6    6    0    0 -0.13885889810E+02  0.39543814990E+02  0.98476043296E+02  0.10702365319E+03  0.00000000000E+00 0. -1.
        -12    1    6    6    0    0  0.56724301584E+02  0.11550656290E+03  0.65033243712E+03  0.66294169520E+03  0.00000000000E+00 0.  1.
</event>
<event>
12    1  0.8135779E-002  0.1768454E+03  0.7818608E-02  0.1171008E+00
         21   -1    0    0  503  502  0.00000000000E+00  0.00000000000E+00  0.78321524270E+03  0.78321524270E+03  0.00000000000E+00 0.  1.
         21   -1    0    0  501  503 -0.00000000000E+00 -0.00000000000E+00 -0.65507621289E+02  0.65507621289E+02  0.00000000000E+00 0.  1.
          6    2    1    2  501    0  0.12360811083E+02 -0.39842072135E+02  0.93431796668E+02  0.20000949902E+03  0.17185493506E+03 0.  0.
         24    2    3    3    0    0  0.14386142959E+02 -0.52346707529E+02 -0.12486818340E+02  0.93232577910E+02  0.74761313880E+02 0.  0.
         -6    2    1    2    0  502 -0.12360811083E+02  0.39842072135E+02  0.62427582474E+03  0.64871336497E+03  0.17137253040E+03 0.  0.
        -24    2    5    5    0    0  0.86556387485E+01 -0.21939137654E+02  0.50909655655E+03  0.51624841539E+03  0.82321787273E+02 0.  0.
          5    1    3    3  501    0 -0.20253318765E+01  0.12504635395E+02  0.10591861501E+03  0.10677692111E+03  0.47000000000E+01 0. -1.
        -13    1    4    4    0    0  0.28201531358E+01 -0.63799480859E+02  0.10853187484E+02  0.64777455184E+02  0.00000000000E+00 0.  1.
         14    1    4    4    0    0  0.11565989823E+02  0.11452773329E+02 -0.23340005823E+02  0.28455122726E+02  0.00000000000E+00 0. -1.
         -5    1    5    5    0  502 -0.21016449831E+02  0.61781209789E+02  0.11517926820E+03  0.13246494959E+03  0.47000000000E+01 0.  1.
         11    1    6    6    0    0 -0.37457115475E+00 -0.16266485102E+02  0.15292873871E+02  0.22329595437E+02  0.00000000000E+00 0. -1.
        -12    1    6    6    0    0  0.90302099032E+01 -0.56726525518E+01  0.49380368268E+03  0.49391881995E+03  0.00000000000E+00 0.  1.
</event>
<event>
12    1  0.8135779E-002  0.3171746E+03  0.7818608E-02  0.1078374E+00
         21   -1    0    0  501  502  0.00000000000E+00  0.00000000000E+00  0.24012023434E+03  0.24012023434E+03  0.00000000000E+00 0. -1.
         21   -1    0    0  502  503 -0.00000000000E+00 -0.00000000000E+00 -0.40822880976E+03  0.40822880976E+03  0.00000000000E+00 0. -1.
         -6    2    1    2    0  503 -0.61850262105E+01 -0.25609764541E+03 -0.12108579069E+03  0.33950188060E+03  0.18701737804E+03 0.  0.
        -24    2    3    3    0    0  0.21368754820E+01 -0.27120504235E+03 -0.78810932091E+02  0.29360263050E+03  0.80215960935E+02 0.  0.
          6    2    1    2  501    0  0.61850262105E+01  0.25609764541E+03 -0.47022784733E+02  0.30884716351E+03  0.16598544994E+03 0.  0.
         24    2    5    5    0    0  0.50909572777E+02  0.15357339840E+03 -0.73213245055E+02  0.19387092030E+03  0.77776482251E+02 0.  0.
          5    1    5    5  501    0 -0.44724546567E+02  0.10252424701E+03  0.26190460322E+02  0.11497624321E+03  0.47000000000E+01 0. -1.
        -13    1    6    6    0    0 -0.12495572624E+02  0.60792595410E+02 -0.48606402376E+02  0.78831854880E+02  0.00000000000E+00 0.  1.
         14    1    6    6    0    0  0.63405145402E+02  0.92780802987E+02 -0.24606842679E+02  0.11503906542E+03  0.00000000000E+00 0. -1.
         -5    1    3    3    0  503 -0.83219016925E+01  0.15107396939E+02 -0.42274858598E+02  0.45899250098E+02  0.47000000000E+01 0.  1.
         11    1    4    4    0    0  0.16845751941E+02 -0.24299413911E+03 -0.90299514739E+02  0.25977669904E+03  0.00000000000E+00 0. -1.
        -12    1    4    4    0    0 -0.14708876459E+02 -0.28210903233E+02  0.11488582648E+02  0.33825931460E+02  0.00000000000E+00 0.  1.
</event>
<event>
12    1  0.8135779E-002  0.1854008E+03  0.7818608E-02  0.1162699E+00
         21   -1    0    0  501  502  0.00000000000E+00  0.00000000000E+00  0.25397430048E+04  0.25397430048E+04  0.00000000000E+00 0. -1.
         21   -1    0    0  502  503 -0.00000000000E+00 -0.00000000000E+00 -0.42528636666E+02  0.42528636666E+02  0.00000000000E+00 0.  1.
         -6    2    1    2    0  503 -0.56485522239E+02 -0.41128160971E+02  0.18229128288E+03  0.25993610207E+03  0.17162320793E+03 0.  0.
        -24    2    3    3    0    0 -0.67491729260E+02  0.10555520506E+02  0.48479871519E+02  0.11599193465E+03  0.80232651896E+02 0.  0.
          6    2    1    2  501    0  0.56485522239E+02  0.41128160971E+02  0.23149230853E+04  0.23223355394E+04  0.17173039054E+03 0.  0.
         24    2    5    5    0    0  0.20994556282E+02 -0.11380102607E+02  0.19541154790E+04  0.19559737713E+04  0.81827932359E+02 0.  0.
          5    1    5    5  501    0  0.35490965957E+02  0.52508263578E+02  0.36080760629E+03  0.36636176815E+03  0.47000000000E+01 0. -1.
        -11    1    6    6    0    0 -0.29592149856E+02  0.41470466209E+01  0.49674057077E+03  0.49763851135E+03  0.00000000000E+00 0.  1.
         12    1    6    6    0    0  0.50586706138E+02 -0.15527149228E+02  0.14573749082E+04  0.14583352599E+04  0.00000000000E+00 0. -1.
         -5    1    3    3    0  503  0.11006207021E+02 -0.51683681476E+02  0.13381141136E+03  0.14394416742E+03  0.47000000000E+01 0.  1.
         11    1    4    4    0    0  0.10707037788E+02  0.97424443961E+01  0.33325980056E+02  0.36334237679E+02  0.00000000000E+00 0. -1.
        -12    1    4    4    0    0 -0.78198767048E+02  0.81307610947E+00  0.15153891463E+02  0.79657696973E+02  0.00000000000E+00 0.  1.
</event>
<event>
12    1  0.8135779E-002  0.2320556E+03  0.7818608E-02  0.1125280E+00
         21   -1    0    0  501  502  0.00000000000E+00  0.00000000000E+00  0.35739655685E+03  0.35739655685E+03  0.00000000000E+00 0. -1.
         21   -1    0    0  502  503 -0.00000000000E+00 -0.00000000000E+00 -0.34610539408E+03  0.34610539408E+03  0.00000000000E+00 0.  1.
         -6    2    1    2    0  503 -0.12998633428E+03 -0.83167565302E+02 -0.25887000788E+03  0.34765425776E+03  0.17331044672E+03 0.  0.
        -24    2    3    3    0    0 -0.10892746020E+01 -0.59249798453E+02 -0.13856490915E+03  0.16966010520E+03  0.77926838214E+02 0.  0.
          6    2    1    2  501    0  0.12998633428E+03  0.83167565302E+02  0.27016117065E+03  0.35584769317E+03  0.17270562118E+03 0.  0.
         24    2    5    5    0    0  0.25932071562E+02  0.41296867590E+02  0.20693122031E+03  0.22700452673E+03  0.79577770827E+02 0.  0.
          5    1    5    5  501    0  0.10405426272E+03  0.41870697712E+02  0.63229950342E+02  0.12884316644E+03  0.47000000000E+01 0. -1.
        -13    1    6    6    0    0  0.68534659980E+01 -0.17342019507E+02  0.11115246799E+02  0.21708623821E+02  0.00000000000E+00 0.  1.
         14    1    6    6    0    0  0.19078605564E+02  0.58638887097E+02  0.19581597351E+03  0.20529590291E+03  0.00000000000E+00 0. -1.
         -5    1    3    3    0  503 -0.12889705968E+03 -0.23917766849E+02 -0.12030509874E+03  0.17799415256E+03  0.47000000000E+01 0.  1.
         13    1    4    4    0    0  0.34574565846E+02 -0.31716019267E+02 -0.41460824602E+02  0.62612350685E+02  0.00000000000E+00 0. -1.
        -14    1    4    4    0    0 -0.35663840448E+02 -0.27533779186E+02 -0.97104084545E+02  0.10704775452E+03  0.00000000000E+00 0.  1.
</event>
<event>
12    1  0.8135779E-002  0.1974825E+03  0.7818608E-02  0.1152418E+00
         21   -1    0    0  503  502  0.00000000000E+00  0.00000000000E+00  0.66111738632E+03  0.66111738632E+03  0.00000000000E+00 0.  1.
         21   -1    0    0  501  503 -0.00000000000E+00 -0.00000000000E+00 -0.60125474349E+02  0.60125474349E+02  0.00000000000E+00 0.  1.
          6    2    1    2  501    0 -0.88390469492E+02  0.20277193934E+02  0.23492596500E+03  0.30530581731E+03  0.17261921493E+03 0.  0.
         24    2    3    3    0    0 -0.52778036362E+02 -0.16543240423E+02  0.39674242890E+02  0.10339169011E+03  0.77824135769E+02 0.  0.
         -6    2    1    2    0  502  0.88390469492E+02 -0.20277193934E+02  0.36606594697E+03  0.41593704336E+03  0.17542892239E+03 0.  0.
        -24    2    5    5    0    0 -0.74423466338E+01 -0.53875437596E+02  0.18211299215E+03  0.20576199676E+03  0.78834675750E+02 0.  0.
          5    1    3    3  501    0 -0.35612433130E+02  0.36820434357E+02  0.19525172211E+03  0.20191412721E+03  0.47000000000E+01 0. -1.
        -13    1    4    4    0    0 -0.17975871050E+01 -0.39507549282E+02  0.17320120324E+02  0.43174811380E+02  0.00000000000E+00 0.  1.
         14    1    4    4    0    0 -0.50980449257E+02  0.22964308859E+02  0.22354122566E+02  0.60216878726E+02  0.00000000000E+00 0. -1.
         -5    1    5    5    0  502  0.95832816126E+02  0.33598243661E+02  0.18395295482E+03  0.21017504660E+03  0.47000000000E+01 0.  1.
         11    1    6    6    0    0 -0.32709800543E+02 -0.18790437435E+02  0.31749274495E+02  0.49305456306E+02  0.00000000000E+00 0. -1.
        -12    1    6    6    0    0  0.25267453909E+02 -0.35085000161E+02  0.15036371766E+03  0.15645654045E+03  0.00000000000E+00 0.  1.
</event>
<event>
12    1  0.8135779E-002  0.1913507E+03  0.7818608E-02  0.1157925E+00
         21   -1    0    0  503  502  0.00000000000E+00  0.00000000000E+00  0.14876954325E+02  0.14876954325E+02  0.00000000000E+00 0. -1.
         21   -1    0    0  501  503 -0.00000000000E+00 -0.00000000000E+00 -0.24252172289E+04  0.24252172289E+04  0.00000000000E+00 0.  1.
          6    2    1    2  501    0 -0.52054165626E+02 -0.57325083876E+02 -0.11757864758E+04  0.11912551852E+04  0.17498365127E+03 0.  0.
         24    2    3    3    0    0 -0.55171563829E+02  0.24250861496E+02 -0.45852064541E+03  0.46934333845E+03  0.80062359127E+02 0.  0.
         -6    2    1    2    0  502  0.52054165626E+02  0.57325083876E+02 -0.12345537987E+04  0.12488389980E+04  0.17169729030E+03 0.  0.
        -24    2    5    5    0    0 -0.35882644107E+02  0.37519559575E+02 -0.54474650028E+03  0.55315132359E+03  0.80822990032E+02 0.  0.
          5    1    3    3  501    0  0.31173982027E+01 -0.81575945371E+02 -0.71726583038E+03  0.72191184674E+03  0.47000000000E+01 0. -1.
        -13    1    4    4    0    0 -0.60894156855E+02 -0.13097340438E+02 -0.27326351934E+03  0.28027234910E+03  0.00000000000E+00 0.  1.
         14    1    4    4    0    0  0.57225930266E+01  0.37348201933E+02 -0.18525712607E+03  0.18907098936E+03  0.00000000000E+00 0. -1.
         -5    1    5    5    0  502  0.87936809732E+02  0.19805524301E+02 -0.68980729846E+03  0.69568767440E+03  0.47000000000E+01 0.  1.
         13    1    6    6    0    0  0.20575392035E+02  0.33645462233E+02 -0.23074358317E+03  0.23408965176E+03  0.00000000000E+00 0. -1.
        -14    1    6    6    0    0 -0.56458036141E+02  0.38740973424E+01 -0.31400291711E+03  0.31906167183E+03  0.00000000000E+00 0.  1.
</event>
<event>
12    1  0.8135779E-002  0.2054762E+03  0.7818608E-02  0.1145395E+00
         21   -1    0    0  501  502  0.00000000000E+00  0.00000000000E+00  0.12427641221E+04  0.12427641221E+04  0.00000000000E+00 0.  1.
         21   -1    0    0  502  503 -0.00000000000E+00 -0.00000000000E+00 -0.33911389705E+02  0.33911389705E+02  0.00000000000E+00 0.  1.
         -6    2    1    2    0  503  0.98648757178E+02  0.45095945983E+02  0.63985536421E+03  0.67203821723E+03  0.17451434520E+03 0.  0.
        -24    2    3    3    0    0  0.11312865138E+02 -0.20379458923E+02  0.39827355450E+03  0.40689967332E+03  0.80013852992E+02 0.  0.
          6    2    1    2  501    0 -0.98648757178E+02 -0.45095945983E+02  0.56899736820E+03  0.60463729458E+03  0.17338694111E+03 0.  0.
         24    2    5    5    0    0 -0.11008112576E+03 -0.39780242992E+02  0.57332919062E+03  0.59050186268E+03  0.79282829363E+02 0.  0.
          5    1    5    5  501    0  0.11432368578E+02 -0.53157029915E+01 -0.43318224214E+01  0.14135431903E+02  0.47000000000E+01 0. -1.
        -13    1    6    6    0    0 -0.77000770182E+02 -0.61376325920E+02  0.34487847265E+03  0.35866047021E+03  0.00000000000E+00 0.  1.
         14    1    6    6    0    0 -0.33080355574E+02  0.21596082928E+02  0.22845071797E+03  0.23184139247E+03  0.00000000000E+00 0. -1.
         -5    1    3    3    0  503  0.87335892040E+02  0.65475404907E+02  0.24158180971E+03  0.26513854391E+03  0.47000000000E+01 0.  1.
         11    1    4    4    0    0  0.71069869542E+01 -0.50135253211E+02  0.19742292177E+03  0.20381330408E+03  0.00000000000E+00 0. -1.
        -12    1    4    4    0    0  0.42058781837E+01  0.29755794288E+02  0.20085063273E+03  0.20308636924E+03  0.00000000000E+00 0.  1.
</event>
<event>
12    1  0.8135779E-002  0.2627410E+03  0.7818608E-02  0.1105524E+00
         21   -1    0    0  503  502  0.00000000000E+00  0.00000000000E+00  0.81215474851E+03  0.81215474851E+03  0.00000000000E+00 0. -1.
         21   -1    0    0  501  503 -0.00000000000E+00 -0.00000000000E+00 -0.84965599849E+02  0.84965599849E+02  0.00000000000E+00 0.  1.
          6    2    1    2  501    0  0.17047204664E+03  0.10115931696E+03  0.36612965577E+03  0.45058168565E+03  0.17227595455E+03 0.  0.
         24    2    3    3    0    0  0.14763189738E+02  0.39012864532E+02  0.96662401340E+02  0.13318269246E+03  0.81572387293E+02 0.  0.
         -6    2    1    2    0  502 -0.17047204664E+03 -0.10115931696E+03  0.36105949288E+03  0.44653866270E+03  0.17244968482E+03 0.  0.
        -24    2    5    5    0    0 -0.14760981321E+03 -0.71764441514E+02  0.36521949392E+03  0.40877444646E+03  0.82295062551E+02 0.  0.
          5    1    3    3  501    0  0.15570885690E+03  0.62146452426E+02  0.26946725443E+03  0.31739899319E+03  0.47000000000E+01 0. -1.
        -11    1    4    4    0    0  0.24506754908E+02  0.61550371435E+02  0.62237172832E+02  0.90898266992E+02  0.00000000000E+00 0.  1.
         12    1    4    4    0    0 -0.97435651699E+01 -0.22537506903E+02  0.34425228508E+02  0.42284425472E+02  0.00000000000E+00 0. -1.
         -5    1    5    5    0  502 -0.22862233433E+02 -0.29394875444E+02 -0.41600010334E+01  0.37764216243E+02  0.47000000000E+01 0.  1.
         13    1    6    6    0    0 -0.26679291661E+02 -0.53948951667E+02  0.14311583016E+03  0.15525596553E+03  0.00000000000E+00 0. -1.
        -14    1    6    6    0    0 -0.12093052154E+03 -0.17815489848E+02  0.22210366376E+03  0.25351848093E+03  0.00000000000E+00 0.  1.
</event>
<event>
12    1  0.8135779E-002  0.2202142E+03  0.7818608E-02  0.1134268E+00
         21   -1    0    0  503  502  0.00000000000E+00  0.00000000000E+00  0.47772364457E+03  0.47772364457E+03  0.00000000000E+00 0. -1.
         21   -1    0    0  501  503 -0.00000000000E+00 -0.00000000000E+00 -0.10047177336E+03  0.10047177336E+03  0.00000000000E+00 0.  1.
          6    2    1    2  501    0  0.13315330496E+03  0.20460857924E+02  0.20306137952E+03  0.29741679860E+03  0.17051210781E+03 0.  0.
         24    2    3    3    0    0  0.74773923783E+02  0.31386862092E+02  0.20595546468E+03  0.23776786364E+03  0.86831035696E+02 0.  0.
         -6    2    1    2    0  502 -0.13315330496E+03 -0.20460857924E+02  0.17419049169E+03  0.28077861933E+03  0.17420062098E+03 0.  0.
        -24    2    5    5    0    0 -0.13507947250E+02 -0.49742263527E+02  0.90095975416E+02  0.13155935113E+03  0.80832052209E+02 0.  0.
          5    1    3    3  501    0  0.58379381173E+02 -0.10926004168E+02 -0.28940851529E+01  0.59648934962E+02  0.47000000000E+01 0. -1.
        -11    1    4    4    0    0 -0.12075902366E+02  0.19400807724E+02  0.87266392875E+02  0.90208880293E+02  0.00000000000E+00 0.  1.
         12    1    4    4    0    0  0.86849826148E+02  0.11986054368E+02  0.11868907180E+03  0.14755898335E+03  0.00000000000E+00 0. -1.
         -5    1    5    5    0  502 -0.11964535771E+03  0.29281405602E+02  0.84094516272E+02  0.14921926820E+03  0.47000000000E+01 0.  1.
         11    1    6    6    0    0 -0.47458463233E+01 -0.71885468444E+02  0.68598323687E+02  0.99477503202E+02  0.00000000000E+00 0. -1.
        -12    1    6    6    0    0 -0.87621009266E+01  0.22143204918E+02  0.21497651730E+02  0.32081847929E+02  0.00000000000E+00 0.  1.
</event>
<event>
12    1  0.8135779E-002  0.1813076E+03  0.7818608E-02  0.1166804E+00
         21   -1    0    0  501  502  0.00000000000E+00  0.00000000000E+00  0.76783682943E+03  0.76783682943E+03  0.00000000000E+00 0.  1.
         21   -1    0    0  502  503 -0.00000000000E+00 -0.00000000000E+00 -0.47789489847E+02  0.47789489847E+02  0.00000000000E+00 0.  1.
         -6    2    1    2    0  503 -0.14804363566E+02 -0.54387775769E+02  0.49593031912E+03  0.52803346116E+03  0.17232311321E+03 0.  0.
        -24    2    3    3    0    0  0.21939877251E+02 -0.94627780184E+02  0.40643807283E+03  0.42315091097E+03  0.66550818258E+02 0.  0.
          6    2    1    2  501    0  0.14804363566E+02  0.54387775769E+02  0.22411702046E+03  0.28759285812E+03  0.17118415185E+03 0.  0.
         24    2    5    5    0    0  0.58961868616E+02  0.77616883776E+02  0.18601956904E+03  0.22464063404E+03  0.79744917078E+02 0.  0.
          5    1    5    5  501    0 -0.44157505050E+02 -0.23229108007E+02  0.38097451426E+02  0.62952224077E+02  0.47000000000E+01 0. -1.
        -11    1    6    6    0    0 -0.16435187678E+02  0.48052152080E+01  0.50454320183E+02  0.53280802475E+02  0.00000000000E+00 0.  1.
         12    1    6    6    0    0  0.75397056294E+02  0.72811668568E+02  0.13556524885E+03  0.17135983157E+03  0.00000000000E+00 0. -1.
         -5    1    3    3    0  503 -0.36744240817E+02  0.40240004415E+02  0.89492246285E+02  0.10488255019E+03  0.47000000000E+01 0.  1.
         13    1    4    4    0    0 -0.19927269713E+02 -0.93182207484E+01  0.96289152107E+02  0.98770066972E+02  0.00000000000E+00 0. -1.
        -14    1    4    4    0    0  0.41867146964E+02 -0.85309559436E+02  0.31014892072E+03  0.32438084400E+03  0.00000000000E+00 0.  1.
</event>
<event>
12    1  0.8135779E-002  0.1895440E+03  0.7818608E-02  0.1159322E+00
         21   -1    0    0  503  502  0.00000000000E+00  0.00000000000E+00  0.37394517503E+03  0.37394517503E+03  0.00000000000E+00 0. -1.
         21   -1    0    0  501  503 -0.00000000000E+00 -0.00000000000E+00 -0.25861797716E+03  0.25861797716E+03  0.00000000000E+00 0. -1.
          6    2    1    2  501    0  0.76771567340E+02  0.27423104820E+02 -0.19395770578E+03  0.26981794491E+03  0.16892670463E+03 0.  0.
         24    2    3    3    0    0 -0.93314250045E+01  0.13715803367E+01 -0.14770531094E+03  0.16855698873E+03  0.80657565330E+02 0.  0.
         -6    2    1    2    0  502 -0.76771567340E+02 -0.27423104820E+02  0.30928490365E+03  0.36274520728E+03  0.17111701714E+03 0.  0.
        -24    2    5    5    0    0 -0.67338109778E+02 -0.57452907197E+02  0.30850758794E+03  0.33091011074E+03  0.80556266035E+02 0.  0.
          5    1    3    3  501    0  0.86102992344E+02  0.26051524483E+02 -0.46252394840E+02  0.10126095618E+03  0.47000000000E+01 0. -1.
        -11    1    4    4    0    0 -0.35367760463E+02  0.26816889184E+02 -0.89558564089E+02  0.99953791460E+02  0.00000000000E+00 0.  1.
         12    1    4    4    0    0  0.26036335458E+02 -0.25445308847E+02 -0.58146746851E+02  0.68603197270E+02  0.00000000000E+00 0. -1.
         -5    1    5    5    0  502 -0.94334575621E+01  0.30029802378E+02  0.77731570651E+00  0.31835096546E+02  0.47000000000E+01 0.  1.
         13    1    6    6    0    0 -0.37795798406E+02 -0.13204885863E-01  0.20821594477E+03  0.21161852992E+03  0.00000000000E+00 0. -1.
        -14    1    6    6    0    0 -0.29542311371E+02 -0.57439702312E+02  0.10029164317E+03  0.11929158081E+03  0.00000000000E+00 0.  1.
</event>
<event>
12    1  0.8135779E-002  0.1896872E+03  0.7818608E-02  0.1159046E+00
         21   -1    0    0  501  502  0.00000000000E+00  0.00000000000E+00  0.43382473885E+02  0.43382473885E+02  0.00000000000E+00 0. -1.
         21   -1    0    0  502  503 -0.00000000000E+00 -0.00000000000E+00 -0.84168577018E+03  0.84168577018E+03  0.00000000000E+00 0. -1.
         -6    2    1    2    0  503  0.42361330872E+02  0.70842247801E+02 -0.46544483450E+03  0.50261330543E+03  0.17078680983E+03 0.  0.
        -24    2    3    3    0    0  0.45866482408E+02  0.48442004628E+02 -0.12466536068E+03  0.16104808947E+03  0.77101705220E+02 0.  0.
          6    2    1    2  501    0 -0.42361330872E+02 -0.70842247801E+02 -0.33285846180E+03  0.38245493863E+03  0.16930421750E+03 0.  0.
         24    2    5    5    0    0  0.16937011428E+02 -0.31016620267E+01 -0.93787117660E+02  0.12695097007E+03  0.83809562103E+02 0.  0.
          5    1    5    5  501    0 -0.59298342300E+02 -0.67740585774E+02 -0.23907134414E+03  0.25550396856E+03  0.47000000000E+01 0. -1.
        -11    1    6    6    0    0  0.44425274106E+02  0.12319820903E+02 -0.80457247561E+02  0.92729454067E+02  0.00000000000E+00 0.  1.
         12    1    6    6    0    0 -0.27488262679E+02 -0.15421482929E+02 -0.13329870099E+02  0.34221516005E+02  0.00000000000E+00 0. -1.
         -5    1    3    3    0  503 -0.35051515360E+01  0.22400243173E+02 -0.34077947382E+03  0.34156521597E+03  0.47000000000E+01 0.  1.
         11    1    4    4    0    0  0.58141803319E+02  0.38176750625E+02 -0.12707540846E+03  0.14486577587E+03  0.00000000000E+00 0. -1.
        -12    1    4    4    0    0 -0.12275320911E+02  0.10265254003E+02  0.24100477849E+01  0.16182313602E+02  0.00000000000E+00 0.  1.
</event>
<event>
12    1  0.8135779E-002  0.2147231E+03  0.7818608E-02  0.1138094E+00
         21   -1    0    0  501  502  0.00000000000E+00  0.00000000000E+00  0.12167381019E+04  0.12167381019E+04  0.00000000000E+00 0. -1.
         21   -1    0    0  502  503 -0.00000000000E+00 -0.00000000000E+00 -0.10760577194E+03  0.10760577194E+03  0.00000000000E+00 0. -1.
         -6    2    1    2    0  503  0.12774791047E+03 -0.10485304846E+02  0.21345565455E+02  0.21578147862E+03  0.17226881059E+03 0.  0.
        -24    2    3    3    0    0  0.86645127745E+02 -0.44201458953E+02  0.70018918284E+02  0.14354988531E+03  0.79011224018E+02 0.  0.
          6    2    1    2  501    0 -0.12774791047E+03  0.10485304846E+02  0.10877867645E+04  0.11085623953E+04  0.17088320232E+03 0.  0.
         24    2    5    5    0    0 -0.68347502534E+02  0.36105336339E+02  0.32155336612E+03  0.33958872515E+03  0.77129492214E+02 0.  0.
          5    1    5    5  501    0 -0.59400407935E+02 -0.25620031493E+02  0.76623339841E+03  0.76897367010E+03  0.47000000000E+01 0. -1.
        -13    1    6    6    0    0 -0.51891657240E+02 -0.14286837900E+02  0.12681230748E+03  0.13776145745E+03  0.00000000000E+00 0.  1.
         14    1    6    6    0    0 -0.16455845294E+02  0.50392174239E+02  0.19474105864E+03  0.20182726770E+03  0.00000000000E+00 0. -1.
         -5    1    3    3    0  503  0.41102782724E+02  0.33716154107E+02 -0.48673352830E+02  0.72231593303E+02  0.47000000000E+01 0.  1.
         13    1    4    4    0    0  0.36650758667E+02  0.32348358340E+01 -0.98188804834E+01  0.38080870365E+02  0.00000000000E+00 0. -1.
        -14    1    4    4    0    0  0.49994369077E+02 -0.47436294787E+02  0.79837798767E+02  0.10546901495E+03  0.00000000000E+00 0.  1.
</event>
<event>
12    1  0.8135779E-002  0.2090993E+03  0.7818608E-02  0.1145356E+00
         21   -1    0    0  503  502  0.00000000000E+00  0.00000000000E+00  0.44935127625E+02  0.44935127625E+02  0.00000000000E+00 0.  1.
         21   -1    0    0  501  503 -0.00000000000E+00 -0.00000000000E+00 -0.95755233598E+03  0.95755233598E+03  0.00000000000E+00 0.  1.
          6    2    1    2  501    0  0.68508923637E+02 -0.56989285844E+02 -0.35498923118E+03  0.41199498901E+03  0.18915936508E+03 0.  0.
         24    2    3    3    0    0 -0.35952970037E+02 -0.10670920183E+02 -0.20590808556E+03  0.22409885758E+03  0.80097900585E+02 0.  0.
         -6    2    1    2    0  502 -0.68508923637E+02  0.56989285844E+02 -0.55762797717E+03  0.59049247459E+03  0.17260113066E+03 0.  0.
        -24    2    5    5    0    0 -0.20218187270E+02  0.25181230099E+02 -0.11325915472E+03  0.14235244291E+03  0.79960693023E+02 0.  0.
          5    1    3    3  501    0  0.10446189367E+03 -0.46318365661E+02 -0.14908114563E+03  0.18789613144E+03  0.47000000000E+01 0. -1.
        -11    1    4    4    0    0 -0.47776979194E+01  0.33753211271E+02 -0.84171947215E+02  0.90813117810E+02  0.00000000000E+00 0.  1.
         12    1    4    4    0    0 -0.31175272118E+02 -0.44424131453E+02 -0.12173613834E+03  0.13328573977E+03  0.00000000000E+00 0. -1.
         -5    1    5    5    0  502 -0.48290736367E+02  0.31808055745E+02 -0.44436882245E+03  0.44814003168E+03  0.47000000000E+01 0.  1.
         13    1    6    6    0    0 -0.45811745678E+02  0.10787081933E+02 -0.99195951142E+02  0.10979487193E+03  0.00000000000E+00 0. -1.
        -14    1    6    6    0    0  0.25593558408E+02  0.14394148166E+02 -0.14063203580E+02  0.32557570984E+02  0.00000000000E+00 0.  1.
</event>
<event>
12    1  0.8135779E-002  0.2131412E+03  0.7818608E-02  0.1139372E+00
         21   -1    0    0  503  502  0.00000000000E+00  0.00000000000E+00  0.22523391827E+03  0.22523391827E+03  0.00000000000E+00 0.  1.
         21   -1    0    0  501  503 -0.00000000000E+00 -0.00000000000E+00 -0.50266549930E+03  0.50266549930E+03  0.00000000000E+00 0.  1.
          6    2    1    2  501    0 -0.11118304869E+03  0.52090071003E+02 -0.42076472715E+03  0.47104623045E+03  0.17252985190E+03 0.  0.
         24    2    3    3    0    0 -0.84664517925E+02  0.78624553955E+02 -0.18024637209E+03  0.22757450647E+03  0.77145967243E+02 0.  0.
         -6    2    1    2    0  502  0.11118304869E+03 -0.52090071003E+02  0.14333314612E+03  0.25685318712E+03  0.17422434717E+03 0.  0.
        -24    2    5    5    0    0  0.13719358608E+03 -0.72283706900E+02  0.11264182621E+03  0.21159417582E+03  0.89648758410E+02 0.  0.
          5    1    3    3  501    0 -0.26518530764E+02 -0.26534482951E+02 -0.24051835506E+03  0.24347172399E+03  0.47000000000E+01 0. -1.
        -11    1    4    4    0    0 -0.48303047631E+02  0.78399801089E+02 -0.16326223399E+03  0.18744137822E+03  0.00000000000E+00 0.  1.
         12    1    4    4    0    0 -0.36361470294E+02  0.22475286594E+00 -0.16984138095E+02  0.40133128243E+02  0.00000000000E+00 0. -1.
         -5    1    5    5    0  502 -0.26010537394E+02  0.20193635897E+02  0.30691319907E+02  0.45259011300E+02  0.47000000000E+01 0.  1.
         11    1    6    6    0    0 -0.94643594108E+01  0.75731054481E+01  0.81460189673E+01  0.14604233982E+02  0.00000000000E+00 0. -1.
        -12    1    6    6    0    0  0.14665794549E+03 -0.79856812348E+02  0.10449580724E+03  0.19698994184E+03  0.00000000000E+00 0.  1.
</event>
<event>
12    1  0.8135779E-002  0.2210535E+03  0.7818608E-02  0.1133226E+00
         21   -1    0    0  501  502  0.00000000000E+00  0.00000000000E+00  0.28572823276E+02  0.28572823276E+02  0.00000000000E+00 0.  1.
         21   -1    0    0  502  503 -0.00000000000E+00 -0.00000000000E+00 -0.17138665883E+04  0.17138665883E+04  0.00000000000E+00 0.  1.
         -6    2    1    2    0  503  0.12418316474E+03  0.60445380613E+02 -0.90419907189E+03  0.93066755388E+03  0.17172953095E+03 0.  0.
        -24    2    3    3    0    0  0.62683119905E+02 -0.32299479483E+02 -0.45564537566E+03  0.46849185895E+03  0.83063130464E+02 0.  0.
          6    2    1    2  501    0 -0.12418316474E+03 -0.60445380613E+02 -0.78109469313E+03  0.81177185769E+03  0.17259642771E+03 0.  0.
         24    2    5    5    0    0 -0.36121710273E+02  0.28203466090E+02 -0.41518326145E+03  0.42508502882E+03  0.78866518174E+02 0.  0.
          5    1    5    5  501    0 -0.88061454466E+02 -0.88648846704E+02 -0.36591143168E+03  0.38668682887E+03  0.47000000000E+01 0. -1.
        -13    1    6    6    0    0 -0.40860698187E+02 -0.74699350600E+01 -0.10654318491E+03  0.11435404162E+03  0.00000000000E+00 0.  1.
         14    1    6    6    0    0  0.47389879135E+01  0.35673401150E+02 -0.30864007654E+03  0.31073098720E+03  0.00000000000E+00 0. -1.
         -5    1    3    3    0  503  0.61500044835E+02  0.92744860096E+02 -0.44855369623E+03  0.46217569493E+03  0.47000000000E+01 0.  1.
         13    1    4    4    0    0 -0.14782445429E+02 -0.26731418996E+00 -0.20094496514E+02  0.24947563806E+02  0.00000000000E+00 0. -1.
        -14    1    4    4    0    0  0.77465565333E+02 -0.32032165293E+02 -0.43555087915E+03  0.44354429514E+03  0.00000000000E+00 0.  1.
</event>
<event>
12    1  0.8135779E-002  0.1729627E+03  0.7818608E-02  0.1174939E+00
         21   -1    0    0  501  502  0.00000000000E+00  0.00000000000E+00  0.28717827809E+03  0.28717827809E+03  0.00000000000E+00 0. -1.
         21   -1    0    0  502  503 -0.00000000000E+00 -0.00000000000E+00 -0.10876448194E+03  0.10876448194E+03  0.00000000000E+00 0. -1.
         -6    2    1    2    0  503 -0.10442576581E+02 -0.22330909619E+01  0.46894531034E+02  0.17865626120E+03  0.17206082798E+03 0.  0.
        -24    2    3    3    0    0 -0.96543534500E+01  0.55546169950E+02 -0.97628810820E+01  0.97593220089E+02  0.79060351780E+02 0.  0.
          6    2    1    2  501    0  0.10442576581E+02  0.22330909619E+01  0.13151926512E+03  0.21728649882E+03  0.17263276448E+03 0.  0.
         24    2    5    5    0    0 -0.76302247524E+01 -0.37657114364E+02  0.84583549518E+01  0.86580981567E+02  0.77126156450E+02 0.  0.
          5    1    5    5  501    0  0.18072801333E+02  0.39890205325E+02  0.12306091017E+03  0.13070551726E+03  0.47000000000E+01 0. -1.
        -13    1    6    6    0    0 -0.16331877542E+02  0.16392541364E+02 -0.14400439296E+02  0.27254692959E+02  0.00000000000E+00 0.  1.
         14    1    6    6    0    0  0.87016527894E+01 -0.54049655728E+02  0.22858794247E+02  0.59326288608E+02  0.00000000000E+00 0. -1.
         -5    1    3    3    0  503 -0.78822313064E+00 -0.57779260912E+02  0.56657412116E+02  0.81063041116E+02  0.47000000000E+01 0.  1.
         13    1    4    4    0    0 -0.42197159392E+02  0.46273491247E+02 -0.11664955627E+02  0.63701706749E+02  0.00000000000E+00 0. -1.
        -14    1    4    4    0    0  0.32542805942E+02  0.92726787034E+01  0.19020745453E+01  0.33891513340E+02  0.00000000000E+00 0.  1.
</event>
<event>
12    1  0.8135779E-002  0.1897869E+03  0.7818608E-02  0.1158725E+00
         21   -1    0    0  503  502  0.00000000000E+00  0.00000000000E+00  0.47342942620E+02  0.47342942620E+02  0.00000000000E+00 0. -1.
         21   -1    0    0  501  503 -0.00000000000E+00 -0.00000000000E+00 -0.76325590204E+03  0.76325590204E+03  0.00000000000E+00 0.  1.
          6    2    1    2  501    0  0.79209237501E+02  0.73560109537E+01 -0.32937453278E+03  0.37998180480E+03  0.17196038769E+03 0.  0.
         24    2    3    3    0    0  0.29467360647E+02 -0.45245671457E+02 -0.96850347359E+02  0.13640270449E+03  0.79436842072E+02 0.  0.
         -6    2    1    2    0  502 -0.79209237501E+02 -0.73560109537E+01 -0.38653842664E+03  0.43061703986E+03  0.17231037561E+03 0.  0.
        -24    2    5    5    0    0 -0.68042017430E+02 -0.20470425541E+02 -0.11551447957E+03  0.15900561786E+03  0.83008656552E+02 0.  0.
          5    1    3    3  501    0  0.49741876854E+02  0.52601682411E+02 -0.23252418542E+03  0.24357910032E+03  0.47000000000E+01 0. -1.
        -13    1    4    4    0    0 -0.24003572266E+02 -0.33080361794E+02 -0.47095501218E+02  0.62357582160E+02  0.00000000000E+00 0.  1.
         14    1    4    4    0    0  0.53470932912E+02 -0.12165309664E+02 -0.49754846141E+02  0.74045122326E+02  0.00000000000E+00 0. -1.
         -5    1    5    5    0  502 -0.11167220070E+02  0.13114414587E+02 -0.27102394707E+03  0.27161142200E+03  0.47000000000E+01 0.  1.
         13    1    6    6    0    0  0.78669936200E+01  0.73376249857E+01  0.65522201056E+01  0.12596107230E+02  0.00000000000E+00 0. -1.
        -14    1    6    6    0    0 -0.75909011050E+02 -0.27808050527E+02 -0.12206669968E+03  0.14640951063E+03  0.00000000000E+00 0.  1.
</event>
<event>
12    1  0.8135779E-002  0.2267472E+03  0.7818608E-02  0.1129065E+00
         21   -1    0    0  501  502  0.00000000000E+00  0.00000000000E+00  0.78230400363E+02  0.78230400363E+02  0.00000000000E+00 0.  1.
         21   -1    0    0  502  503 -0.00000000000E+00 -0.00000000000E+00 -0.71082316159E+03  0.71082316159E+03  0.00000000000E+00 0.  1.
         -6    2    1    2    0  503  0.56660147332E+02 -0.13586661679E+03 -0.42689845913E+03  0.48338035197E+03  0.17246495413E+03 0.  0.
        -24    2    3    3    0    0 -0.69572429586E+01 -0.11109495428E+03 -0.17022783789E+03  0.21774393612E+03  0.77745821950E+02 0.  0.
          6    2    1    2  501    0 -0.56660147332E+02  0.13586661679E+03 -0.20569430209E+03  0.30567320998E+03  0.17162708275E+03 0.  0.
         24    2    5    5    0    0 -0.53630153712E+02  0.13046502048E+03 -0.82870706452E+02  0.18260378344E+03  0.81112716524E+02 0.  0.
          5    1    5    5  501    0 -0.30299936200E+01  0.54015963119E+01 -0.12282359564E+03  0.12306942654E+03  0.47000000000E+01 0. -1.
        -13    1    6    6    0    0 -0.51889342072E+02  0.30807275555E+02 -0.47652491262E+02  0.76891819924E+02  0.00000000000E+00 0.  1.
         14    1    6    6    0    0 -0.17408116398E+01  0.99657744926E+02 -0.35218215191E+02  0.10571196351E+03  0.00000000000E+00 0. -1.
         -5    1    3    3    0  503  0.63617390290E+02 -0.24771662509E+02 -0.25667062125E+03  0.26563641585E+03  0.47000000000E+01 0.  1.
         13    1    4    4    0    0  0.33899036521E+02 -0.35151306260E+02 -0.51137227489E+02  0.70709087423E+02  0.00000000000E+00 0. -1.
        -14    1    4    4    0    0 -0.40856279480E+02 -0.75943648023E+02 -0.11909061040E+03  0.14703484870E+03  0.00000000000E+00 0.  1.
</event>
<event>
12    1  0.8135779E-002  0.2128432E+03  0.7818608E-02  0.1139461E+00
         21   -1    0    0  503  502  0.00000000000E+00  0.00000000000E+00  0.40114813746E+03  0.40114813746E+03  0.00000000000E+00 0. -1.
         21   -1    0    0  501  503 -0.00000000000E+00 -0.00000000000E+00 -0.12842149708E+03  0.12842149708E+03  0.00000000000E+00 0. -1.
          6    2    1    2  501    0 -0.12430095453E+03  0.66916413733E+00  0.43566496342E+02  0.21725619567E+03  0.17277453480E+03 0.  0.
         24    2    3    3    0    0 -0.25450027007E+02  0.25398263610E+00  0.76670565655E+02  0.11290272110E+03  0.78872558048E+02 0.  0.
         -6    2    1    2    0  502  0.12430095453E+03 -0.66916413733E+00  0.22916014404E+03  0.31231343887E+03  0.17197132728E+03 0.  0.
        -24    2    5    5    0    0  0.48944556513E+01  0.37040402898E+02  0.88280189245E+02  0.12376855010E+03  0.78289942120E+02 0.  0.
          5    1    3    3  501    0 -0.98850927526E+02  0.41518150124E+00 -0.33104069313E+02  0.10435347456E+03  0.47000000000E+01 0. -1.
        -13    1    4    4    0    0 -0.13658774022E+01  0.34895227583E+02  0.14600980906E+02  0.37851435541E+02  0.00000000000E+00 0.  1.
         14    1    4    4    0    0 -0.24084149604E+02 -0.34641244947E+02  0.62069584749E+02  0.75051285562E+02  0.00000000000E+00 0. -1.
         -5    1    5    5    0  502  0.11940649888E+03 -0.37709567035E+02  0.14087995479E+03  0.18854488877E+03  0.47000000000E+01 0.  1.
         11    1    6    6    0    0  0.32147323191E+02  0.41001951001E+02  0.79142090574E+02  0.94752735447E+02  0.00000000000E+00 0. -1.
        -12    1    6    6    0    0 -0.27252867540E+02 -0.39615481029E+01  0.91380986709E+01  0.29015814650E+02  0.00000000000E+00 0.  1.
</event>
<event>
12    1  0.8135779E-002  0.2774361E+03  0.7818608E-02  0.1097237E+00
         21   -1    0    0  501  502  0.00000000000E+00  0.00000000000E+00  0.27721373951E+03  0.27721373951E+03  0.00000000000E+00 0.  1.
         21   -1    0    0  502  503 -0.00000000000E+00 -0.00000000000E+00 -0.73804030324E+03  0.73804030324E+03  0.00000000000E+00 0. -1.
         -6    2    1    2    0  503  0.22155888380E+02 -0.21511859462E+03 -0.63193540261E+03  0.69015441714E+03  0.17379261574E+03 0.  0.
        -24    2    3    3    0    0  0.38120414487E+02 -0.16331510219E+03 -0.29440757703E+03  0.34826906945E+03  0.80563854942E+02 0.  0.
          6    2    1    2  501    0 -0.22155888380E+02  0.21511859462E+03  0.17110883887E+03  0.32509962561E+03  0.17217618503E+03 0.  0.
         24    2    5    5    0    0  0.15708223167E+02  0.65176626353E+02  0.16041926060E+02  0.10604684147E+03  0.80584417204E+02 0.  0.
          5    1    5    5  501    0 -0.37864111548E+02  0.14994196826E+03  0.15506691281E+03  0.21905278414E+03  0.47000000000E+01 0. -1.
        -13    1    6    6    0    0 -0.31127971800E+02  0.19006151504E+02  0.17076280042E+02  0.40271376478E+02  0.00000000000E+00 0.  1.
         14    1    6    6    0    0  0.46836194967E+02  0.46170474849E+02 -0.10343539820E+01  0.65775464992E+02  0.00000000000E+00 0. -1.
         -5    1    3    3    0  503 -0.15964526107E+02 -0.51803492430E+02 -0.33752782558E+03  0.34188534769E+03  0.47000000000E+01 0.  1.
         11    1    4    4    0    0  0.14205142926E+02 -0.95285874392E+02 -0.23786554758E+03  0.25663437547E+03  0.00000000000E+00 0. -1.
        -12    1    4    4    0    0  0.23915271561E+02 -0.68029227793E+02 -0.56542029444E+02  0.91634693985E+02  0.00000000000E+00 0.  1.
</event>
<event>
12    1  0.8135779E-002  0.2331098E+03  0.7818608E-02  0.1124470E+00
         21   -1    0    0  503  502  0.00000000000E+00  0.00000000000E+00  0.93002068704E+02  0.93002068704E+02  0.00000000000E+00 0. -1.
         21   -1    0    0  501  503 -0.00000000000E+00 -0.00000000000E+00 -0.60776238863E+03  0.60776238863E+03  0.00000000000E+00 0. -1.
          6    2    1    2  501    0 -0.72392306961E+01  0.15711786951E+03 -0.32624767335E+03  0.40097100455E+03  0.17205165139E+03 0.  0.
         24    2    3    3    0    0 -0.32836414496E+02  0.16688866555E+03 -0.21076065414E+03  0.28218537462E+03  0.79236831766E+02 0.  0.
         -6    2    1    2    0  502  0.72392306961E+01 -0.15711786951E+03 -0.18851264658E+03  0.29979345279E+03  0.17204843804E+03 0.  0.
        -24    2    5    5    0    0 -0.24498989418E+02 -0.14169428438E+03 -0.20301379466E+03  0.26135421646E+03  0.80087170829E+02 0.  0.
          5    1    3    3  501    0  0.25597183800E+02 -0.97707960425E+01 -0.11548701920E+03  0.11878562993E+03  0.47000000000E+01 0. -1.
        -13    1    4    4    0    0 -0.10256928918E+02  0.17739883220E+02  0.28413907555E+01  0.20687714927E+02  0.00000000000E+00 0.  1.
         14    1    4    4    0    0 -0.22579485578E+02  0.14914878233E+03 -0.21360204490E+03  0.26149765969E+03  0.00000000000E+00 0. -1.
         -5    1    5    5    0  502  0.31738220114E+02 -0.15423585129E+02  0.14501148071E+02  0.38439236330E+02  0.47000000000E+01 0.  1.
         13    1    6    6    0    0  0.24547843816E+02 -0.32315973546E+02 -0.28313612675E+02  0.49483122829E+02  0.00000000000E+00 0. -1.
        -14    1    6    6    0    0 -0.49046833234E+02 -0.10937831083E+03 -0.17470018198E+03  0.21187109363E+03  0.00000000000E+00 0.  1.
</event>
<event>
12    1  0.8135779E-002  0.2661927E+03  0.7818608E-02  0.1103594E+00
         21   -1    0    0  501  502  0.00000000000E+00  0.00000000000E+00  0.97282459828E+02  0.97282459828E+02  0.00000000000E+00 0. -1.
         21   -1    0    0  502  503 -0.00000000000E+00 -0.00000000000E+00 -0.99980265297E+03  0.99980265297E+03  0.00000000000E+00 0. -1.
         -6    2    1    2    0  503  0.11234453366E+03 -0.16760418469E+03 -0.73771538106E+03  0.78400498608E+03  0.17241629207E+03 0.  0.
        -24    2    3    3    0    0  0.68029544690E+02 -0.16491001341E+02 -0.34077161468E+03  0.35693888335E+03  0.79875534430E+02 0.  0.
          6    2    1    2  501    0 -0.11234453366E+03  0.16760418469E+03 -0.16480481208E+03  0.31308012672E+03  0.17362627305E+03 0.  0.
         24    2    5    5    0    0 -0.80476711840E+02  0.51702657092E+02 -0.14550011245E+03  0.19124629072E+03  0.79089791331E+02 0.  0.
          5    1    5    5  501    0 -0.31867821821E+02  0.11590152760E+03 -0.19304699635E+02  0.12183383600E+03  0.47000000000E+01 0. -1.
        -13    1    6    6    0    0 -0.11430086237E+02  0.44482218480E+02 -0.94610931567E+02  0.10516911621E+03  0.00000000000E+00 0.  1.
         14    1    6    6    0    0 -0.69046625603E+02  0.72204386116E+01 -0.50889180880E+02  0.86077174509E+02  0.00000000000E+00 0. -1.
         -5    1    3    3    0  503  0.44314988971E+02 -0.15111318335E+03 -0.39694376638E+03  0.42706610272E+03  0.47000000000E+01 0.  1.
         11    1    4    4    0    0  0.45196047945E+02 -0.35657113161E+02 -0.30494523171E+03  0.31033160782E+03  0.00000000000E+00 0. -1.
        -12    1    4    4    0    0  0.22833496745E+02  0.19166111820E+02 -0.35826382975E+02  0.46607275537E+02  0.00000000000E+00 0.  1.
</event>
<event>
12    1  0.8135779E-002  0.2161196E+03  0.7818608E-02  0.1136966E+00
         21   -1    0    0  501  502  0.00000000000E+00  0.00000000000E+00  0.17626528439E+03  0.17626528439E+03  0.00000000000E+00 0. -1.
         21   -1    0    0  502  503 -0.00000000000E+00 -0.00000000000E+00 -0.55987127907E+03  0.55987127907E+03  0.00000000000E+00 0.  1.
         -6    2    1    2    0  503 -0.12655466321E+03  0.30940064433E+02 -0.45955148255E+03  0.50783389493E+03  0.17243645021E+03 0.  0.
        -24    2    3    3    0    0 -0.11333761924E+03  0.72150154323E+02 -0.42324602085E+03  0.45114934405E+03  0.79671047205E+02 0.  0.
          6    2    1    2  501    0  0.12655466321E+03 -0.30940064433E+02  0.75945487868E+02  0.22830266852E+03  0.17140892905E+03 0.  0.
         24    2    5    5    0    0  0.43301214042E+02  0.39957303118E+02  0.20606508615E+01  0.96247253397E+02  0.76076976114E+02 0.  0.
          5    1    5    5  501    0  0.83253449165E+02 -0.70897367550E+02  0.73884837007E+02  0.13205541512E+03  0.47000000000E+01 0. -1.
        -13    1    6    6    0    0  0.17402089523E+02 -0.17150021520E+02  0.19389092808E+02  0.31191230784E+02  0.00000000000E+00 0.  1.
         14    1    6    6    0    0  0.25899124519E+02  0.57107324637E+02 -0.17328441946E+02  0.65056022614E+02  0.00000000000E+00 0. -1.
         -5    1    3    3    0  503 -0.13217043966E+02 -0.41210089891E+02 -0.36305461696E+02  0.56684550884E+02  0.47000000000E+01 0.  1.
         11    1    4    4    0    0  0.10739387013E+02  0.17619983341E+02 -0.52784160554E+02  0.56674207994E+02  0.00000000000E+00 0. -1.
        -12    1    4    4    0    0 -0.12407700625E+03  0.54530170982E+02 -0.37046186030E+03  0.39447513605E+03  0.00000000000E+00 0.  1.
</event>
<event>
12    1  0.8135779E-002  0.1837693E+03  0.7818608E-02  0.1164240E+00
         21   -1    0    0  501  502  0.00000000000E+00  0.00000000000E+00  0.72969496118E+03  0.72969496118E+03  0.00000000000E+00 0.  1.
         21   -1    0    0  502  503 -0.00000000000E+00 -0.00000000000E+00 -0.62799881811E+02  0.62799881811E+02  0.00000000000E+00 0.  1.
         -6    2    1    2    0  503  0.66589000425E+02 -0.11765948546E+02  0.13008866357E+03  0.22515375056E+03  0.17087603248E+03 0.  0.
        -24    2    3    3    0    0  0.80783940874E+02  0.44619138112E+02  0.61485735655E+02  0.13510250931E+03  0.77170459007E+02 0.  0.
          6    2    1    2  501    0 -0.66589000425E+02  0.11765948546E+02  0.53680641580E+03  0.56734109243E+03  0.17071102659E+03 0.  0.
         24    2    5    5    0    0 -0.52025183548E+02  0.12946566117E+02  0.14004799960E+03  0.17028589546E+03  0.80682158518E+02 0.  0.
          5    1    5    5  501    0 -0.14563816877E+02 -0.11806175705E+01  0.39675841620E+03  0.39705519697E+03  0.47000000000E+01 0. -1.
        -11    1    6    6    0    0  0.15541991750E+02  0.22635303034E+02  0.28995237156E+02  0.39932871531E+02  0.00000000000E+00 0.  1.
         12    1    6    6    0    0 -0.67567175298E+02 -0.96887369174E+01  0.11105276244E+03  0.13035302393E+03  0.00000000000E+00 0. -1.
         -5    1    3    3    0  503 -0.14194940449E+02 -0.56385086658E+02  0.68602927915E+02  0.90051241248E+02  0.47000000000E+01 0.  1.
         13    1    4    4    0    0  0.21125191723E+02  0.47616406494E+02  0.53781846202E+02  0.74873779613E+02  0.00000000000E+00 0. -1.
        -14    1    4    4    0    0  0.59658749151E+02 -0.29972683817E+01  0.77038894534E+01  0.60228729695E+02  0.00000000000E+00 0.  1.
</event>
<event>
12    1  0.8135779E-002  0.1874596E+03  0.7818608E-02  0.1161683E+00
         21   -1    0    0  503  502  0.00000000000E+00  0.00000000000E+00  0.49690493362E+02  0.49690493362E+02  0.00000000000E+00 0. -1.
         21   -1    0    0  501  503 -0.00000000000E+00 -0.00000000000E+00 -0.10052394426E+04  0.10052394426E+04  0.00000000000E+00 0. -1.
          6    2    1    2  501    0 -0.61186460319E+02  0.38668177387E+02 -0.77545267615E+03  0.79778942329E+03  0.17292223714E+03 0.  0.
         24    2    3    3    0    0  0.27817281652E+02  0.25330115200E+02 -0.50355423720E+03  0.51134497651E+03  0.80569220590E+02 0.  0.
         -6    2    1    2    0  502  0.61186460319E+02 -0.38668177387E+02 -0.18009627309E+03  0.25714051267E+03  0.16866405903E+03 0.  0.
        -24    2    5    5    0    0  0.83482283836E+02 -0.73463509897E+02 -0.10881104682E+03  0.17460874670E+03  0.79260277013E+02 0.  0.
          5    1    3    3  501    0 -0.89003741972E+02  0.13338062188E+02 -0.27189843894E+03  0.28644444677E+03  0.47000000000E+01 0. -1.
        -13    1    4    4    0    0  0.18921432835E+02  0.44091364496E+02 -0.15696469373E+03  0.16413404315E+03  0.00000000000E+00 0.  1.
         14    1    4    4    0    0  0.88958488176E+01 -0.18761249296E+02 -0.34658954347E+03  0.34721093336E+03  0.00000000000E+00 0. -1.
         -5    1    5    5    0  502 -0.22295823517E+02  0.34795332510E+02 -0.71285226268E+02  0.82531765975E+02  0.47000000000E+01 0.  1.
         11    1    6    6    0    0  0.47880290506E+02 -0.95300872603E+01 -0.71366782629E+01  0.49338392340E+02  0.00000000000E+00 0. -1.
        -12    1    6    6    0    0  0.35601993330E+02 -0.63933422637E+02 -0.10167436856E+03  0.12527035436E+03  0.00000000000E+00 0.  1.
</event>
<event>
12    1  0.8135779E-002  0.1773598E+03  0.7818608E-02  0.1170807E+00
         21   -1    0    0  503  502  0.00000000000E+00  0.00000000000E+00  0.12215512161E+03  0.12215512161E+03  0.00000000000E+00 0. -1.
         21   -1    0    0  501  503 -0.00000000000E+00 -0.00000000000E+00 -0.29915427002E+03  0.29915427002E+03  0.00000000000E+00 0. -1.
          6    2    1    2  501    0  0.33235833489E+02 -0.46174103766E+01 -0.16902910030E+03  0.24377062240E+03  0.17241617815E+03 0.  0.
         24    2    3    3    0    0 -0.45592572509E+02  0.12837763702E+02 -0.73515317195E+02  0.11861642368E+03  0.80136528867E+02 0.  0.
         -6    2    1    2    0  502 -0.33235833489E+02  0.46174103766E+01 -0.79700481105E+01  0.17753876923E+03  0.17415668752E+03 0.  0.
        -24    2    5    5    0    0 -0.82143159943E+02  0.18612219367E+02  0.23003963813E+02  0.11779547945E+03  0.79073884389E+02 0.  0.
          5    1    3    3  501    0  0.78828405998E+02 -0.17455174079E+02 -0.95513783104E+02  0.12515419872E+03  0.47000000000E+01 0. -1.
        -13    1    4    4    0    0 -0.49166283060E+02 -0.24918694862E+02 -0.45299721693E+02  0.71346545320E+02  0.00000000000E+00 0.  1.
         14    1    4    4    0    0  0.35737105512E+01  0.37756458564E+02 -0.28215595501E+02  0.47269878357E+02  0.00000000000E+00 0. -1.
         -5    1    5    5    0  502  0.48907326454E+02 -0.13994808990E+02 -0.30974011924E+02  0.59743289784E+02  0.47000000000E+01 0.  1.
         11    1    6    6    0    0 -0.20968679182E+02 -0.30296318703E+02  0.30472382062E+01  0.36970773515E+02  0.00000000000E+00 0. -1.
        -12    1    6    6    0    0 -0.61174480760E+02  0.48908538070E+02  0.19956725607E+02  0.80824705934E+02  0.00000000000E+00 0.  1.
</event>
<event>
12    1  0.8135779E-002  0.1953713E+03  0.7818608E-02  0.1154375E+00
         21   -1    0    0  501  502  0.00000000000E+00  0.00000000000E+00  0.85011030527E+03  0.85011030527E+03  0.00000000000E+00 0.  1.
         21   -1    0    0  502  503 -0.00000000000E+00 -0.00000000000E+00 -0.48783242287E+02  0.48783242287E+02  0.00000000000E+00 0. -1.
         -6    2    1    2    0  503 -0.85763579778E+02  0.30976664185E+02  0.26576648066E+03  0.32985112304E+03  0.17278598260E+03 0.  0.
        -24    2    3    3    0    0 -0.64530400454E+02 -0.42655388081E+02  0.11404134926E+03  0.15980662144E+03  0.80926338104E+02 0.  0.
          6    2    1    2  501    0  0.85763579778E+02 -0.30976664185E+02  0.53556058232E+03  0.56904242452E+03  0.16931981050E+03 0.  0.
         24    2    5    5    0    0  0.17669032205E+02 -0.11587042101E+02  0.10853784213E+03  0.13616445616E+03  0.79459686025E+02 0.  0.
          5    1    5    5  501    0  0.68094547573E+02 -0.19389622084E+02  0.42702274019E+03  0.43287796836E+03  0.47000000000E+01 0. -1.
        -11    1    6    6    0    0  0.34165319421E+01 -0.20535726524E+01  0.11698275871E+03  0.11705065436E+03  0.00000000000E+00 0.  1.
         12    1    6    6    0    0  0.14252500263E+02 -0.95334694488E+01 -0.84449165729E+01  0.19113801804E+02  0.00000000000E+00 0. -1.
         -5    1    3    3    0  503 -0.21233179323E+02  0.73632052266E+02  0.15172513140E+03  0.17004450160E+03  0.47000000000E+01 0.  1.
         11    1    4    4    0    0 -0.48565389860E+02 -0.55870823915E+02  0.42579205893E+02  0.85399852644E+02  0.00000000000E+00 0. -1.
        -12    1    4    4    0    0 -0.15965010594E+02  0.13215435834E+02  0.71462143367E+02  0.74406768793E+02  0.00000000000E+00 0.  1.
</event>
<event>
12    1  0.8135779E-002  0.1848943E+03  0.7818608E-02  0.1163520E+00
         21   -1    0    0  503  502  0.00000000000E+00  0.00000000000E+00  0.51406934960E+03  0.51406934960E+03  0.00000000000E+00 0. -1.
         21   -1    0    0  501  503 -0.00000000000E+00 -0.00000000000E+00 -0.68599021294E+02  0.68599021294E+02  0.00000000000E+00 0. -1.
          6    2    1    2  501    0  0.58919191261E+02 -0.32471714623E+02  0.16438850372E+03  0.24622685414E+03  0.17052331276E+03 0.  0.
         24    2    3    3    0    0 -0.19829827391E+02 -0.22854269027E+02  0.14365637232E+03  0.16409394678E+03  0.73308460607E+02 0.  0.
         -6    2    1    2    0  502 -0.58919191261E+02  0.32471714623E+02  0.28108182458E+03  0.33644151675E+03  0.17222084292E+03 0.  0.
        -24    2    5    5    0    0  0.21099326288E+02  0.48517515403E+02  0.10504100412E+03  0.14234645926E+03  0.80185853160E+02 0.  0.
          5    1    3    3  501    0  0.78749018651E+02 -0.96174455952E+01  0.20732131406E+02  0.82132907357E+02  0.47000000000E+01 0. -1.
        -13    1    4    4    0    0  0.17313509417E+02  0.91445125880E+01  0.86975271263E+02  0.89151991173E+02  0.00000000000E+00 0.  1.
         14    1    4    4    0    0 -0.37143336808E+02 -0.31998781615E+02  0.56681101054E+02  0.74941955611E+02  0.00000000000E+00 0. -1.
         -5    1    5    5    0  502 -0.80018517549E+02 -0.16045800781E+02  0.17604082046E+03  0.19409505749E+03  0.47000000000E+01 0.  1.
         13    1    6    6    0    0  0.21217604766E+01  0.56113757403E+02  0.10796683746E+03  0.12169672809E+03  0.00000000000E+00 0. -1.
        -14    1    6    6    0    0  0.18977565811E+02 -0.75962419996E+01 -0.29258333390E+01  0.20649731169E+02  0.00000000000E+00 0.  1.
</event>
<event>
12    1  0.8135779E-002  0.1996521E+03  0.7818608E-02  0.1151256E+00
         21   -1    0    0  503  502  0.00000000000E+00  0.00000000000E+00  0.19027753192E+03  0.19027753192E+03  0.00000000000E+00 0.  1.
         21   -1    0    0  501  503 -0.00000000000E+00 -0.00000000000E+00 -0.40714831585E+03  0.40714831585E+03  0.00000000000E+00 0. -1.
          6    2    1    2  501    0  0.92544982799E+02 -0.14173714543E+02 -0.31887191184E+03  0.37322687437E+03  0.16986328492E+03 0.  0.
         24    2    3    3    0    0  0.55839279540E+02 -0.70195208021E+02 -0.24528255054E+03  0.27361161208E+03  0.81574458617E+02 0.  0.
         -6    2    1    2    0  502 -0.92544982799E+02  0.14173714543E+02  0.10200112792E+03  0.22419897340E+03  0.17633910954E+03 0.  0.
        -24    2    5    5    0    0 -0.56587284691E+02 -0.61014638787E+02  0.71257620954E+02  0.13524113086E+03  0.79294438630E+02 0.  0.
          5    1    3    3  501    0  0.36705703258E+02  0.56021493478E+02 -0.73589361301E+02  0.99615262284E+02  0.47000000000E+01 0. -1.
        -13    1    4    4    0    0 -0.91779496601E+01 -0.26005190359E+02 -0.17539529081E+02  0.32682407591E+02  0.00000000000E+00 0.  1.
         14    1    4    4    0    0  0.65017229200E+02 -0.44190017662E+02 -0.22774302146E+03  0.24092920449E+03  0.00000000000E+00 0. -1.
         -5    1    5    5    0  502 -0.35957698108E+02  0.75188353330E+02  0.30743506962E+02  0.88957842544E+02  0.47000000000E+01 0.  1.
         11    1    6    6    0    0 -0.58794576041E+02 -0.31908723987E+02  0.10337787760E+02  0.67689280496E+02  0.00000000000E+00 0. -1.
        -12    1    6    6    0    0  0.22072913501E+01 -0.29105914799E+02  0.60919833193E+02  0.67551850365E+02  0.00000000000E+00 0.  1.
</event>
<event>
12    1  0.8135779E-002  0.1790419E+03  0.7818608E-02  0.1168877E+00
         21   -1    0    0  503  502  0.00000000000E+00  0.00000000000E+00  0.46563641976E+02  0.46563641976E+02  0.00000000000E+00 0.  1.
         21   -1    0    0  501  503 -0.00000000000E+00 -0.00000000000E+00 -0.70182934970E+03  0.70182934970E+03  0.00000000000E+00 0.  1.
          6    2    1    2  501    0  0.21463998493E+02 -0.40721769824E+02 -0.38404724378E+03  0.42373138973E+03  0.17302323374E+03 0.  0.
         24    2    3    3    0    0 -0.17288329905E+02  0.14135596301E+02 -0.33311554114E+03  0.33930863268E+03  0.60544884372E+02 0.  0.
         -6    2    1    2    0  502 -0.21463998493E+02  0.40721769824E+02 -0.27121846394E+03  0.32466160194E+03  0.17241442755E+03 0.  0.
        -24    2    5    5    0    0 -0.45062435864E+01  0.59477273513E+02 -0.27982195035E+03  0.29754252473E+03  0.81690745069E+02 0.  0.
          5    1    3    3  501    0  0.38752328398E+02 -0.54857366125E+02 -0.50931702640E+02  0.84422757052E+02  0.47000000000E+01 0. -1.
        -11    1    4    4    0    0 -0.97048296610E+01 -0.23155921900E+02 -0.99785908051E+02  0.10289610237E+03  0.00000000000E+00 0.  1.
         12    1    4    4    0    0 -0.75835002436E+01  0.37291518201E+02 -0.23332963309E+03  0.23641253030E+03  0.00000000000E+00 0. -1.
         -5    1    5    5    0  502 -0.16957754907E+02 -0.18755503689E+02  0.86034864174E+01  0.27119077208E+02  0.47000000000E+01 0.  1.
         11    1    6    6    0    0 -0.76303494263E+01 -0.27132252817E+01 -0.17803729601E+03  0.17822138646E+03  0.00000000000E+00 0. -1.
        -12    1    6    6    0    0  0.31241058399E+01  0.62190498795E+02 -0.10178465435E+03  0.11932113827E+03  0.00000000000E+00 0.  1.
</event>
<event>
12    1  0.8135779E-002  0.1893301E+03  0.7818608E-02  0.1160534E+00
         21   -1    0    0  501  502  0.00000000000E+00  0.00000000000E+00  0.63209338953E+02  0.63209338953E+02  0.00000000000E+00 0.  1.
         21   -1    0    0  502  503 -0.00000000000E+00 -0.00000000000E+00 -0.88292023942E+03  0.88292023942E+03  0.00000000000E+00 0.  1.
         -6    2    1    2    0  503  0.78594708004E+01  0.42091370767E+02 -0.70544366283E+03  0.73040854362E+03  0.18442457644E+03 0.  0.
        -24    2    3    3    0    0 -0.29346679857E+01  0.74805025800E+02 -0.32592266822E+03  0.34929836007E+03  0.10089278728E+03 0.  0.
          6    2    1    2  501    0 -0.78594708004E+01 -0.42091370767E+02 -0.11426723763E+03  0.21572103475E+03  0.17789072056E+03 0.  0.
         24    2    5    5    0    0 -0.40995334509E+02 -0.64637917009E+02 -0.12711281094E+03  0.17337211546E+03  0.89674667253E+02 0.  0.
          5    1    5    5  501    0  0.33135863708E+02  0.22546546243E+02  0.12845573308E+02  0.42348919287E+02  0.47000000000E+01 0. -1.
        -13    1    6    6    0    0  0.63021192481E+01 -0.70012975709E+02 -0.76185475900E+02  0.10366175868E+03  0.00000000000E+00 0.  1.
         14    1    6    6    0    0 -0.47297453757E+02  0.53750587000E+01 -0.50927335039E+02  0.69710356778E+02  0.00000000000E+00 0. -1.
         -5    1    3    3    0  503  0.10794138786E+02 -0.32713655034E+02 -0.37952099462E+03  0.38111018356E+03  0.47000000000E+01 0.  1.
         13    1    4    4    0    0 -0.38271669359E+02  0.38746348787E+02 -0.26322711531E+03  0.26880199860E+03  0.00000000000E+00 0. -1.
        -14    1    4    4    0    0  0.35337001374E+02  0.36058677013E+02 -0.62695552909E+02  0.80496361461E+02  0.00000000000E+00 0.  1.
</event>
<event>
12    1  0.8135779E-002  0.2335312E+03  0.7818608E-02  0.1124783E+00
         21   -1    0    0  501  502  0.00000000000E+00  0.00000000000E+00  0.38279998741E+03  0.38279998741E+03  0.00000000000E+00 0.  1.
         21   -1    0    0  502  503 -0.00000000000E+00 -0.00000000000E+00 -0.14404254991E+03  0.14404254991E+03  0.00000000000E+00 0.  1.
         -6    2    1    2    0  503  0.12105914176E+03  0.92689925887E+02  0.16238022495E+03  0.28443659458E+03  0.17689008089E+03 0.  0.
        -24    2    3    3    0    0  0.96025700912E+02 -0.18731476180E+01  0.14965909471E+03  0.18568050522E+03  0.53431839491E+02 0.  0.
          6    2    1    2  501    0 -0.12105914176E+03 -0.92689925887E+02  0.76377212548E+02  0.24240594274E+03  0.17228007521E+03 0.  0.
         24    2    5    5    0    0 -0.99001156186E+02 -0.83433344434E+01  0.41407118707E+01  0.12908734654E+03  0.82313773971E+02 0.  0.
          5    1    5    5  501    0 -0.22057985572E+02 -0.84346591443E+02  0.72236500678E+02  0.11331859620E+03  0.47000000000E+01 0. -1.
        -11    1    6    6    0    0 -0.77000940306E+02 -0.31703386125E+02  0.29336592289E+02  0.88288646761E+02  0.00000000000E+00 0.  1.
         12    1    6    6    0    0 -0.22000215880E+02  0.23360051681E+02 -0.25195880419E+02  0.40798699775E+02  0.00000000000E+00 0. -1.
         -5    1    3    3    0  503  0.25033440845E+02  0.94563073505E+02  0.12721130242E+02  0.98756089361E+02  0.47000000000E+01 0.  1.
         13    1    4    4    0    0 -0.43082028996E+01 -0.82740562559E+01  0.14149618120E+02  0.16947929434E+02  0.00000000000E+00 0. -1.
        -14    1    4    4    0    0  0.10033390381E+03  0.64009086378E+01  0.13550947659E+03  0.16873257579E+03  0.00000000000E+00 0.  1.
</event>
<event>
12    1  0.8135779E-002  0.1990269E+03  0.7818608E-02  0.1153231E+00
         21   -1    0    0  503  502  0.00000000000E+00  0.00000000000E+00  0.12664798524E+03  0.12664798524E+03  0.00000000000E+00 0.  1.
         21   -1    0    0  501  503 -0.00000000000E+00 -0.00000000000E+00 -0.41369900296E+03  0.41369900296E+03  0.00000000000E+00 0.  1.
          6    2    1    2  501    0  0.20647625212E+01  0.90404041266E+02  0.49855140518E+01  0.18693923157E+03  0.16353674520E+03 0.  0.
         24    2    3    3    0    0  0.48724020795E+02  0.20324384743E+02  0.26343059887E+02  0.99953718958E+02  0.80682577498E+02 0.  0.
         -6    2    1    2    0  502 -0.20647625212E+01 -0.90404041266E+02 -0.29203653177E+03  0.35340775662E+03  0.17729792055E+03 0.  0.
        -24    2    5    5    0    0 -0.50771367697E+02 -0.16520363241E+02 -0.21940197005E+03  0.23882590456E+03  0.77781321958E+02 0.  0.
          5    1    3    3  501    0 -0.46659258274E+02  0.70079656523E+02 -0.21357545835E+02  0.86985512616E+02  0.47000000000E+01 0. -1.
        -13    1    4    4    0    0  0.11802860117E+02  0.31528344129E+02 -0.20384200096E+02  0.39355553662E+02  0.00000000000E+00 0.  1.
         14    1    4    4    0    0  0.36921160678E+02 -0.11203959386E+02  0.46727259983E+02  0.60598165296E+02  0.00000000000E+00 0. -1.
         -5    1    5    5    0  502  0.48706605175E+02 -0.73883678026E+02 -0.72634561717E+02  0.11458185206E+03  0.47000000000E+01 0.  1.
         11    1    6    6    0    0 -0.11140047843E+02  0.17005544309E+02 -0.92092357768E+01  0.22318136723E+02  0.00000000000E+00 0. -1.
        -12    1    6    6    0    0 -0.39631319853E+02 -0.33525907550E+02 -0.21019273428E+03  0.21650776784E+03  0.00000000000E+00 0.  1.
</event>
<event>
12    1  0.8135779E-002  0.4031888E+03  0.7818608E-02  0.1043227E+00
         21   -1    0    0  501  502  0.00000000000E+00  0.00000000000E+00  0.45678874808E+03  0.45678874808E+03  0.00000000000E+00 0. -1.
         21   -1    0    0  502  503 -0.00000000000E+00 -0.00000000000E+00 -0.57586897578E+03  0.57586897578E+03  0.00000000000E+00 0.  1.
         -6    2    1    2    0  503 -0.14026430207E+03 -0.33521193779E+03 -0.38238094511E+03  0.55110976515E+03  0.15957966157E+03 0.  0.
        -24    2    3    3    0    0 -0.28447381672E+02 -0.83554482715E+02 -0.90724962782E+02  0.14996166231E+03  0.80416889927E+02 0.  0.
          6    2    1    2  501    0  0.14026430207E+03  0.33521193779E+03  0.26330071741E+03  0.48154795870E+03  0.17469988857E+03 0.  0.
         24    2    5    5    0    0  0.86242838362E+02  0.85291828377E+02  0.12018138938E+03  0.18848890034E+03  0.79824658106E+02 0.  0.
          5    1    5    5  501    0  0.54021463704E+02  0.24992010942E+03  0.14311932803E+03  0.29305905836E+03  0.47000000000E+01 0. -1.
        -11    1    6    6    0    0  0.77785274536E+01 -0.15570994525E+02  0.15150859983E+02  0.23076176418E+02  0.00000000000E+00 0.  1.
         12    1    6    6    0    0  0.78464310909E+02  0.10086282290E+03  0.10503052940E+03  0.16541272392E+03  0.00000000000E+00 0. -1.
         -5    1    3    3    0  503 -0.11181692039E+03 -0.25165745508E+03 -0.29165598233E+03  0.40114810284E+03  0.47000000000E+01 0.  1.
         13    1    4    4    0    0 -0.15933943564E+02 -0.28088360741E+01 -0.60846150373E+02  0.62960576021E+02  0.00000000000E+00 0. -1.
        -14    1    4    4    0    0 -0.12513438108E+02 -0.80745646640E+02 -0.29878812408E+02  0.87001086290E+02  0.00000000000E+00 0.  1.
</event>
<event>
12    1  0.8135779E-002  0.1894346E+03  0.7818608E-02  0.1159513E+00
         21   -1    0    0  501  502  0.00000000000E+00  0.00000000000E+00  0.27584685548E+02  0.27584685548E+02  0.00000000000E+00 0.  1.
         21   -1    0    0  502  503 -0.00000000000E+00 -0.00000000000E+00 -0.12870134101E+04  0.12870134101E+04  0.00000000000E+00 0.  1.
         -6    2    1    2    0  503 -0.22948100054E+02  0.71239219489E+02 -0.60571085374E+03  0.63464248960E+03  0.17402243989E+03 0.  0.
        -24    2    3    3    0    0 -0.44295025258E+02  0.11074665833E+03 -0.44671415044E+03  0.46935918555E+03  0.80731909807E+02 0.  0.
          6    2    1    2  501    0  0.22948100054E+02 -0.71239219489E+02 -0.65371787076E+03  0.67995560599E+03  0.17143783093E+03 0.  0.
         24    2    5    5    0    0 -0.39524060137E+01 -0.69333712165E+02 -0.18408036066E+03  0.20952096751E+03  0.72046314902E+02 0.  0.
          5    1    5    5  501    0  0.26900506068E+02 -0.19055073243E+01 -0.46963751011E+03  0.47043463849E+03  0.47000000000E+01 0. -1.
        -11    1    6    6    0    0  0.10453459140E+02  0.80564313106E+01 -0.53832953041E+01  0.14253447365E+02  0.00000000000E+00 0.  1.
         12    1    6    6    0    0 -0.14405865154E+02 -0.77390143475E+02 -0.17869706535E+03  0.19526752014E+03  0.00000000000E+00 0. -1.
         -5    1    3    3    0  503  0.21346925204E+02 -0.39507438845E+02 -0.15899670330E+03  0.16528330406E+03  0.47000000000E+01 0.  1.
         11    1    4    4    0    0 -0.45348592807E+02  0.48798610028E+02 -0.12410017391E+03  0.14084975106E+03  0.00000000000E+00 0. -1.
        -12    1    4    4    0    0  0.10535675480E+01  0.61948048306E+02 -0.32261397653E+03  0.32850943448E+03  0.00000000000E+00 0.  1.
</event>
<event>
12    1  0.8135779E-002  0.1882082E+03  0.7818608E-02  0.1160156E+00
         21   -1    0    0  501  502  0.00000000000E+00  0.00000000000E+00  0.36512895821E+03  0.36512895821E+03  0.00000000000E+00 0.  1.
         21   -1    0    0  502  503 -0.00000000000E+00 -0.00000000000E+00 -0.67244262857E+03  0.67244262857E+03  0.00000000000E+00 0.  1.
         -6    2    1    2    0  503  0.66519382344E+02 -0.37571341812E+02 -0.63364575608E+03  0.66100625734E+03  0.17200550600E+03 0.  0.
        -24    2    3    3    0    0 -0.23962657482E+02 -0.48874090104E+02 -0.36434261621E+03  0.37664553081E+03  0.78443790415E+02 0.  0.
          6    2    1    2  501    0 -0.66519382344E+02  0.37571341812E+02  0.32633208573E+03  0.37656532944E+03  0.17167522595E+03 0.  0.
         24    2    5    5    0    0 -0.10514562368E+03  0.80286396935E+00  0.26817891453E+03  0.29752237401E+03  0.74453919084E+02 0.  0.
          5    1    5    5  501    0  0.38626241337E+02  0.36768477843E+02  0.58153171193E+02  0.79042955426E+02  0.47000000000E+01 0. -1.
        -11    1    6    6    0    0 -0.80210848345E+02 -0.29455444445E+02  0.21574370994E+03  0.23204902883E+03  0.00000000000E+00 0.  1.
         12    1    6    6    0    0 -0.24934775336E+02  0.30258308414E+02  0.52435204591E+02  0.65473345184E+02  0.00000000000E+00 0. -1.
         -5    1    3    3    0  503  0.90482039826E+02  0.11302748292E+02 -0.26930313987E+03  0.28436072654E+03  0.47000000000E+01 0.  1.
         13    1    4    4    0    0 -0.23116838077E+01  0.21585744999E+02 -0.88562763740E+02  0.91184710289E+02  0.00000000000E+00 0. -1.
        -14    1    4    4    0    0 -0.21650973674E+02 -0.70459835103E+02 -0.27577985247E+03  0.28546082052E+03  0.00000000000E+00 0.  1.
</event>
<event>
12    1  0.8135779E-002  0.1958815E+03  0.7818608E-02  0.1153653E+00
         21   -1    0    0  503  502  0.00000000000E+00  0.00000000000E+00  0.21276816143E+03  0.21276816143E+03  0.00000000000E+00 0.  1.
         21   -1    0    0  501  503 -0.00000000000E+00 -0.00000000000E+00 -0.26653558487E+03  0.26653558487E+03  0.00000000000E+00 0.  1.
          6    2    1    2  501    0  0.33464069396E+02  0.88131472942E+02 -0.16438893788E+03  0.25434448513E+03  0.16964785220E+03 0.  0.
         24    2    3    3    0    0  0.86186787608E+02  0.60060202360E+02 -0.96751320167E+02  0.16398620616E+03  0.80593222991E+02 0.  0.
         -6    2    1    2    0  502 -0.33464069396E+02 -0.88131472942E+02  0.11062151444E+03  0.22495926118E+03  0.17170483183E+03 0.  0.
        -24    2    5    5    0    0  0.48754350530E+02 -0.44414841232E+02  0.51556054408E+02  0.11458792871E+03  0.78247695449E+02 0.  0.
          5    1    3    3  501    0 -0.52722718212E+02  0.28071270582E+02 -0.67637617708E+02  0.90358278963E+02  0.47000000000E+01 0. -1.
        -13    1    4    4    0    0  0.33254447700E+02  0.69989482640E+02 -0.67128372150E+02  0.10252123838E+03  0.00000000000E+00 0.  1.
         14    1    4    4    0    0  0.52932339909E+02 -0.99292802801E+01 -0.29622948017E+02  0.61464967781E+02  0.00000000000E+00 0. -1.
         -5    1    5    5    0  502 -0.82218419926E+02 -0.43716631710E+02  0.59065460027E+02  0.11037133247E+03  0.47000000000E+01 0.  1.
         11    1    6    6    0    0  0.23803317298E+02 -0.56827800617E+02  0.69642039627E+01  0.62004007727E+02  0.00000000000E+00 0. -1.
        -12    1    6    6    0    0  0.24951033232E+02  0.12412959385E+02  0.44591850445E+02  0.52583920985E+02  0.00000000000E+00 0.  1.
</event>
<event>
12    1  0.8135779E-002  0.1825036E+03  0.7818608E-02  0.1165410E+00
         21   -1    0    0  501  502  0.00000000000E+00  0.00000000000E+00  0.36909431756E+03  0.36909431756E+03  0.00000000000E+00 0. -1.
         21   -1    0    0  502  503 -0.00000000000E+00 -0.00000000000E+00 -0.91760658565E+02  0.91760658565E+02  0.00000000000E+00 0. -1.
         -6    2    1    2    0  503 -0.26659434731E+02  0.53058588074E+02  0.10884641751E+03  0.21246919217E+03  0.17253891094E+03 0.  0.
        -24    2    3    3    0    0 -0.63155083898E+02  0.41536861848E+02  0.12908025508E+03  0.16892403439E+03  0.78484021473E+02 0.  0.
          6    2    1    2  501    0  0.26659434731E+02 -0.53058588074E+02  0.16848724149E+03  0.24838578396E+03  0.17257348551E+03 0.  0.
         24    2    5    5    0    0 -0.49014605591E+02 -0.49550056946E+02  0.11329015055E+03  0.15453654838E+03  0.78671766671E+02 0.  0.
          5    1    5    5  501    0  0.75674040322E+02 -0.35085311284E+01  0.55197090941E+02  0.93849235573E+02  0.47000000000E+01 0. -1.
        -13    1    6    6    0    0 -0.42432085820E+02 -0.69029907156E+02  0.71938367009E+02  0.10835468904E+03  0.00000000000E+00 0.  1.
         14    1    6    6    0    0 -0.65825197713E+01  0.19479850210E+02  0.41351783537E+02  0.46181859344E+02  0.00000000000E+00 0. -1.
         -5    1    3    3    0  503  0.36495649167E+02  0.11521726226E+02 -0.20233837575E+02  0.43545157783E+02  0.47000000000E+01 0.  1.
         11    1    4    4    0    0 -0.90439734680E+01  0.16170205024E+02  0.10137203194E+03  0.10305123894E+03  0.00000000000E+00 0. -1.
        -12    1    4    4    0    0 -0.54111110430E+02  0.25366656824E+02  0.27708223140E+02  0.65872795446E+02  0.00000000000E+00 0.  1.
</event>
<event>
12    1  0.8135779E-002  0.2054409E+03  0.7818608E-02  0.1145600E+00
         21   -1    0    0  503  502  0.00000000000E+00  0.00000000000E+00  0.55570527825E+03  0.55570527825E+03  0.00000000000E+00 0.  1.
         21   -1    0    0  501  503 -0.00000000000E+00 -0.00000000000E+00 -0.76052219693E+02  0.76052219693E+02  0.00000000000E+00 0.  1.
          6    2    1    2  501    0 -0.10280919076E+03  0.39140651036E+02  0.27060493412E+03  0.33865842752E+03  0.17134987567E+03 0.  0.
         24    2    3    3    0    0 -0.10059036096E+03 -0.21072423705E+02  0.12048249142E+03  0.17682710985E+03  0.78672284071E+02 0.  0.
         -6    2    1    2    0  502  0.10280919076E+03 -0.39140651036E+02  0.20904812444E+03  0.29309907042E+03  0.17350569582E+03 0.  0.
        -24    2    5    5    0    0  0.40899705505E+01 -0.33898575045E+02  0.36638842822E+02  0.94302656503E+02  0.79904599186E+02 0.  0.
          5    1    3    3  501    0 -0.22188298001E+01  0.60213074740E+02  0.15012244270E+03  0.16183131766E+03  0.47000000000E+01 0. -1.
        -11    1    4    4    0    0 -0.66632472635E+02  0.49841745149E+01  0.23519700966E+02  0.70837170600E+02  0.00000000000E+00 0.  1.
         12    1    4    4    0    0 -0.33957888329E+02 -0.26056598219E+02  0.96962790453E+02  0.10598993925E+03  0.00000000000E+00 0. -1.
         -5    1    5    5    0  502  0.98719220213E+02 -0.52420759912E+01  0.17240928162E+03  0.19879641392E+03  0.47000000000E+01 0.  1.
         13    1    6    6    0    0 -0.34121280260E+02 -0.15727421630E+02 -0.11265404865E+01  0.37588331317E+02  0.00000000000E+00 0. -1.
        -14    1    6    6    0    0  0.38211250810E+02 -0.18171153415E+02  0.37765383309E+02  0.56714325187E+02  0.00000000000E+00 0.  1.
</event>
<event>
12    1  0.8135779E-002  0.2771425E+03  0.7818608E-02  0.1097988E+00
         21   -1    0    0  503  502  0.00000000000E+00  0.00000000000E+00  0.13013410684E+03  0.13013410684E+03  0.00000000000E+00 0.  1.
         21   -1    0    0  501  503 -0.00000000000E+00 -0.00000000000E+00 -0.60906857321E+03  0.60906857321E+03  0.00000000000E+00 0. -1.
          6    2    1    2  501    0 -0.55148975537E+02 -0.20365759496E+03 -0.31917295882E+03  0.41930943017E+03  0.17155522463E+03 0.  0.
         24    2    3    3    0    0 -0.14423192309E+02 -0.17438262127E+03 -0.15333719038E+03  0.24599120955E+03  0.79887759678E+02 0.  0.
         -6    2    1    2    0  502  0.55148975537E+02  0.20365759496E+03 -0.15976150754E+03  0.31989324988E+03  0.17969453675E+03 0.  0.
        -24    2    5    5    0    0 -0.34520371255E+02  0.10325139750E+03 -0.11443090187E+03  0.17777023959E+03  0.81580142577E+02 0.  0.
          5    1    3    3  501    0 -0.40725783229E+02 -0.29274973698E+02 -0.16583576844E+03  0.17331822062E+03  0.47000000000E+01 0. -1.
        -11    1    4    4    0    0  0.13222860181E+02 -0.88484591817E+01  0.34964192244E+01  0.16290003335E+02  0.00000000000E+00 0.  1.
         12    1    4    4    0    0 -0.27646052490E+02 -0.16553416208E+03 -0.15683360960E+03  0.22970120621E+03  0.00000000000E+00 0. -1.
         -5    1    5    5    0  502  0.89669346792E+02  0.10040619746E+03 -0.45330605670E+02  0.14212301029E+03  0.47000000000E+01 0.  1.
         13    1    6    6    0    0  0.15787796823E+02  0.58051596727E+02 -0.84704705550E+02  0.10389480042E+03  0.00000000000E+00 0. -1.
        -14    1    6    6    0    0 -0.50308168078E+02  0.45199800775E+02 -0.29726196324E+02  0.73875439176E+02  0.00000000000E+00 0.  1.
</event>
<event>
12    1  0.8135779E-002  0.1870219E+03  0.7818608E-02  0.1161287E+00
         21   -1    0    0  501  502  0.00000000000E+00  0.00000000000E+00  0.71998899713E+02  0.71998899713E+02  0.00000000000E+00 0.  1.
         21   -1    0    0  502  503 -0.00000000000E+00 -0.00000000000E+00 -0.74094894746E+03  0.74094894746E+03  0.00000000000E+00 0.  1.
         -6    2    1    2    0  503  0.70359695681E+02 -0.14717598089E+02 -0.57330364093E+03  0.60288729392E+03  0.17213056088E+03 0.  0.
        -24    2    3    3    0    0  0.78895416605E+02 -0.38736606388E+02 -0.22856134731E+03  0.25717193368E+03  0.78562730050E+02 0.  0.
          6    2    1    2  501    0 -0.70359695681E+02  0.14717598089E+02 -0.95646406818E+02  0.21006055326E+03  0.17265603502E+03 0.  0.
         24    2    5    5    0    0 -0.13124115608E+02  0.31766203911E+02  0.98709244447E+01  0.88723980935E+02  0.81198371426E+02 0.  0.
          5    1    5    5  501    0 -0.57235580072E+02 -0.17048605821E+02 -0.10551733126E+03  0.12133657232E+03  0.47000000000E+01 0. -1.
        -11    1    6    6    0    0 -0.46692696457E+02  0.20463947477E+02 -0.29231434953E+01  0.51063938515E+02  0.00000000000E+00 0.  1.
         12    1    6    6    0    0  0.33568580848E+02  0.11302256433E+02  0.12794067940E+02  0.37660042421E+02  0.00000000000E+00 0. -1.
         -5    1    3    3    0  503 -0.85357209242E+01  0.24019008299E+02 -0.34474229362E+03  0.34571536023E+03  0.47000000000E+01 0.  1.
         13    1    4    4    0    0 -0.80044192661E+01  0.14075076967E+02 -0.32223849678E+02  0.36063208502E+02  0.00000000000E+00 0. -1.
        -14    1    4    4    0    0  0.86899835871E+02 -0.52811683356E+02 -0.19633749764E+03  0.22110872518E+03  0.00000000000E+00 0.  1.
</event>
<event>
12    1  0.8135779E-002  0.1880343E+03  0.7818608E-02  0.1160298E+00
         21   -1    0    0  503  502  0.00000000000E+00  0.00000000000E+00  0.58658839262E+02  0.58658839262E+02  0.00000000000E+00 0.  1.
         21   -1    0    0  501  503 -0.00000000000E+00 -0.00000000000E+00 -0.74232196876E+03  0.74232196876E+03  0.00000000000E+00 0. -1.
          6    2    1    2  501    0 -0.68267217024E+02 -0.26617793679E+02 -0.16789560406E+03  0.25208301843E+03  0.17317042027E+03 0.  0.
         24    2    3    3    0    0  0.15275747406E+02  0.24632115299E+02 -0.44193437633E+02  0.94189712504E+02  0.77965071981E+02 0.  0.
         -6    2    1    2    0  502  0.68267217024E+02  0.26617793679E+02 -0.51576752544E+03  0.54889778959E+03  0.17292693043E+03 0.  0.
        -24    2    5    5    0    0 -0.29908319977E+02  0.59847371957E+01 -0.20174700432E+03  0.21920833455E+03  0.80125623251E+02 0.  0.
          5    1    3    3  501    0 -0.83542964430E+02 -0.51249908977E+02 -0.12370216643E+03  0.15789330592E+03  0.47000000000E+01 0. -1.
        -11    1    4    4    0    0 -0.11132575979E+02  0.19511518745E+02  0.16453162032E+02  0.27844930464E+02  0.00000000000E+00 0.  1.
         12    1    4    4    0    0  0.26408323386E+02  0.51205965537E+01 -0.60646599665E+02  0.66344782041E+02  0.00000000000E+00 0. -1.
         -5    1    5    5    0  502  0.98175537001E+02  0.20633056483E+02 -0.31402052112E+03  0.32968945505E+03  0.47000000000E+01 0.  1.
         13    1    6    6    0    0  0.16892008564E+02  0.28191905932E+02 -0.62053104395E+02  0.70219023622E+02  0.00000000000E+00 0. -1.
        -14    1    6    6    0    0 -0.46800328541E+02 -0.22207168736E+02 -0.13969389992E+03  0.14898931092E+03  0.00000000000E+00 0.  1.
</event>
<event>
12    1  0.8135779E-002  0.1816679E+03  0.7818608E-02  0.1167033E+00
         21   -1    0    0  503  502  0.00000000000E+00  0.00000000000E+00  0.10621984459E+03  0.10621984459E+03  0.00000000000E+00 0.  1.
         21   -1    0    0  501  503 -0.00000000000E+00 -0.00000000000E+00 -0.39833601012E+03  0.39833601012E+03  0.00000000000E+00 0.  1.
          6    2    1    2  501    0  0.40207519090E+02 -0.14352608108E+02 -0.26935624945E+03  0.32489383529E+03  0.17658021730E+03 0.  0.
         24    2    3    3    0    0  0.70114058758E+02 -0.37042099659E+01 -0.27320741772E+03  0.29257184595E+03  0.77629179693E+02 0.  0.
         -6    2    1    2    0  502 -0.40207519090E+02  0.14352608108E+02 -0.22759916084E+02  0.17966201942E+03  0.17302538973E+03 0.  0.
        -24    2    5    5    0    0 -0.30414121820E+02 -0.14322043907E+02  0.49746483724E+02  0.10093836153E+03  0.81140005161E+02 0.  0.
          5    1    3    3  501    0 -0.29906539668E+02 -0.10648398142E+02  0.38511682688E+01  0.32321989341E+02  0.47000000000E+01 0. -1.
        -13    1    4    4    0    0  0.66897720264E+02 -0.15414713435E+02 -0.11524243618E+03  0.13414073752E+03  0.00000000000E+00 0.  1.
         14    1    4    4    0    0  0.32163384947E+01  0.11710503469E+02 -0.15796498154E+03  0.15843110843E+03  0.00000000000E+00 0. -1.
         -5    1    5    5    0  502 -0.97933972701E+01  0.28674652016E+02 -0.72506399808E+02  0.78723657889E+02  0.47000000000E+01 0.  1.
         13    1    6    6    0    0  0.23300831897E+02 -0.82141546566E+01 -0.36246110214E+01  0.24970761079E+02  0.00000000000E+00 0. -1.
        -14    1    6    6    0    0 -0.53714953716E+02 -0.61078892506E+01  0.53371094746E+02  0.75967600450E+02  0.00000000000E+00 0.  1.
</event>
<event>
12    1  0.8135779E-002  0.4770873E+03  0.7818608E-02  0.1020001E+00
         21   -1    0    0  503  502  0.00000000000E+00  0.00000000000E+00  0.94554938296E+03  0.94554938296E+03  0.00000000000E+00 0. -1.
         21   -1    0    0  501  503 -0.00000000000E+00 -0.00000000000E+00 -0.64013298185E+03  0.64013298185E+03  0.00000000000E+00 0.  1.
          6    2    1    2  501    0  0.34597335725E+03 -0.27920851776E+03 -0.47397089810E+03  0.67186791129E+03  0.17059635885E+03 0.  0.
         24    2    3    3    0    0  0.26697105771E+03 -0.27955845734E+03 -0.41724063964E+03  0.57449287334E+03  0.80782630716E+02 0.  0.
         -6    2    1    2    0  502 -0.34597335725E+03  0.27920851776E+03  0.77938729922E+03  0.91381445352E+03  0.17308186783E+03 0.  0.
        -24    2    5    5    0    0 -0.25158821747E+03  0.26105695222E+03  0.53209118731E+03  0.64845528013E+03  0.76979576766E+02 0.  0.
          5    1    3    3  501    0  0.79002299544E+02  0.34993957249E+00 -0.56730258462E+02  0.97375037952E+02  0.47000000000E+01 0. -1.
        -11    1    4    4    0    0  0.91315999709E+02 -0.70974746722E+02 -0.79201049160E+02  0.14017429387E+03  0.00000000000E+00 0.  1.
         12    1    4    4    0    0  0.17565505800E+03 -0.20858371061E+03 -0.33803959048E+03  0.43431857946E+03  0.00000000000E+00 0. -1.
         -5    1    5    5    0  502 -0.94385139781E+02  0.18151565544E+02  0.24729611190E+03  0.26535917340E+03  0.47000000000E+01 0.  1.
         11    1    6    6    0    0 -0.16895959213E+03  0.18493544333E+03  0.42450272242E+03  0.49290062214E+03  0.00000000000E+00 0. -1.
        -12    1    6    6    0    0 -0.82628625343E+02  0.76121508891E+02  0.10758846489E+03  0.15555465798E+03  0.00000000000E+00 0.  1.
</event>
<event>
12    1  0.8135779E-002  0.1734372E+03  0.7818608E-02  0.1174533E+00
         21   -1    0    0  503  502  0.00000000000E+00  0.00000000000E+00  0.46850713231E+03  0.46850713231E+03  0.00000000000E+00 0. -1.
         21   -1    0    0  501  503 -0.00000000000E+00 -0.00000000000E+00 -0.18524568870E+03  0.18524568870E+03  0.00000000000E+00 0. -1.
          6    2    1    2  501    0 -0.17671657291E+02 -0.28338680527E+01 -0.12282481276E+03  0.21252389842E+03  0.17251131700E+03 0.  0.
         24    2    3    3    0    0 -0.33345729872E+02 -0.37135566476E+02 -0.11553420493E+02  0.94941179440E+02  0.79933460017E+02 0.  0.
         -6    2    1    2    0  502  0.17671657291E+02  0.28338680527E+01  0.40608625638E+03  0.44122892259E+03  0.17162924059E+03 0.  0.
        -24    2    5    5    0    0 -0.22172375059E+02  0.60362669955E+02  0.26018045655E+03  0.27934099102E+03  0.78754384979E+02 0.  0.
          5    1    3    3  501    0  0.15674072581E+02  0.34301698423E+02 -0.11127139227E+03  0.11758271898E+03  0.47000000000E+01 0. -1.
        -11    1    4    4    0    0 -0.24448029503E+02  0.11607657158E+02  0.22186722937E+02  0.34995635813E+02  0.00000000000E+00 0.  1.
         12    1    4    4    0    0 -0.88977003694E+01 -0.48743223634E+02 -0.33740143431E+02  0.59945543627E+02  0.00000000000E+00 0. -1.
         -5    1    5    5    0  502  0.39844032350E+02 -0.57528801903E+02  0.14590579983E+03  0.16188793157E+03  0.47000000000E+01 0.  1.
         13    1    6    6    0    0  0.21841464236E+02  0.36970133304E+01  0.24731133555E+02  0.33201602890E+02  0.00000000000E+00 0. -1.
        -14    1    6    6    0    0 -0.44013839295E+02  0.56665656625E+02  0.23544932300E+03  0.24613938813E+03  0.00000000000E+00 0.  1.
</event>
<event>
12    1  0.8135779E-002  0.1876107E+03  0.7818608E-02  0.1160659E+00
         21   -1    0    0  501  502  0.00000000000E+00  0.00000000000E+00  0.21850114812E+04  0.21850114812E+04  0.00000000000E+00 0.  1.
         21   -1    0    0  502  503 -0.00000000000E+00 -0.00000000000E+00 -0.25336000955E+02  0.25336000955E+02  0.00000000000E+00 0.  1.
         -6    2    1    2    0  503  0.64555291033E+02  0.40527182691E+02  0.41235648379E+03  0.45298541257E+03  0.17131280202E+03 0.  0.
        -24    2    3    3    0    0 -0.74298348140E+01  0.39214889732E+01  0.21069835992E+03  0.23570696430E+03  0.10532518040E+03 0.  0.
          6    2    1    2  501    0 -0.64555291033E+02 -0.40527182691E+02  0.17473189964E+04  0.17573620696E+04  0.17142908192E+03 0.  0.
         24    2    5    5    0    0 -0.70141246444E+02  0.34146165095E+02  0.10632611942E+04  0.10692018567E+04  0.81132535126E+02 0.  0.
          5    1    5    5  501    0  0.55859554111E+01 -0.74673347785E+02  0.68405780227E+03  0.68816021289E+03  0.47000000000E+01 0. -1.
        -13    1    6    6    0    0 -0.11790085480E+02 -0.47978023466E+01  0.64297308811E+03  0.64309907251E+03  0.00000000000E+00 0.  1.
         14    1    6    6    0    0 -0.58351160965E+02  0.38943967441E+02  0.42028810607E+03  0.42610278418E+03  0.00000000000E+00 0. -1.
         -5    1    3    3    0  503  0.71985125847E+02  0.36605693717E+02  0.20165812387E+03  0.21727844826E+03  0.47000000000E+01 0.  1.
         13    1    4    4    0    0  0.24108840648E+02 -0.35668179282E+02  0.44270467379E+02  0.61752161846E+02  0.00000000000E+00 0. -1.
        -14    1    4    4    0    0 -0.31538675462E+02  0.39589668255E+02  0.16642789254E+03  0.17395480246E+03  0.00000000000E+00 0.  1.
</event>
<event>
12    1  0.8135779E-002  0.1753139E+03  0.7818608E-02  0.1172798E+00
         21   -1    0    0  501  502  0.00000000000E+00  0.00000000000E+00  0.32475158447E+03  0.32475158447E+03  0.00000000000E+00 0.  1.
         21   -1    0    0  502  503 -0.00000000000E+00 -0.00000000000E+00 -0.11851938188E+03  0.11851938188E+03  0.00000000000E+00 0.  1.
         -6    2    1    2    0  503  0.58723986442E+01 -0.16720933508E+02  0.23045476349E+01  0.17532904446E+03  0.17441584850E+03 0.  0.
        -24    2    3    3    0    0 -0.32260567753E+02 -0.63075159143E+02 -0.17824840991E+02  0.11184582111E+03  0.84690866159E+02 0.  0.
          6    2    1    2  501    0 -0.58723986442E+01  0.16720933508E+02  0.20392765495E+03  0.26794192189E+03  0.17289392809E+03 0.  0.
         24    2    5    5    0    0 -0.19860857129E+01 -0.20358501599E+02  0.25676357426E+02  0.85772761481E+02  0.79241896479E+02 0.  0.
          5    1    5    5  501    0 -0.38863129313E+01  0.37079435107E+02  0.17825129753E+03  0.18216916041E+03  0.47000000000E+01 0. -1.
        -11    1    6    6    0    0 -0.21586231182E+02 -0.49251554944E+01 -0.22470933009E+02  0.31546241671E+02  0.00000000000E+00 0.  1.
         12    1    6    6    0    0  0.19600145469E+02 -0.15433346104E+02  0.48147290435E+02  0.54226519809E+02  0.00000000000E+00 0. -1.
         -5    1    3    3    0  503  0.38132966397E+02  0.46354225635E+02  0.20129388626E+02  0.63483223350E+02  0.47000000000E+01 0.  1.
         11    1    4    4    0    0  0.16840166528E+02 -0.42628348212E+02  0.16306574986E+02  0.48648449798E+02  0.00000000000E+00 0. -1.
        -12    1    4    4    0    0 -0.49100734281E+02 -0.20446810931E+02 -0.34131415977E+02  0.63197371312E+02  0.00000000000E+00 0.  1.
</event>
<event>
12    1  0.8135779E-002  0.2378402E+03  0.7818608E-02  0.1121401E+00
         21   -1    0    0  501  502  0.00000000000E+00  0.00000000000E+00  0.24282409171E+04  0.24282409171E+04  0.00000000000E+00 0. -1.
         21   -1    0    0  502  503 -0.00000000000E+00 -0.00000000000E+00 -0.23203528459E+02  0.23203528459E+02  0.00000000000E+00 0. -1.
         -6    2    1    2    0  503 -0.16132897842E+03 -0.24736652837E+02  0.11923484886E+04  0.12156522521E+04  0.17168732773E+03 0.  0.
        -24    2    3    3    0    0 -0.88711364457E+02 -0.65062552383E+01  0.34429350324E+03  0.36428569565E+03  0.79082325076E+02 0.  0.
          6    2    1    2  501    0  0.16132897842E+03  0.24736652837E+02  0.12126889001E+04  0.12357921935E+04  0.17300010362E+03 0.  0.
         24    2    5    5    0    0  0.12137249876E+02 -0.18647468672E+02  0.41875985175E+03  0.42678924069E+03  0.79336004488E+02 0.  0.
          5    1    5    5  501    0  0.14919172854E+03  0.43384121508E+02  0.79392904831E+03  0.80900295278E+03  0.47000000000E+01 0. -1.
        -13    1    6    6    0    0 -0.36108783266E+01  0.27221473344E+02  0.24006329391E+03  0.24162870719E+03  0.00000000000E+00 0.  1.
         14    1    6    6    0    0  0.15748128202E+02 -0.45868942016E+02  0.17869655784E+03  0.18516053350E+03  0.00000000000E+00 0. -1.
         -5    1    3    3    0  503 -0.72617613964E+02 -0.18230397598E+02  0.84805498534E+03  0.85136655644E+03  0.47000000000E+01 0.  1.
         11    1    4    4    0    0 -0.32118093038E+02 -0.44361669508E+01  0.26426566852E+03  0.26624724418E+03  0.00000000000E+00 0. -1.
        -12    1    4    4    0    0 -0.56593271419E+02 -0.20700882875E+01  0.80027834720E+02  0.98038451464E+02  0.00000000000E+00 0.  1.
</event>
<event>
12    1  0.8135779E-002  0.1919489E+03  0.7818608E-02  0.1156862E+00
         21   -1    0    0  503  502  0.00000000000E+00  0.00000000000E+00  0.10504097724E+04  0.10504097724E+04  0.00000000000E+00 0.  1.
         21   -1    0    0  501  503 -0.00000000000E+00 -0.00000000000E+00 -0.75021795806E+02  0.75021795806E+02  0.00000000000E+00 0.  1.
          6    2    1    2  501    0 -0.93982520504E+01  0.85118618396E+02  0.76078466642E+02  0.20586537207E+03  0.17105295084E+03 0.  0.
         24    2    3    3    0    0  0.29102835526E+02  0.73804547860E+02 -0.65559513180E+01  0.11388233576E+03  0.81437826470E+02 0.  0.
         -6    2    1    2    0  502  0.93982520504E+01 -0.85118618396E+02  0.89930950992E+03  0.91956619611E+03  0.17178733379E+03 0.  0.
        -24    2    5    5    0    0  0.46805524096E+02 -0.42148103834E+01  0.30438362657E+03  0.31798193199E+03  0.79085998989E+02 0.  0.
          5    1    3    3  501    0 -0.38501087576E+02  0.11314070536E+02  0.82634417960E+02  0.91983036307E+02  0.47000000000E+01 0. -1.
        -11    1    4    4    0    0  0.21427138098E+02 -0.59707912964E+01 -0.23078747892E+02  0.32053099695E+02  0.00000000000E+00 0.  1.
         12    1    4    4    0    0  0.76756974282E+01  0.79775339157E+02  0.16522796574E+02  0.81829236066E+02  0.00000000000E+00 0. -1.
         -5    1    5    5    0  502 -0.37407272045E+02 -0.80903808013E+02  0.59492588336E+03  0.60158426412E+03  0.47000000000E+01 0.  1.
         11    1    6    6    0    0  0.24430780609E+02 -0.37315482513E+02  0.96702889316E+02  0.10649299075E+03  0.00000000000E+00 0. -1.
        -12    1    6    6    0    0  0.22374743486E+02  0.33100672130E+02  0.20768073725E+03  0.21148894124E+03  0.00000000000E+00 0.  1.
</event>
<event>
12    1  0.8135779E-002  0.1876474E+03  0.7818608E-02  0.1160692E+00
         21   -1    0    0  501  502  0.00000000000E+00  0.00000000000E+00  0.78084181165E+03  0.78084181165E+03  0.00000000000E+00 0.  1.
         21   -1    0    0  502  503 -0.00000000000E+00 -0.00000000000E+00 -0.18540780949E+03  0.18540780949E+03  0.00000000000E+00 0.  1.
         -6    2    1    2    0  503  0.33703387091E+02  0.65265371083E+02 -0.12279021327E+03  0.22391710832E+03  0.17223805606E+03 0.  0.
        -24    2    3    3    0    0  0.31576022881E+02  0.10726160837E+03 -0.64739046135E+02  0.15208231431E+03  0.80223365551E+02 0.  0.
          6    2    1    2  501    0 -0.33703387091E+02 -0.65265371083E+02  0.71822421542E+03  0.74233251283E+03  0.17267324348E+03 0.  0.
         24    2    5    5    0    0  0.70424137488E+01 -0.20013817979E+02  0.62764231939E+03  0.63308466052E+03  0.80069705849E+02 0.  0.
          5    1    5    5  501    0 -0.40745800840E+02 -0.45251553104E+02  0.90581896034E+02  0.10924785231E+03  0.47000000000E+01 0. -1.
        -13    1    6    6    0    0 -0.29350664547E+02  0.95393815596E+01  0.36404713902E+03  0.36535295365E+03  0.00000000000E+00 0.  1.
         14    1    6    6    0    0  0.36393078296E+02 -0.29553199539E+02  0.26359518037E+03  0.26773170687E+03  0.00000000000E+00 0. -1.
         -5    1    3    3    0  503  0.21273642106E+01 -0.41996237282E+02 -0.58051167137E+02  0.71834794009E+02  0.47000000000E+01 0.  1.
         13    1    4    4    0    0  0.52160166485E+02  0.49159889440E+02 -0.15847867169E+02  0.73406624982E+02  0.00000000000E+00 0. -1.
        -14    1    4    4    0    0 -0.20584143604E+02  0.58101718925E+02 -0.48891178967E+02  0.78675689325E+02  0.00000000000E+00 0.  1.
</event>
<event>
12    1  0.8135779E-002  0.2080819E+03  0.7818608E-02  0.1143681E+00
         21   -1    0    0  503  502  0.00000000000E+00  0.00000000000E+00  0.14972443962E+03  0.14972443962E+03  0.00000000000E+00 0. -1.
         21   -1    0    0  501  503 -0.00000000000E+00 -0.00000000000E+00 -0.29062112863E+03  0.29062112863E+03  0.00000000000E+00 0.  1.
          6    2    1    2  501    0  0.11655675887E+03  0.22304809485E+02 -0.10014459543E+03  0.22831062018E+03  0.16737328559E+03 0.  0.
         24    2    3    3    0    0  0.90244322024E+02  0.69526557257E+02 -0.10363954275E+03  0.17393652293E+03  0.80837982194E+02 0.  0.
         -6    2    1    2    0  502 -0.11655675887E+03 -0.22304809485E+02 -0.40752093575E+02  0.21203494807E+03  0.17092426248E+03 0.  0.
        -24    2    5    5    0    0 -0.91105748276E+02 -0.48948164220E+02  0.28843820041E+02  0.13314703084E+03  0.78739988047E+02 0.  0.
          5    1    3    3  501    0  0.26312436850E+02 -0.47221747772E+02  0.34949473212E+01  0.54374097256E+02  0.47000000000E+01 0. -1.
        -11    1    4    4    0    0  0.56697166054E+02 -0.16731225648E+01 -0.64958865680E+02  0.86238171410E+02  0.00000000000E+00 0.  1.
         12    1    4    4    0    0  0.33547155969E+02  0.71199679822E+02 -0.38680677070E+02  0.87698351518E+02  0.00000000000E+00 0. -1.
         -5    1    5    5    0  502 -0.25451010598E+02  0.26643354736E+02 -0.69595913616E+02  0.78887917225E+02  0.47000000000E+01 0.  1.
         13    1    6    6    0    0  0.13191578942E+01 -0.35992573102E+02  0.21722312509E+01  0.36082185143E+02  0.00000000000E+00 0. -1.
        -14    1    6    6    0    0 -0.92424906170E+02 -0.12955591118E+02  0.26671588790E+02  0.97064845698E+02  0.00000000000E+00 0.  1.
</event>
<event>
12    1  0.8135779E-002  0.2034742E+03  0.7818608E-02  0.1146967E+00
         21   -1    0    0  501  502  0.00000000000E+00  0.00000000000E+00  0.23953581497E+03  0.23953581497E+03  0.00000000000E+00 0. -1.
         21   -1    0    0  502  503 -0.00000000000E+00 -0.00000000000E+00 -0.18710216222E+03  0.18710216222E+03  0.00000000000E+00 0. -1.
         -6    2    1    2    0  503  0.28968798974E+02  0.10318142931E+03 -0.33774926160E+02  0.20565452002E+03  0.17224237951E+03 0.  0.
        -24    2    3    3    0    0  0.47547995283E+02  0.21477423880E+02  0.29664122094E+02  0.10045312325E+03  0.80552953010E+02 0.  0.
          6    2    1    2  501    0 -0.28968798974E+02 -0.10318142931E+03  0.86208578913E+02  0.22098345718E+03  0.17296291683E+03 0.  0.
         24    2    5    5    0    0 -0.49790218627E+02 -0.11767630151E+02  0.47274571585E+01  0.96680289895E+02  0.81897415177E+02 0.  0.
          5    1    5    5  501    0  0.20821419653E+02 -0.91413799162E+02  0.81481121755E+02  0.12430316728E+03  0.47000000000E+01 0. -1.
        -13    1    6    6    0    0 -0.31694117910E+01  0.29038238676E+02 -0.13383754310E+02  0.32130816298E+02  0.00000000000E+00 0.  1.
         14    1    6    6    0    0 -0.46620806836E+02 -0.40805868827E+02  0.18111211469E+02  0.64549473597E+02  0.00000000000E+00 0. -1.
         -5    1    3    3    0  503 -0.18579196309E+02  0.81704005433E+02 -0.63439048255E+02  0.10520139677E+03  0.47000000000E+01 0.  1.
         13    1    4    4    0    0  0.18889530496E+02  0.44721652252E+02  0.39135290647E+02  0.62357128835E+02  0.00000000000E+00 0. -1.
        -14    1    4    4    0    0  0.28658464787E+02 -0.23244228372E+02 -0.94711685529E+01  0.38095994413E+02  0.00000000000E+00 0.  1.
</event>
<event>
12    1  0.8135779E-002  0.3951037E+03  0.7818608E-02  0.1045550E+00
         21   -1    0    0  503  502  0.00000000000E+00  0.00000000000E+00  0.54854932802E+03  0.54854932802E+03  0.00000000000E+00 0.  1.
         21   -1    0    0  501  503 -0.00000000000E+00 -0.00000000000E+00 -0.30968498817E+03  0.30968498817E+03  0.00000000000E+00 0.  1.
          6    2    1    2  501    0  0.35394777230E+03  0.35108522202E+02 -0.38699072359E+01  0.39512262944E+03  0.17203279417E+03 0.  0.
         24    2    3    3    0    0  0.20880969534E+03  0.15842340379E+02  0.64991784231E+02  0.23325765579E+03  0.79578472899E+02 0.  0.
         -6    2    1    2    0  502 -0.35394777230E+03 -0.35108522202E+02  0.24273424709E+03  0.46311168675E+03  0.17041386637E+03 0.  0.
        -24    2    5    5    0    0 -0.20283466134E+03  0.46546205471E+02  0.14074172327E+03  0.26329369014E+03  0.78783789670E+02 0.  0.
          5    1    3    3  501    0  0.14513807696E+03  0.19266181822E+02 -0.68861691467E+02  0.16186497365E+03  0.47000000000E+01 0. -1.
        -11    1    4    4    0    0  0.17909169522E+03  0.39277073958E+02  0.67377336966E+02  0.19533619576E+03  0.00000000000E+00 0.  1.
         12    1    4    4    0    0  0.29718000118E+02 -0.23434733579E+02 -0.23855527354E+01  0.37921460030E+02  0.00000000000E+00 0. -1.
         -5    1    5    5    0  502 -0.15111311095E+03 -0.81654727673E+02  0.10199252382E+03  0.19981799661E+03  0.47000000000E+01 0.  1.
         13    1    6    6    0    0 -0.11763169938E+03  0.65069122816E+02  0.73702268225E+02  0.15330763773E+03  0.00000000000E+00 0. -1.
        -14    1    6    6    0    0 -0.85202961959E+02 -0.18522917345E+02  0.67039455041E+02  0.10998605241E+03  0.00000000000E+00 0.  1.
</event>
<event>
12    1  0.8135779E-002  0.1951326E+03  0.7818608E-02  0.1154161E+00
         21   -1    0    0  503  502  0.00000000000E+00  0.00000000000E+00  0.47695318345E+03  0.47695318345E+03  0.00000000000E+00 0.  1.
         21   -1    0    0  501  503 -0.00000000000E+00 -0.00000000000E+00 -0.16770699356E+03  0.16770699356E+03  0.00000000000E+00 0. -1.
          6    2    1    2  501    0 -0.38542983569E+02  0.81711207053E+02 -0.79530279043E+02  0.20966145731E+03  0.17166996958E+03 0.  0.
         24    2    3    3    0    0 -0.62503419974E+02  0.45383296863E+02  0.70369740107E+01  0.11265733950E+03  0.81705789246E+02 0.  0.
         -6    2    1    2    0  502  0.38542983569E+02 -0.81711207053E+02  0.38877646893E+03  0.43499871970E+03  0.17295797296E+03 0.  0.
        -24    2    5    5    0    0 -0.31704465215E+02 -0.42021480099E-01  0.15004554921E+03  0.17304623935E+03  0.80163328499E+02 0.  0.
          5    1    3    3  501    0  0.23960436405E+02  0.36327910190E+02 -0.86567253053E+02  0.97004117813E+02  0.47000000000E+01 0. -1.
        -13    1    4    4    0    0 -0.27425474178E+02  0.62564066677E+02  0.20535632515E+02  0.71331138193E+02  0.00000000000E+00 0.  1.
         14    1    4    4    0    0 -0.35077945796E+02 -0.17180769814E+02 -0.13498658504E+02  0.41326201303E+02  0.00000000000E+00 0. -1.
         -5    1    5    5    0  502  0.70247448784E+02 -0.81669185573E+02  0.23873091972E+03  0.26195248035E+03  0.47000000000E+01 0.  1.
         11    1    6    6    0    0  0.12541551953E+02  0.19993410919E+02  0.11540879007E+02  0.26272017315E+02  0.00000000000E+00 0. -1.
        -12    1    6    6    0    0 -0.44246017168E+02 -0.20035432399E+02  0.13850467020E+03  0.14677422204E+03  0.00000000000E+00 0.  1.
</event>
<event>
12    1  0.8135779E-002  0.2939588E+03  0.7818608E-02  0.1088309E+00
         21   -1    0    0  503  502  0.00000000000E+00  0.00000000000E+00  0.13004263212E+04  0.13004263212E+04  0.00000000000E+00 0. -1.
         21   -1    0    0  501  503 -0.00000000000E+00 -0.00000000000E+00 -0.82133211813E+02  0.82133211813E+02  0.00000000000E+00 0.  1.
          6    2    1    2  501    0  0.21625617999E+03 -0.10020693177E+03  0.30686003666E+03  0.42489464545E+03  0.17194247024E+03 0.  0.
         24    2    3    3    0    0  0.21193339622E+03 -0.42105435786E+02  0.27297896021E+03  0.35733365347E+03  0.80505869529E+02 0.  0.
         -6    2    1    2    0  502 -0.21625617999E+03  0.10020693177E+03  0.91143307272E+03  0.95766488756E+03  0.17205704359E+03 0.  0.
        -24    2    5    5    0    0 -0.73061003954E+02  0.10504718056E+03  0.43561804025E+03  0.46072392369E+03  0.78298380712E+02 0.  0.
          5    1    3    3  501    0  0.43227837718E+01 -0.58101495988E+02  0.33881076446E+02  0.67560991975E+02  0.47000000000E+01 0. -1.
        -13    1    4    4    0    0  0.75312156971E+02  0.22999836260E+02  0.10476308577E+03  0.13105806955E+03  0.00000000000E+00 0.  1.
         14    1    4    4    0    0  0.13662123925E+03 -0.65105272046E+02  0.16821587444E+03  0.22627558392E+03  0.00000000000E+00 0. -1.
         -5    1    5    5    0  502 -0.14319517604E+03 -0.48402487831E+01  0.47581503247E+03  0.49694096387E+03  0.47000000000E+01 0.  1.
         11    1    6    6    0    0 -0.52859482143E+02  0.66321442788E+02  0.38329775252E+03  0.39256824339E+03  0.00000000000E+00 0. -1.
        -12    1    6    6    0    0 -0.20201521811E+02  0.38725737769E+02  0.52320287732E+02  0.68155680303E+02  0.00000000000E+00 0.  1.
</event>
<event>
12    1  0.8135779E-002  0.1776435E+03  0.7818608E-02  0.1171030E+00
         21   -1    0    0  501  502  0.00000000000E+00  0.00000000000E+00  0.11406901942E+03  0.11406901942E+03  0.00000000000E+00 0.  1.
         21   -1    0    0  502  503 -0.00000000000E+00 -0.00000000000E+00 -0.27344620906E+03  0.27344620906E+03  0.00000000000E+00 0.  1.
         -6    2    1    2    0  503 -0.31611735284E+02 -0.24872814707E+02 -0.60100512584E+02  0.18401323754E+03  0.16920650477E+03 0.  0.
        -24    2    3    3    0    0 -0.11615610969E+02 -0.75660006517E+02 -0.12319246943E+02  0.11131988719E+03  0.79881126891E+02 0.  0.
          6    2    1    2  501    0  0.31611735284E+02  0.24872814707E+02 -0.99276677050E+02  0.20350199094E+03  0.17302960149E+03 0.  0.
         24    2    5    5    0    0  0.45051206250E+02 -0.27433432233E+02 -0.11296777999E+03  0.14759046128E+03  0.78987470884E+02 0.  0.
          5    1    5    5  501    0 -0.13439470966E+02  0.52306246941E+02  0.13691102941E+02  0.55911529657E+02  0.47000000000E+01 0. -1.
        -13    1    6    6    0    0  0.15185217980E+01 -0.25494076698E+02  0.10177119950E+01  0.25559530372E+02  0.00000000000E+00 0.  1.
         14    1    6    6    0    0  0.43532684452E+02 -0.19393555355E+01 -0.11398549199E+03  0.12203093091E+03  0.00000000000E+00 0. -1.
         -5    1    3    3    0  503 -0.19996124315E+02  0.50787191810E+02 -0.47781265641E+02  0.72693350355E+02  0.47000000000E+01 0.  1.
         13    1    4    4    0    0 -0.35899860914E+02 -0.66925842049E+01  0.29053585614E+01  0.36633752270E+02  0.00000000000E+00 0. -1.
        -14    1    4    4    0    0  0.24284249946E+02 -0.68967422312E+02 -0.15224605504E+02  0.74686134915E+02  0.00000000000E+00 0.  1.
</event>
<event>
12    1  0.8135779E-002  0.1843472E+03  0.7818608E-02  0.1164432E+00
         21   -1    0    0  501  502  0.00000000000E+00  0.00000000000E+00  0.76510023575E+02  0.76510023575E+02  0.00000000000E+00 0.  1.
         21   -1    0    0  502  503 -0.00000000000E+00 -0.00000000000E+00 -0.46807485098E+03  0.46807485098E+03  0.00000000000E+00 0.  1.
         -6    2    1    2    0  503 -0.33071798412E+02 -0.46879474443E+02 -0.12654189846E+03  0.22359949871E+03  0.17519262195E+03 0.  0.
        -24    2    3    3    0    0 -0.56790503637E+02 -0.39584785316E+02 -0.10593975481E+02  0.10493273711E+03  0.78144292615E+02 0.  0.
          6    2    1    2  501    0  0.33071798412E+02  0.46879474443E+02 -0.26502292895E+03  0.32098537585E+03  0.17176445984E+03 0.  0.
         24    2    5    5    0    0  0.79226758501E+02  0.27336640508E+02 -0.11700548327E+03  0.16464134199E+03  0.79951968068E+02 0.  0.
          5    1    5    5  501    0 -0.46154960089E+02  0.19542833936E+02 -0.14801744568E+03  0.15634403386E+03  0.47000000000E+01 0. -1.
        -11    1    6    6    0    0 -0.12370974753E+02  0.95288116058E+00 -0.40671633865E+02  0.42522121303E+02  0.00000000000E+00 0.  1.
         12    1    6    6    0    0  0.91597733254E+02  0.26383759347E+02 -0.76333849410E+02  0.12211922068E+03  0.00000000000E+00 0. -1.
         -5    1    3    3    0  503  0.23718705225E+02 -0.72946891278E+01 -0.11594792298E+03  0.11866676160E+03  0.47000000000E+01 0.  1.
         13    1    4    4    0    0  0.11126152251E+02 -0.59508446399E+01 -0.24799043304E+02  0.27824384353E+02  0.00000000000E+00 0. -1.
        -14    1    4    4    0    0 -0.67916655889E+02 -0.33633940676E+02  0.14205067823E+02  0.77108352753E+02  0.00000000000E+00 0.  1.
</event>
<event>
12    1  0.8135779E-002  0.2633004E+03  0.7818608E-02  0.1105371E+00
         21   -1    0    0  503  502  0.00000000000E+00  0.00000000000E+00  0.23806119936E+03  0.23806119936E+03  0.00000000000E+00 0. -1.
         21   -1    0    0  501  503 -0.00000000000E+00 -0.00000000000E+00 -0.30870904340E+03  0.30870904340E+03  0.00000000000E+00 0.  1.
          6    2    1    2  501    0 -0.19605053438E+03  0.27646707091E+02 -0.10296566558E+03  0.28149392677E+03  0.17157141393E+03 0.  0.
         24    2    3    3    0    0 -0.17683695918E+03 -0.16881103303E+02 -0.12302728995E+03  0.22880193362E+03  0.75221865006E+02 0.  0.
         -6    2    1    2    0  502  0.19605053438E+03 -0.27646707091E+02  0.32317821542E+02  0.26527631600E+03  0.17357110876E+03 0.  0.
        -24    2    5    5    0    0  0.16664804106E+03  0.12248760714E+02  0.74928428620E+02  0.19974839217E+03  0.79771856146E+02 0.  0.
          5    1    3    3  501    0 -0.19213575196E+02  0.44527810393E+02  0.20061624366E+02  0.52691993153E+02  0.47000000000E+01 0. -1.
        -13    1    4    4    0    0 -0.10717918209E+03 -0.44169726315E+02 -0.57739146357E+02  0.12950733886E+03  0.00000000000E+00 0.  1.
         14    1    4    4    0    0 -0.69657777090E+02  0.27288623012E+02 -0.65288143590E+02  0.99294594759E+02  0.00000000000E+00 0. -1.
         -5    1    5    5    0  502  0.29402493321E+02 -0.39895467805E+02 -0.42610607078E+02  0.65527923822E+02  0.47000000000E+01 0.  1.
         11    1    6    6    0    0  0.70726317793E+02  0.42194097427E+02  0.49522855354E+02  0.96099256442E+02  0.00000000000E+00 0. -1.
        -12    1    6    6    0    0  0.95921723264E+02 -0.29945336713E+02  0.25405573266E+02  0.10364913573E+03  0.00000000000E+00 0.  1.
</event>
<event>
12    1  0.8135779E-002  0.1801034E+03  0.7818608E-02  0.1168595E+00
         21   -1    0    0  501  502  0.00000000000E+00  0.00000000000E+00  0.42686488934E+02  0.42686488934E+02  0.00000000000E+00 0. -1.
         21   -1    0    0  502  503 -0.00000000000E+00 -0.00000000000E+00 -0.74770300188E+03  0.74770300188E+03  0.00000000000E+00 0. -1.
         -6    2    1    2    0  503 -0.85446153772E+01  0.42217143892E+02 -0.32333093785E+03  0.36834551675E+03  0.17111465937E+03 0.  0.
        -24    2    3    3    0    0 -0.26847707191E+02 -0.11495228557E+02 -0.29041879089E+03  0.30257833997E+03  0.79734798298E+02 0.  0.
          6    2    1    2  501    0  0.85446153772E+01 -0.42217143892E+02 -0.38168557509E+03  0.42204397406E+03  0.17487692848E+03 0.  0.
         24    2    5    5    0    0  0.37411162608E+02 -0.89302194031E+02 -0.26118032759E+03  0.28940203434E+03  0.78510489838E+02 0.  0.
          5    1    5    5  501    0 -0.28866547230E+02  0.47085050139E+02 -0.12050524750E+03  0.13264193971E+03  0.47000000000E+01 0. -1.
        -13    1    6    6    0    0  0.21985182026E+02  0.19379249858E+01 -0.10966943861E+03  0.11186817933E+03  0.00000000000E+00 0.  1.
         14    1    6    6    0    0  0.15425980582E+02 -0.91240119017E+02 -0.15151088898E+03  0.17753385501E+03  0.00000000000E+00 0. -1.
         -5    1    3    3    0  503  0.18303091814E+02  0.53712372449E+02 -0.32912146962E+02  0.65767176780E+02  0.47000000000E+01 0.  1.
         11    1    4    4    0    0 -0.79747093386E+01  0.31020737907E+02 -0.65649558707E+02  0.73046195847E+02  0.00000000000E+00 0. -1.
        -12    1    4    4    0    0 -0.18872997852E+02 -0.42515966464E+02 -0.22476923218E+03  0.22953214413E+03  0.00000000000E+00 0.  1.
</event>
<event>
12    1  0.8135779E-002  0.2641743E+03  0.7818608E-02  0.1105442E+00
         21   -1    0    0  503  502  0.00000000000E+00  0.00000000000E+00  0.60344518901E+02  0.60344518901E+02  0.00000000000E+00 0. -1.
         21   -1    0    0  501  503 -0.00000000000E+00 -0.00000000000E+00 -0.12270864953E+04  0.12270864953E+04  0.00000000000E+00 0. -1.
          6    2    1    2  501    0 -0.19314332262E+03  0.12786323713E+02 -0.76641712336E+03  0.81066839188E+03  0.17977820077E+03 0.  0.
         24    2    3    3    0    0 -0.61951988193E+02  0.67672024960E+02 -0.35670811118E+03  0.37695515587E+03  0.80230674643E+02 0.  0.
         -6    2    1    2    0  502  0.19314332262E+03 -0.12786323713E+02 -0.40032485303E+03  0.47676262231E+03  0.17197318666E+03 0.  0.
        -24    2    5    5    0    0  0.21838131810E+03 -0.96711336546E+01 -0.36783640977E+03  0.43523853568E+03  0.79655681944E+02 0.  0.
          5    1    3    3  501    0 -0.13119133443E+03 -0.54885701247E+02 -0.40970901218E+03  0.43371323602E+03  0.47000000000E+01 0. -1.
        -11    1    4    4    0    0 -0.77574471606E+01 -0.11273536330E+02 -0.13182864059E+03  0.13253701780E+03  0.00000000000E+00 0.  1.
         12    1    4    4    0    0 -0.54194541033E+02  0.78945561289E+02 -0.22487947058E+03  0.24441813807E+03  0.00000000000E+00 0. -1.
         -5    1    5    5    0  502 -0.25237995478E+02 -0.31151900580E+01 -0.32488443256E+02  0.41524086625E+02  0.47000000000E+01 0.  1.
         13    1    6    6    0    0  0.14697751473E+03  0.29075474422E+02 -0.21348607648E+03  0.26081425938E+03  0.00000000000E+00 0. -1.
        -14    1    6    6    0    0  0.71403803376E+02 -0.38746608077E+02 -0.15435033329E+03  0.17442427630E+03  0.00000000000E+00 0.  1.
</event>
<event>
12    1  0.8135779E-002  0.1827205E+03  0.7818608E-02  0.1165199E+00
         21   -1    0    0  503  502  0.00000000000E+00  0.00000000000E+00  0.83673476715E+02  0.83673476715E+02  0.00000000000E+00 0.  1.
         21   -1    0    0  501  503 -0.00000000000E+00 -0.00000000000E+00 -0.43746832876E+03  0.43746832876E+03  0.00000000000E+00 0.  1.
          6    2    1    2  501    0  0.51480840708E+02 -0.35002184330E+02 -0.25417950778E+03  0.31303129212E+03  0.17177292511E+03 0.  0.
         24    2    3    3    0    0  0.77969490333E+02  0.24104793097E+02 -0.19072039959E+03  0.22223243887E+03  0.79703849287E+02 0.  0.
         -6    2    1    2    0  502 -0.51480840708E+02  0.35002184330E+02 -0.99615344264E+02  0.20811051336E+03  0.17178864657E+03 0.  0.
        -24    2    5    5    0    0 -0.40939003093E+01  0.71315892231E+02 -0.15373524165E+02  0.10475200256E+03  0.75059445039E+02 0.  0.
          5    1    3    3  501    0 -0.26488649625E+02 -0.59106977427E+02 -0.63459108191E+02  0.90798853252E+02  0.47000000000E+01 0. -1.
        -13    1    4    4    0    0  0.38097121480E+02 -0.25374904256E+02 -0.11248152686E+03  0.12143875130E+03  0.00000000000E+00 0.  1.
         14    1    4    4    0    0  0.39872368853E+02  0.49479697353E+02 -0.78238872728E+02  0.10079368757E+03  0.00000000000E+00 0. -1.
         -5    1    5    5    0  502 -0.47386940399E+02 -0.36313707902E+02 -0.84241820099E+02  0.10335851080E+03  0.47000000000E+01 0.  1.
         13    1    6    6    0    0 -0.22945341429E+02  0.38297327381E+02 -0.39592971888E+02  0.59672249838E+02  0.00000000000E+00 0. -1.
        -14    1    6    6    0    0  0.18851441119E+02  0.33018564850E+02  0.24219447723E+02  0.45079752717E+02  0.00000000000E+00 0.  1.
</event>
<event>
12    1  0.8135779E-002  0.3129181E+03  0.7818608E-02  0.1079116E+00
         21   -1    0    0  503  502  0.00000000000E+00  0.00000000000E+00  0.25789703582E+03  0.25789703582E+03  0.00000000000E+00 0.  1.
         21   -1    0    0  501  503 -0.00000000000E+00 -0.00000000000E+00 -0.38058476794E+03  0.38058476794E+03  0.00000000000E+00 0. -1.
          6    2    1    2  501    0 -0.34058849432E+02  0.25796353546E+03 -0.35389069411E+02  0.31491290704E+03  0.17381761113E+03 0.  0.
         24    2    3    3    0    0 -0.46824822965E+02  0.26718647731E+03 -0.55961652285E+02  0.28858129291E+03  0.81032576068E+02 0.  0.
         -6    2    1    2    0  502  0.34058849432E+02 -0.25796353546E+03 -0.87298662710E+02  0.32356889672E+03  0.17137848045E+03 0.  0.
        -24    2    5    5    0    0  0.23775198058E+02 -0.38682960921E+02 -0.30521824156E+02  0.96775106567E+02  0.79826110972E+02 0.  0.
          5    1    3    3  501    0  0.12765973533E+02 -0.92229418584E+01  0.20572582875E+02  0.26331614134E+02  0.47000000000E+01 0. -1.
        -13    1    4    4    0    0 -0.37480419907E+02  0.42668701605E+02  0.84945271878E+00  0.56798957235E+02  0.00000000000E+00 0.  1.
         14    1    4    4    0    0 -0.93444030582E+01  0.22451777571E+03 -0.56811105004E+02  0.23178233567E+03  0.00000000000E+00 0. -1.
         -5    1    5    5    0  502  0.10283651374E+02 -0.21928057453E+03 -0.56776838554E+02  0.22679379015E+03  0.47000000000E+01 0.  1.
         13    1    6    6    0    0  0.27073613006E+02 -0.92192862181E+01  0.22256370729E+02  0.36239781975E+02  0.00000000000E+00 0. -1.
        -14    1    6    6    0    0 -0.32984149477E+01 -0.29463674703E+02 -0.52778194885E+02  0.60535324592E+02  0.00000000000E+00 0.  1.
</event>
<event>
12    1  0.8135779E-002  0.2067999E+03  0.7818608E-02  0.1144262E+00
         21   -1    0    0  503  502  0.00000000000E+00  0.00000000000E+00  0.50445979864E+03  0.50445979864E+03  0.00000000000E+00 0.  1.
         21   -1    0    0  501  503 -0.00000000000E+00 -0.00000000000E+00 -0.10338908867E+03  0.10338908867E+03  0.00000000000E+00 0. -1.
          6    2    1    2  501    0  0.10121436106E+03 -0.53040021003E+02  0.70358470869E+02  0.21780174667E+03  0.17155085461E+03 0.  0.
         24    2    3    3    0    0 -0.16714859604E+01 -0.55196695029E+02  0.10615275324E+02  0.98715693024E+02  0.81133439294E+02 0.  0.
         -6    2    1    2    0  502 -0.10121436106E+03  0.53040021003E+02  0.33071223909E+03  0.39004714064E+03  0.17236181748E+03 0.  0.
        -24    2    5    5    0    0 -0.22042275279E+02 -0.28388420397E+02  0.10841210721E+03  0.14037085248E+03  0.81602861003E+02 0.  0.
          5    1    3    3  501    0  0.10288584702E+03  0.21566740253E+01  0.59743195546E+02  0.11908605365E+03  0.47000000000E+01 0. -1.
        -13    1    4    4    0    0  0.14777504416E+02 -0.30912275890E+02  0.43027210757E+02  0.55002584512E+02  0.00000000000E+00 0.  1.
         14    1    4    4    0    0 -0.16448990377E+02 -0.24284419139E+02 -0.32411935433E+02  0.43713108512E+02  0.00000000000E+00 0. -1.
         -5    1    5    5    0  502 -0.79172085777E+02  0.81428441400E+02  0.22230013188E+03  0.24967628816E+03  0.47000000000E+01 0.  1.
         11    1    6    6    0    0 -0.33486027491E+02 -0.26576803796E+02  0.11788980826E+03  0.12540194348E+03  0.00000000000E+00 0. -1.
        -12    1    6    6    0    0  0.11443752211E+02 -0.18116166009E+01 -0.94777010510E+01  0.14968908998E+02  0.00000000000E+00 0.  1.
</event>
<event>
12    1  0.8135779E-002  0.2024111E+03  0.7818608E-02  0.1148414E+00
         21   -1    0    0  503  502  0.00000000000E+00  0.00000000000E+00  0.72079472492E+02  0.72079472492E+02  0.00000000000E+00 0. -1.
         21   -1    0    0  501  503 -0.00000000000E+00 -0.00000000000E+00 -0.69029143980E+03  0.69029143980E+03  0.00000000000E+00 0. -1.
          6    2    1    2  501    0  0.22150851667E+02  0.10366940740E+03 -0.47318259459E+03  0.51336535499E+03  0.16853549662E+03 0.  0.
         24    2    3    3    0    0  0.32029051184E+02  0.12771750523E+03 -0.29184828714E+03  0.33011658721E+03  0.80398489923E+02 0.  0.
         -6    2    1    2    0  502 -0.22150851667E+02 -0.10366940740E+03 -0.14502937272E+03  0.24900555730E+03  0.17243039858E+03 0.  0.
        -24    2    5    5    0    0 -0.45306052247E+02  0.44952246984E+01 -0.11086675871E+03  0.13313957805E+03  0.57981580193E+02 0.  0.
          5    1    3    3  501    0 -0.98781995165E+01 -0.24048097828E+02 -0.18133430745E+03  0.18324876778E+03  0.47000000000E+01 0. -1.
        -11    1    4    4    0    0  0.15810232100E+02 -0.61180711083E+01 -0.17123583666E+02  0.24095878293E+02  0.00000000000E+00 0.  1.
         12    1    4    4    0    0  0.16218819083E+02  0.13383557634E+03 -0.27472470348E+03  0.30602070892E+03  0.00000000000E+00 0. -1.
         -5    1    5    5    0  502  0.23155200580E+02 -0.10816463210E+03 -0.34162614003E+02  0.11586597925E+03  0.47000000000E+01 0.  1.
         13    1    6    6    0    0 -0.13759678053E+01 -0.16629133697E+02 -0.61654164542E+02  0.63872195675E+02  0.00000000000E+00 0. -1.
        -14    1    6    6    0    0 -0.43930084442E+02  0.21124358395E+02 -0.49212594171E+02  0.69267382380E+02  0.00000000000E+00 0.  1.
</event>
<event>
12    1  0.8135779E-002  0.1991441E+03  0.7818608E-02  0.1150747E+00
         21   -1    0    0  503  502  0.00000000000E+00  0.00000000000E+00  0.12707395458E+04  0.12707395458E+04  0.00000000000E+00 0. -1.
         21   -1    0    0  501  503 -0.00000000000E+00 -0.00000000000E+00 -0.82709184842E+02  0.82709184842E+02  0.00000000000E+00 0. -1.
          6    2    1    2  501    0  0.48548121383E+02 -0.84211302625E+02  0.11283447744E+04  0.11455527216E+04  0.17228071411E+03 0.  0.
         24    2    3    3    0    0  0.77963364534E+02 -0.36339697399E+01  0.56231001030E+03  0.57303599060E+03  0.78014145431E+02 0.  0.
         -6    2    1    2    0  502 -0.48548121383E+02  0.84211302625E+02  0.59685586582E+02  0.20789600907E+03  0.17381000478E+03 0.  0.
        -24    2    5    5    0    0  0.82689127016E+01  0.52370443100E+02 -0.28027013534E+02  0.98545170408E+02  0.78195900759E+02 0.  0.
          5    1    3    3  501    0 -0.29415243151E+02 -0.80577332885E+02  0.56603476410E+03  0.57251673100E+03  0.47000000000E+01 0. -1.
        -11    1    4    4    0    0  0.37278960216E+02  0.24149610141E+02  0.11939659170E+03  0.12739101481E+03  0.00000000000E+00 0.  1.
         12    1    4    4    0    0  0.40684404317E+02 -0.27783579881E+02  0.44291341860E+03  0.44564497579E+03  0.00000000000E+00 0. -1.
         -5    1    5    5    0  502 -0.56817034084E+02  0.31840859525E+02  0.87712600116E+02  0.10935083866E+03  0.47000000000E+01 0.  1.
         13    1    6    6    0    0 -0.15564539904E+02 -0.13989649415E+02 -0.17445450384E+02  0.27245346984E+02  0.00000000000E+00 0. -1.
        -14    1    6    6    0    0  0.23833452605E+02  0.66360092515E+02 -0.10581563151E+02  0.71299823425E+02  0.00000000000E+00 0.  1.
</event>
<event>
12    1  0.8135779E-002  0.2473077E+03  0.7818608E-02  0.1115030E+00
         21   -1    0    0  503  502  0.00000000000E+00  0.00000000000E+00  0.81563329449E+02  0.81563329449E+02  0.00000000000E+00 0. -1.
         21   -1    0    0  501  503 -0.00000000000E+00 -0.00000000000E+00 -0.12374211430E+04  0.12374211430E+04  0.00000000000E+00 0.  1.
          6    2    1    2  501    0 -0.10130652751E+03  0.14607016572E+03 -0.99204787900E+03  0.10224089609E+04  0.17193482251E+03 0.  0.
         24    2    3    3    0    0 -0.59224396443E+01  0.20533687004E+02 -0.49507130785E+03  0.50100188959E+03  0.73828083526E+02 0.  0.
         -6    2    1    2    0  502  0.10130652751E+03 -0.14607016572E+03 -0.16380993456E+03  0.29657551159E+03  0.17182500862E+03 0.  0.
        -24    2    5    5    0    0 -0.29162976997E+02 -0.84796033365E+01 -0.40303986729E+02  0.70236686795E+02  0.48850772006E+02 0.  0.
          5    1    3    3  501    0 -0.95384087862E+02  0.12553647872E+03 -0.49697657114E+03  0.52140707127E+03  0.47000000000E+01 0. -1.
        -11    1    4    4    0    0 -0.10501788156E+02  0.42958146817E+02 -0.42483745317E+03  0.42713294364E+03  0.00000000000E+00 0.  1.
         12    1    4    4    0    0  0.45793485116E+01 -0.22424459813E+02 -0.70233854686E+02  0.73868945943E+02  0.00000000000E+00 0. -1.
         -5    1    5    5    0  502  0.13046950450E+03 -0.13759056238E+03 -0.12350594783E+03  0.22633882480E+03  0.47000000000E+01 0.  1.
         11    1    6    6    0    0  0.15755837677E+00  0.15550336491E+02 -0.24814610927E+02  0.29284854534E+02  0.00000000000E+00 0. -1.
        -12    1    6    6    0    0 -0.29320535374E+02 -0.24029939828E+02 -0.15489375802E+02  0.40951832260E+02  0.00000000000E+00 0.  1.
</event>
<event>
12    1  0.8135779E-002  0.1754016E+03  0.7818608E-02  0.1173021E+00
         21   -1    0    0  503  502  0.00000000000E+00  0.00000000000E+00  0.71118788249E+03  0.71118788249E+03  0.00000000000E+00 0.  1.
         21   -1    0    0  501  503 -0.00000000000E+00 -0.00000000000E+00 -0.55624430988E+02  0.55624430988E+02  0.00000000000E+00 0.  1.
          6    2    1    2  501    0  0.19451341680E+02  0.99164105306E+01  0.14018424132E+03  0.22240303214E+03  0.17127404153E+03 0.  0.
         24    2    3    3    0    0  0.33672699346E+01  0.65876944266E+02  0.51686235566E+02  0.11636405005E+03  0.80734223877E+02 0.  0.
         -6    2    1    2    0  502 -0.19451341680E+02 -0.99164105306E+01  0.51537921018E+03  0.54440928133E+03  0.17403748282E+03 0.  0.
        -24    2    5    5    0    0  0.46387819385E+02 -0.43840150660E+02  0.28572065141E+03  0.30305734144E+03  0.78317769138E+02 0.  0.
          5    1    3    3  501    0  0.16084071745E+02 -0.55960533736E+02  0.88498005757E+02  0.10603898209E+03  0.47000000000E+01 0. -1.
        -13    1    4    4    0    0 -0.23118965781E+01  0.67078026145E+02  0.28440012739E+01  0.67178082739E+02  0.00000000000E+00 0.  1.
         14    1    4    4    0    0  0.56791665127E+01 -0.12010818785E+01  0.48842234292E+02  0.49185967314E+02  0.00000000000E+00 0. -1.
         -5    1    5    5    0  502 -0.65839161065E+02  0.33923740129E+02  0.22965855877E+03  0.24135193989E+03  0.47000000000E+01 0.  1.
         13    1    6    6    0    0  0.29570946007E+02 -0.34819566515E+01  0.23149003346E+03  0.23339708751E+03  0.00000000000E+00 0. -1.
        -14    1    6    6    0    0  0.16816873378E+02 -0.40358194008E+02  0.54230617951E+02  0.69660253927E+02  0.00000000000E+00 0.  1.
</event>
<event>
12    1  0.8135779E-002  0.2052540E+03  0.7818608E-02  0.1146748E+00
         21   -1    0    0  503  502  0.00000000000E+00  0.00000000000E+00  0.26358375541E+03  0.26358375541E+03  0.00000000000E+00 0. -1.
         21   -1    0    0  501  503 -0.00000000000E+00 -0.00000000000E+00 -0.16054901617E+03  0.16054901617E+03  0.00000000000E+00 0. -1.
          6    2    1    2  501    0 -0.87446502839E+02  0.43474200147E+02  0.11998043101E+02  0.20560432694E+03  0.18053334673E+03 0.  0.
         24    2    3    3    0    0 -0.12277024747E+03  0.37203485042E+02  0.43968087441E+02  0.15732117731E+03  0.79750405357E+02 0.  0.
         -6    2    1    2    0  502  0.87446502839E+02 -0.43474200147E+02  0.91036696136E+02  0.21852844463E+03  0.17300319111E+03 0.  0.
        -24    2    5    5    0    0  0.80921463897E+02 -0.52422365135E+01 -0.54615269131E+01  0.11442149852E+03  0.80539969489E+02 0.  0.
          5    1    3    3  501    0  0.35323744633E+02  0.62707151053E+01 -0.31970044340E+02  0.48283149627E+02  0.47000000000E+01 0. -1.
        -13    1    4    4    0    0  0.10214764970E+02  0.98022260881E+01 -0.12469895031E+01  0.14211968283E+02  0.00000000000E+00 0.  1.
         14    1    4    4    0    0 -0.13298501244E+03  0.27401258954E+02  0.45215076944E+02  0.14310920903E+03  0.00000000000E+00 0. -1.
         -5    1    5    5    0  502  0.65250389420E+01 -0.38231963634E+02  0.96498223049E+02  0.10410694611E+03  0.47000000000E+01 0.  1.
         13    1    6    6    0    0  0.89432863978E+02 -0.21366314374E+02 -0.16045891237E+02  0.93339312054E+02  0.00000000000E+00 0. -1.
        -14    1    6    6    0    0 -0.85114000806E+01  0.16124077861E+02  0.10584364324E+02  0.21082186469E+02  0.00000000000E+00 0.  1.
</event>
<event>
12    1  0.8135779E-002  0.1967403E+03  0.7818608E-02  0.1155993E+00
         21   -1    0    0  503  502  0.00000000000E+00  0.00000000000E+00  0.64374502372E+02  0.64374502372E+02  0.00000000000E+00 0.  1.
         21   -1    0    0  501  503 -0.00000000000E+00 -0.00000000000E+00 -0.58924807575E+03  0.58924807575E+03  0.00000000000E+00 0.  1.
          6    2    1    2  501    0  0.17195876129E+02  0.53589498992E+02 -0.19383971142E+03  0.27618939835E+03  0.18851848047E+03 0.  0.
         24    2    3    3    0    0  0.81283727765E+02  0.16351742051E+02 -0.15213698852E+03  0.19101246270E+03  0.80409413400E+02 0.  0.
         -6    2    1    2    0  502 -0.17195876129E+02 -0.53589498992E+02 -0.33103386196E+03  0.37743317978E+03  0.17235096423E+03 0.  0.
        -24    2    5    5    0    0 -0.24969418524E+02 -0.48049750410E+02 -0.69139332264E+02  0.11532260871E+03  0.74744942563E+02 0.  0.
          5    1    3    3  501    0 -0.64087851636E+02  0.37237756942E+02 -0.41702722894E+02  0.85176935646E+02  0.47000000000E+01 0. -1.
        -11    1    4    4    0    0 -0.40251329156E+01  0.19603041223E+02 -0.45652704097E+01  0.20526144648E+02  0.00000000000E+00 0.  1.
         12    1    4    4    0    0  0.85308860681E+02 -0.32512991726E+01 -0.14757171811E+03  0.17048631805E+03  0.00000000000E+00 0. -1.
         -5    1    5    5    0  502  0.77735423942E+01 -0.55397485819E+01 -0.26189452970E+03  0.26211057106E+03  0.47000000000E+01 0.  1.
         11    1    6    6    0    0  0.20120409306E+02 -0.21931360686E+02 -0.13139423584E+01  0.29791641390E+02  0.00000000000E+00 0. -1.
        -12    1    6    6    0    0 -0.45089827830E+02 -0.26118389724E+02 -0.67825389905E+02  0.85530967324E+02  0.00000000000E+00 0.  1.
</event>
<event>
12    1  0.8135779E-002  0.1827736E+03  0.7818608E-02  0.1165339E+00
         21   -1    0    0  501  502  0.00000000000E+00  0.00000000000E+00  0.28809692133E+03  0.28809692133E+03  0.00000000000E+00 0. -1.
         21   -1    0    0  502  503 -0.00000000000E+00 -0.00000000000E+00 -0.32471569065E+03  0.32471569065E+03  0.00000000000E+00 0. -1.
         -6    2    1    2    0  503  0.60251386936E+02 -0.89637719884E+01 -0.26430812141E+03  0.32134868379E+03  0.17232415586E+03 0.  0.
        -24    2    3    3    0    0  0.22404874567E+02  0.35809672430E+02 -0.58001660129E+02  0.10682254135E+03  0.79136285724E+02 0.  0.
          6    2    1    2  501    0 -0.60251386936E+02  0.89637719884E+01  0.22768935208E+03  0.29146392819E+03  0.17145903753E+03 0.  0.
         24    2    5    5    0    0 -0.36742960153E+02  0.11230922933E+02  0.24588511234E+03  0.26128178456E+03  0.79577030100E+02 0.  0.
          5    1    5    5  501    0 -0.23508426783E+02 -0.22671509444E+01 -0.18195760259E+02  0.30182143639E+02  0.47000000000E+01 0. -1.
        -11    1    6    6    0    0  0.23038768127E+02  0.16500794196E+02  0.76644084237E+02  0.81715217031E+02  0.00000000000E+00 0.  1.
         12    1    6    6    0    0 -0.59781728280E+02 -0.52698712632E+01  0.16924102810E+03  0.17956656752E+03  0.00000000000E+00 0. -1.
         -5    1    3    3    0  503  0.37846512369E+02 -0.44773444419E+02 -0.20630646128E+03  0.21452614244E+03  0.47000000000E+01 0.  1.
         11    1    4    4    0    0  0.28503651601E+02 -0.14534232308E+02 -0.43647070354E+02  0.54118100612E+02  0.00000000000E+00 0. -1.
        -12    1    4    4    0    0 -0.60987770348E+01  0.50343904738E+02 -0.14354589776E+02  0.52704440735E+02  0.00000000000E+00 0.  1.
</event>
<event>
12    1  0.8135779E-002  0.1930532E+03  0.7818608E-02  0.1155955E+00
         21   -1    0    0  501  502  0.00000000000E+00  0.00000000000E+00  0.11547079783E+03  0.11547079783E+03  0.00000000000E+00 0. -1.
         21   -1    0    0  502  503 -0.00000000000E+00 -0.00000000000E+00 -0.42220103633E+03  0.42220103633E+03  0.00000000000E+00 0. -1.
         -6    2    1    2    0  503  0.52918955898E+02  0.68247791900E+02 -0.28521126771E+03  0.34440526424E+03  0.17265961256E+03 0.  0.
        -24    2    3    3    0    0  0.60472635899E+02  0.37095475969E+02 -0.29224774109E+03  0.31125218252E+03  0.80225712337E+02 0.  0.
          6    2    1    2  501    0 -0.52918955898E+02 -0.68247791900E+02 -0.21518970788E+02  0.19326656993E+03  0.17155385148E+03 0.  0.
         24    2    5    5    0    0 -0.60248200984E+02  0.14571880881E+02  0.13896782248E+02  0.10277247291E+03  0.80789078450E+02 0.  0.
          5    1    5    5  501    0  0.73292450857E+01 -0.82819672781E+02 -0.35415753036E+02  0.90494097024E+02  0.47000000000E+01 0. -1.
        -11    1    6    6    0    0 -0.56124312607E+02 -0.84276389261E+01 -0.21221162053E+02  0.60591264076E+02  0.00000000000E+00 0.  1.
         12    1    6    6    0    0 -0.41238883767E+01  0.22999519807E+02  0.35117944300E+02  0.42181208833E+02  0.00000000000E+00 0. -1.
         -5    1    3    3    0  503 -0.75536800009E+01  0.31152315931E+02  0.70364733807E+01  0.33153081713E+02  0.47000000000E+01 0.  1.
         13    1    4    4    0    0  0.79148077206E+02  0.38673358320E+02 -0.24879270530E+03  0.26392774955E+03  0.00000000000E+00 0. -1.
        -14    1    4    4    0    0 -0.18675441307E+02 -0.15778823508E+01 -0.43455035791E+02  0.47324432974E+02  0.00000000000E+00 0.  1.
</event>
<event>
12    1  0.8135779E-002  0.2190293E+03  0.7818608E-02  0.1134646E+00
         21   -1    0    0  503  502  0.00000000000E+00  0.00000000000E+00  0.13906070558E+03  0.13906070558E+03  0.00000000000E+00 0.  1.
         21   -1    0    0  501  503 -0.00000000000E+00 -0.00000000000E+00 -0.52356875280E+03  0.52356875280E+03  0.00000000000E+00 0.  1.
          6    2    1    2  501    0  0.45661306687E+02 -0.12725756998E+03 -0.38586167315E+03  0.44359599769E+03  0.17207188704E+03 0.  0.
         24    2    3    3    0    0  0.40193271329E+02 -0.12232317647E+03 -0.39959160493E+03  0.42732182561E+03  0.79699644591E+02 0.  0.
         -6    2    1    2    0  502 -0.45661306687E+02  0.12725756998E+03  0.13536259255E+01  0.21903346069E+03  0.17232057496E+03 0.  0.
        -24    2    5    5    0    0  0.27946180661E+01  0.40063471691E+02  0.54987797215E+02  0.10567781791E+03  0.80816159905E+02 0.  0.
          5    1    3    3  501    0  0.54680353580E+01 -0.49343935166E+01  0.13729931783E+02  0.16274172078E+02  0.47000000000E+01 0. -1.
        -13    1    4    4    0    0  0.98780681258E+01 -0.52100887479E+02 -0.28269526003E+03  0.28762595285E+03  0.00000000000E+00 0.  1.
         14    1    4    4    0    0  0.30315203203E+02 -0.70222288987E+02 -0.11689634490E+03  0.13969587276E+03  0.00000000000E+00 0. -1.
         -5    1    5    5    0  502 -0.48455924753E+02  0.87194098292E+02 -0.53634171290E+02  0.11335564278E+03  0.47000000000E+01 0.  1.
         13    1    6    6    0    0  0.55603889610E+01 -0.24740471543E+02  0.14357942233E+02  0.29140339097E+02  0.00000000000E+00 0. -1.
        -14    1    6    6    0    0 -0.27657708949E+01  0.64803943233E+02  0.40629854982E+02  0.76537478813E+02  0.00000000000E+00 0.  1.
</event>
<event>
12    1  0.8135779E-002  0.3087666E+03  0.7818608E-02  0.1080977E+00
         21   -1    0    0  503  502  0.00000000000E+00  0.00000000000E+00  0.23102790577E+03  0.23102790577E+03  0.00000000000E+00 0. -1.
         21   -1    0    0  501  503 -0.00000000000E+00 -0.00000000000E+00 -0.62513295135E+03  0.62513295135E+03  0.00000000000E+00 0.  1.
          6    2    1    2  501    0 -0.85988950525E+02 -0.24120097902E+03 -0.44680417538E+03  0.54292933337E+03  0.17194847485E+03 0.  0.
         24    2    3    3    0    0 -0.81438353150E+02 -0.25702838189E+03 -0.44417042084E+03  0.52560186151E+03  0.79209593006E+02 0.  0.
         -6    2    1    2    0  502  0.85988950525E+02  0.24120097902E+03  0.52699129796E+02  0.31323152374E+03  0.17252471502E+03 0.  0.
        -24    2    5    5    0    0  0.56186926534E+02  0.21272906884E+03 -0.14118291575E+02  0.23458377678E+03  0.80122373467E+02 0.  0.
          5    1    3    3  501    0 -0.45505973745E+01  0.15827402863E+02 -0.26337545426E+01  0.17327471853E+02  0.47000000000E+01 0. -1.
        -11    1    4    4    0    0 -0.69926122069E+02 -0.21452838662E+03 -0.30339709560E+03  0.37810301352E+03  0.00000000000E+00 0.  1.
         12    1    4    4    0    0 -0.11512231081E+02 -0.42499995261E+02 -0.14077332523E+03  0.14749884799E+03  0.00000000000E+00 0. -1.
         -5    1    5    5    0  502  0.29802023991E+02  0.28471910183E+02  0.66817421371E+02  0.78647746961E+02  0.47000000000E+01 0.  1.
         11    1    6    6    0    0  0.37942729503E+02  0.17195158324E+03  0.21572248769E+02  0.17740450845E+03  0.00000000000E+00 0. -1.
        -12    1    6    6    0    0  0.18244197031E+02  0.40777485599E+02 -0.35690540344E+02  0.57179268333E+02  0.00000000000E+00 0.  1.
</event>
<event>
12    1  0.8135779E-002  0.2071232E+03  0.7818608E-02  0.1147668E+00
         21   -1    0    0  503  502  0.00000000000E+00  0.00000000000E+00  0.40681741602E+03  0.40681741602E+03  0.00000000000E+00 0. -1.
         21   -1    0    0  501  503 -0.00000000000E+00 -0.00000000000E+00 -0.98136051927E+02  0.98136051927E+02  0.00000000000E+00 0. -1.
          6    2    1    2  501    0  0.57478358814E+02 -0.47104196837E+02  0.19380536304E+03  0.28365563303E+03  0.19333243990E+03 0.  0.
         24    2    3    3    0    0  0.70312324447E+02 -0.40852840033E+02  0.22306876452E+03  0.25075841731E+03  0.80668039756E+02 0.  0.
         -6    2    1    2    0  502 -0.57478358814E+02  0.47104196837E+02  0.11487600106E+03  0.22129783492E+03  0.17393581871E+03 0.  0.
        -24    2    5    5    0    0 -0.67804158060E+02  0.51830250557E+02  0.11673827512E+02  0.11736643284E+03  0.79717141101E+02 0.  0.
          5    1    3    3  501    0 -0.12833965634E+02 -0.62513568039E+01 -0.29263401485E+02  0.32897215722E+02  0.47000000000E+01 0. -1.
        -11    1    4    4    0    0  0.24564925195E+02  0.14147705256E+02  0.18025213818E+02  0.33593175602E+02  0.00000000000E+00 0.  1.
         12    1    4    4    0    0  0.45747399252E+02 -0.55000545290E+02  0.20504355070E+03  0.21716524171E+03  0.00000000000E+00 0. -1.
         -5    1    5    5    0  502  0.10325799247E+02 -0.47260537197E+01  0.10320217354E+03  0.10393140208E+03  0.47000000000E+01 0.  1.
         13    1    6    6    0    0  0.98492353358E+01  0.19545758870E+02 -0.17844136528E+02  0.28239287083E+02  0.00000000000E+00 0. -1.
        -14    1    6    6    0    0 -0.77653393396E+02  0.32284491687E+02  0.29517964040E+02  0.89127145756E+02  0.00000000000E+00 0.  1.
</event>
<event>
12    1  0.8135779E-002  0.1798050E+03  0.7818608E-02  0.1168209E+00
         21   -1    0    0  503  502  0.00000000000E+00  0.00000000000E+00  0.11276592467E+03  0.11276592467E+03  0.00000000000E+00 0. -1.
         21   -1    0    0  501  503 -0.00000000000E+00 -0.00000000000E+00 -0.30159649900E+03  0.30159649900E+03  0.00000000000E+00 0. -1.
          6    2    1    2  501    0  0.85476677576E+01  0.50884523507E+02 -0.14238838791E+03  0.22865641200E+03  0.17130967393E+03 0.  0.
         24    2    3    3    0    0  0.68547699917E+02  0.53703811839E+02 -0.10451848823E+03  0.15749341918E+03  0.79354748644E+02 0.  0.
         -6    2    1    2    0  502 -0.85476677576E+01 -0.50884523507E+02 -0.46442186415E+02  0.18570601167E+03  0.17224270299E+03 0.  0.
        -24    2    5    5    0    0 -0.19019639074E+02 -0.58961723430E+02 -0.92778146455E+02  0.13729098781E+03  0.80017494182E+02 0.  0.
          5    1    3    3  501    0 -0.60000032160E+02 -0.28192883320E+01 -0.37869899674E+02  0.71162992820E+02  0.47000000000E+01 0. -1.
        -13    1    4    4    0    0  0.14655089870E+02 -0.20181983915E+02 -0.33172579689E+02  0.41503062262E+02  0.00000000000E+00 0.  1.
         14    1    4    4    0    0  0.53892610048E+02  0.73885795754E+02 -0.71345908545E+02  0.11599035692E+03  0.00000000000E+00 0. -1.
         -5    1    5    5    0  502  0.10471971317E+02  0.80771999236E+01  0.46335960040E+02  0.48415023853E+02  0.47000000000E+01 0.  1.
         13    1    6    6    0    0  0.13929329693E+02 -0.44750924804E+02 -0.89787006844E+02  0.10128365167E+03  0.00000000000E+00 0. -1.
        -14    1    6    6    0    0 -0.32948968768E+02 -0.14210798626E+02 -0.29911396107E+01  0.36007336150E+02  0.00000000000E+00 0.  1.
</event>
<event>
12    1  0.8135779E-002  0.2095746E+03  0.7818608E-02  0.1142213E+00
         21   -1    0    0  501  502  0.00000000000E+00  0.00000000000E+00  0.20605266587E+03  0.20605266587E+03  0.00000000000E+00 0.  1.
         21   -1    0    0  502  503 -0.00000000000E+00 -0.00000000000E+00 -0.28880234056E+03  0.28880234056E+03  0.00000000000E+00 0.  1.
         -6    2    1    2    0  503 -0.10276897473E+03  0.47323679404E+02 -0.16920633508E+03  0.26814751573E+03  0.17456034361E+03 0.  0.
        -24    2    3    3    0    0 -0.68800749381E+02 -0.40753238159E+02 -0.92055708560E+02  0.14614057776E+03  0.80550887350E+02 0.  0.
          6    2    1    2  501    0  0.10276897473E+03 -0.47323679404E+02  0.86456660402E+02  0.22670749070E+03  0.17641014543E+03 0.  0.
         24    2    5    5    0    0  0.10058369974E+03 -0.93985280207E+02  0.53294214270E+02  0.16922777036E+03  0.82749328924E+02 0.  0.
          5    1    5    5  501    0  0.21852749839E+01  0.46661600803E+02  0.33162446132E+02  0.57479720334E+02  0.47000000000E+01 0. -1.
        -11    1    6    6    0    0  0.95217583393E+02 -0.88802313981E+02  0.72216827543E+02  0.14888757281E+03  0.00000000000E+00 0.  1.
         12    1    6    6    0    0  0.53661163510E+01 -0.51829662260E+01 -0.18922613273E+02  0.20340197557E+02  0.00000000000E+00 0. -1.
         -5    1    3    3    0  503 -0.33968225347E+02  0.88076917563E+02 -0.77150626525E+02  0.12200693797E+03  0.47000000000E+01 0.  1.
         11    1    4    4    0    0  0.64120039550E+01 -0.10685939333E+02 -0.56189915524E+02  0.57555275177E+02  0.00000000000E+00 0. -1.
        -12    1    4    4    0    0 -0.75212753336E+02 -0.30067298827E+02 -0.35865793036E+02  0.88585302580E+02  0.00000000000E+00 0.  1.
</event>
<event>
12    1  0.8135779E-002  0.1916480E+03  0.7818608E-02  0.1157388E+00
         21   -1    0    0  503  502  0.00000000000E+00  0.00000000000E+00  0.22168716452E+03  0.22168716452E+03  0.00000000000E+00 0.  1.
         21   -1    0    0  501  503 -0.00000000000E+00 -0.00000000000E+00 -0.26518795839E+03  0.26518795839E+03  0.00000000000E+00 0.  1.
          6    2    1    2  501    0  0.71435049714E+02 -0.42116135657E+02 -0.17196881572E+03  0.25615239587E+03  0.17077482578E+03 0.  0.
         24    2    3    3    0    0  0.11552253119E+03 -0.36336512275E+02 -0.16096495249E+03  0.21010584252E+03  0.59740704658E+02 0.  0.
         -6    2    1    2    0  502 -0.71435049714E+02  0.42116135657E+02  0.12846802185E+03  0.23072272704E+03  0.17277791794E+03 0.  0.
        -24    2    5    5    0    0 -0.40912855643E+02  0.64524463999E+02  0.24333369310E+02  0.11981802305E+03  0.89033575541E+02 0.  0.
          5    1    3    3  501    0 -0.44087481479E+02 -0.57796233819E+01 -0.11003863225E+02  0.46046553350E+02  0.47000000000E+01 0. -1.
        -13    1    4    4    0    0  0.22805938927E+02  0.14972521420E+02 -0.20360677393E+02  0.34041804182E+02  0.00000000000E+00 0.  1.
         14    1    4    4    0    0  0.92716592265E+02 -0.51309033696E+02 -0.14060427510E+03  0.17606403834E+03  0.00000000000E+00 0. -1.
         -5    1    5    5    0  502 -0.30522194071E+02 -0.22408328342E+02  0.10413465254E+03  0.11090470400E+03  0.47000000000E+01 0.  1.
         13    1    6    6    0    0  0.26990609153E+02  0.10126088110E+02 -0.20479910983E+01  0.28900257964E+02  0.00000000000E+00 0. -1.
        -14    1    6    6    0    0 -0.67903464796E+02  0.54398375889E+02  0.26381360408E+02  0.90917765083E+02  0.00000000000E+00 0.  1.
</event>
<event>
12    1  0.8135779E-002  0.3161589E+03  0.7818608E-02  0.1077941E+00
         21   -1    0    0  503  502  0.00000000000E+00  0.00000000000E+00  0.24958831141E+04  0.24958831141E+04  0.00000000000E+00 0. -1.
         21   -1    0    0  501  503 -0.00000000000E+00 -0.00000000000E+00 -0.12665484654E+03  0.12665484654E+03  0.00000000000E+00 0. -1.
          6    2    1    2  501    0  0.25822061559E+03 -0.30017822992E+02  0.94340169933E+02  0.32578540908E+03  0.17221239531E+03 0.  0.
         24    2    3    3    0    0  0.21935304111E+03  0.19391105429E+02  0.11182629530E+03  0.26036534234E+03  0.82420989769E+02 0.  0.
         -6    2    1    2    0  502 -0.25822061559E+03  0.30017822992E+02  0.22748880976E+04  0.22967525516E+04  0.17993740671E+03 0.  0.
        -24    2    5    5    0    0 -0.65336246315E+02 -0.37793064578E+02  0.90766770678E+03  0.91432122106E+03  0.80159145065E+02 0.  0.
          5    1    3    3  501    0  0.38867574474E+02 -0.49408928421E+02 -0.17486125365E+02  0.65420066750E+02  0.47000000000E+01 0. -1.
        -11    1    4    4    0    0  0.64007095484E+02 -0.13078854271E+01  0.76427291915E+02  0.99698293797E+02  0.00000000000E+00 0.  1.
         12    1    4    4    0    0  0.15534594563E+03  0.20698990856E+02  0.35399003383E+02  0.16066704854E+03  0.00000000000E+00 0. -1.
         -5    1    5    5    0  502 -0.19288436927E+03  0.67810887570E+02  0.13672203909E+04  0.13824313305E+04  0.47000000000E+01 0.  1.
         11    1    6    6    0    0 -0.54568878074E+02 -0.23970951753E+02  0.87683202382E+03  0.87885537319E+03  0.00000000000E+00 0. -1.
        -12    1    6    6    0    0 -0.10767368240E+02 -0.13822112825E+02  0.30835682953E+02  0.35465847867E+02  0.00000000000E+00 0.  1.
</event>
<event>
12    1  0.8135779E-002  0.1986489E+03  0.7818608E-02  0.1151214E+00
         21   -1    0    0  503  502  0.00000000000E+00  0.00000000000E+00  0.31137558835E+03  0.31137558835E+03  0.00000000000E+00 0.  1.
         21   -1    0    0  501  503 -0.00000000000E+00 -0.00000000000E+00 -0.14397284152E+03  0.14397284152E+03  0.00000000000E+00 0.  1.
          6    2    1    2  501    0 -0.86271176449E+02  0.44215376665E+02  0.24155066902E+01  0.19711953446E+03  0.17161748388E+03 0.  0.
         24    2    3    3    0    0 -0.74950363137E+02  0.67964204358E+02  0.53178010133E+02  0.13975151735E+03  0.80410794251E+02 0.  0.
         -6    2    1    2    0  502  0.86271176449E+02 -0.44215376665E+02  0.16498724015E+03  0.25822889541E+03  0.17338874702E+03 0.  0.
        -24    2    5    5    0    0 -0.19036368415E+02 -0.33421589375E+02  0.52733755234E+02  0.10386206049E+03  0.80790424611E+02 0.  0.
          5    1    3    3  501    0 -0.11320813313E+02 -0.23748827693E+02 -0.50762503443E+02  0.57368017106E+02  0.47000000000E+01 0. -1.
        -11    1    4    4    0    0 -0.58584405931E+02  0.56461142851E+02 -0.16584811541E+01  0.81380242259E+02  0.00000000000E+00 0.  1.
         12    1    4    4    0    0 -0.16365957206E+02  0.11503061507E+02  0.54836491287E+02  0.58371275093E+02  0.00000000000E+00 0. -1.
         -5    1    5    5    0  502  0.10530754486E+03 -0.10793787290E+02  0.11225348491E+03  0.15436683492E+03  0.47000000000E+01 0.  1.
         13    1    6    6    0    0 -0.24737515219E+02 -0.12033428763E+02 -0.15881876406E+02  0.31764478041E+02  0.00000000000E+00 0. -1.
        -14    1    6    6    0    0  0.57011468042E+01 -0.21388160611E+02  0.68615631640E+02  0.72097582446E+02  0.00000000000E+00 0.  1.
</event>
<event>
12    1  0.8135779E-002  0.2217525E+03  0.7818608E-02  0.1132599E+00
         21   -1    0    0  503  502  0.00000000000E+00  0.00000000000E+00  0.66836353252E+03  0.66836353252E+03  0.00000000000E+00 0. -1.
         21   -1    0    0  501  503 -0.00000000000E+00 -0.00000000000E+00 -0.22757597167E+03  0.22757597167E+03  0.00000000000E+00 0. -1.
          6    2    1    2  501    0  0.12724351678E+03  0.59484636975E+02 -0.14813550431E+03  0.26668013302E+03  0.17159496237E+03 0.  0.
         24    2    3    3    0    0  0.15931776421E+03  0.61711964368E+02 -0.11782958961E+03  0.22224752336E+03  0.79496118856E+02 0.  0.
         -6    2    1    2    0  502 -0.12724351678E+03 -0.59484636975E+02  0.58892306517E+03  0.62925937116E+03  0.17148657357E+03 0.  0.
        -24    2    5    5    0    0 -0.55980744387E+02 -0.94383626577E+02  0.29729114882E+03  0.32698865337E+03  0.80606696732E+02 0.  0.
          5    1    3    3  501    0 -0.32074247425E+02 -0.22273273929E+01 -0.30305914708E+02  0.44432609663E+02  0.47000000000E+01 0. -1.
        -11    1    4    4    0    0  0.13069925383E+03  0.80703552292E+02 -0.89924217045E+02  0.17799360414E+03  0.00000000000E+00 0.  1.
         12    1    4    4    0    0  0.28618510377E+02 -0.18991587924E+02 -0.27905372562E+02  0.44253919215E+02  0.00000000000E+00 0. -1.
         -5    1    5    5    0  502 -0.71262772396E+02  0.34898989602E+02  0.29163191635E+03  0.30227071780E+03  0.47000000000E+01 0.  1.
         13    1    6    6    0    0 -0.76274059074E+02 -0.79458921875E+02  0.22676764233E+03  0.25210120182E+03  0.00000000000E+00 0. -1.
        -14    1    6    6    0    0  0.20293314687E+02 -0.14924704702E+02  0.70523506487E+02  0.74887451543E+02  0.00000000000E+00 0.  1.
</event>
<event>
12    1  0.8135779E-002  0.2044963E+03  0.7818608E-02  0.1146332E+00
         21   -1    0    0  501  502  0.00000000000E+00  0.00000000000E+00  0.37710240095E+03  0.37710240095E+03  0.00000000000E+00 0.  1.
         21   -1    0    0  502  503 -0.00000000000E+00 -0.00000000000E+00 -0.11949145179E+03  0.11949145179E+03  0.00000000000E+00 0. -1.
         -6    2    1    2    0  503 -0.35642302747E+02 -0.10655489939E+03  0.19917178037E+03  0.28546128022E+03  0.17086375884E+03 0.  0.
        -24    2    3    3    0    0 -0.11829331473E+02 -0.13854524313E+03  0.13278021155E+03  0.20787023626E+03  0.79023623477E+02 0.  0.
          6    2    1    2  501    0  0.35642302747E+02  0.10655489939E+03  0.58439168791E+02  0.21113257251E+03  0.16893047800E+03 0.  0.
         24    2    5    5    0    0 -0.43066719394E+01  0.35161715979E+02  0.76797585980E+02  0.12715621454E+03  0.94952303767E+02 0.  0.
          5    1    5    5  501    0  0.39948974686E+02  0.71393183408E+02 -0.18358417189E+02  0.83976357967E+02  0.47000000000E+01 0. -1.
        -11    1    6    6    0    0  0.12343307237E+02  0.23802158059E+02  0.95784061718E+02  0.99466006459E+02  0.00000000000E+00 0.  1.
         12    1    6    6    0    0 -0.16649979176E+02  0.11359557920E+02 -0.18986475738E+02  0.27690208083E+02  0.00000000000E+00 0. -1.
         -5    1    3    3    0  503 -0.23812971273E+02  0.31990343739E+02  0.66391568816E+02  0.77591043963E+02  0.47000000000E+01 0.  1.
         13    1    4    4    0    0  0.27065609415E+02 -0.90965480048E+02  0.10133418995E+03  0.13883761676E+03  0.00000000000E+00 0. -1.
        -14    1    4    4    0    0 -0.38894940888E+02 -0.47579763078E+02  0.31446021602E+02  0.69032619506E+02  0.00000000000E+00 0.  1.
</event>
<event>
12    1  0.8135779E-002  0.1738895E+03  0.7818608E-02  0.1173978E+00
         21   -1    0    0  503  502  0.00000000000E+00  0.00000000000E+00  0.11107588064E+04  0.11107588064E+04  0.00000000000E+00 0.  1.
         21   -1    0    0  501  503 -0.00000000000E+00 -0.00000000000E+00 -0.37367346924E+02  0.37367346924E+02  0.00000000000E+00 0.  1.
          6    2    1    2  501    0  0.19367810454E+02  0.17531677461E+02  0.23587589246E+03  0.29274911398E+03  0.17141217955E+03 0.  0.
         24    2    3    3    0    0 -0.55346007115E+02  0.28406400083E+02  0.14868408091E+03  0.17731551346E+03  0.73917057090E+02 0.  0.
         -6    2    1    2    0  502 -0.19367810454E+02 -0.17531677461E+02  0.83751556703E+03  0.85537703935E+03  0.17191591736E+03 0.  0.
        -24    2    5    5    0    0 -0.60581201110E+02 -0.55913260755E+02  0.48373078536E+03  0.49710695793E+03  0.79520313490E+02 0.  0.
          5    1    3    3  501    0  0.74713817569E+02 -0.10874722622E+02  0.87191811545E+02  0.11543360052E+03  0.47000000000E+01 0. -1.
        -13    1    4    4    0    0 -0.22699636442E+02  0.23404613249E+02  0.90620307190E+01  0.33840357810E+02  0.00000000000E+00 0.  1.
         14    1    4    4    0    0 -0.32646370674E+02  0.50017868335E+01  0.13962205019E+03  0.14347515565E+03  0.00000000000E+00 0. -1.
         -5    1    5    5    0  502  0.41213390657E+02  0.38381583294E+02  0.35378478166E+03  0.35827008142E+03  0.47000000000E+01 0.  1.
         11    1    6    6    0    0  0.11052215334E+02 -0.38187475449E+02  0.13942511751E+03  0.14498206144E+03  0.00000000000E+00 0. -1.
        -12    1    6    6    0    0 -0.71633416444E+02 -0.17725785306E+02  0.34430566785E+03  0.35212489649E+03  0.00000000000E+00 0.  1.
</event>
<event>
12    1  0.8135779E-002  0.2536329E+03  0.7818608E-02  0.1111700E+00
         21   -1    0    0  503  502  0.00000000000E+00  0.00000000000E+00  0.85247950745E+02  0.85247950745E+02  0.00000000000E+00 0.  1.
         21   -1    0    0  501  503 -0.00000000000E+00 -0.00000000000E+00 -0.85316178132E+03  0.85316178132E+03  0.00000000000E+00 0.  1.
          6    2    1    2  501    0  0.90260279929E+02 -0.16109034717E+03 -0.55052489915E+03  0.60436241456E+03  0.16756862910E+03 0.  0.
         24    2    3    3    0    0  0.55959474552E+02 -0.14976706106E+03 -0.28395419939E+03  0.33531448197E+03  0.79020118312E+02 0.  0.
         -6    2    1    2    0  502 -0.90260279929E+02  0.16109034717E+03 -0.21738893143E+03  0.33404731751E+03  0.17387537130E+03 0.  0.
        -24    2    5    5    0    0 -0.40380690985E+02  0.13065679295E+03 -0.65415472949E+02  0.17116025020E+03  0.79466026704E+02 0.  0.
          5    1    3    3  501    0  0.34300805376E+02 -0.11323286113E+02 -0.26657069976E+03  0.26904793259E+03  0.47000000000E+01 0. -1.
        -13    1    4    4    0    0  0.14534113146E+02  0.36991531725E+01 -0.83777555034E+01  0.17178794090E+02  0.00000000000E+00 0.  1.
         14    1    4    4    0    0  0.41425361407E+02 -0.15346621423E+03 -0.27557644389E+03  0.31813568788E+03  0.00000000000E+00 0. -1.
         -5    1    5    5    0  502 -0.49879588943E+02  0.30433554222E+02 -0.15197345848E+03  0.16288706731E+03  0.47000000000E+01 0.  1.
         11    1    6    6    0    0 -0.62656822069E+02  0.10536344504E+03 -0.39998724879E+02  0.12894662033E+03  0.00000000000E+00 0. -1.
        -12    1    6    6    0    0  0.22276131084E+02  0.25293347904E+02 -0.25416748070E+02  0.42213629869E+02  0.00000000000E+00 0.  1.
</event>
<event>
12    1  0.8135779E-002  0.1944378E+03  0.7818608E-02  0.1154630E+00
         21   -1    0    0  501  502  0.00000000000E+00  0.00000000000E+00  0.33946338257E+03  0.33946338257E+03  0.00000000000E+00 0.  1.
         21   -1    0    0  502  503 -0.00000000000E+00 -0.00000000000E+00 -0.12244280909E+03  0.12244280909E+03  0.00000000000E+00 0.  1.
         -6    2    1    2    0  503 -0.80002422055E+02 -0.43056125778E+02  0.38277005605E+02  0.19816957694E+03  0.17190647040E+03 0.  0.
        -24    2    3    3    0    0  0.13169333803E+02 -0.47035112957E+02 -0.45820808781E+01  0.95428155287E+02  0.81852331382E+02 0.  0.
          6    2    1    2  501    0  0.80002422055E+02  0.43056125778E+02  0.17874356787E+03  0.26373661472E+03  0.17132869399E+03 0.  0.
         24    2    5    5    0    0  0.79775334099E+02 -0.32914822710E+02  0.10596840248E+03  0.15842777709E+03  0.80140930533E+02 0.  0.
          5    1    5    5  501    0  0.22708795561E+00  0.75970948488E+02  0.72775165395E+02  0.10530883762E+03  0.47000000000E+01 0. -1.
        -13    1    6    6    0    0  0.63272816358E+02  0.53010817049E+01  0.96859780949E+02  0.11581609527E+03  0.00000000000E+00 0.  1.
         14    1    6    6    0    0  0.16502517741E+02 -0.38215904415E+02  0.91086215275E+01  0.42611681828E+02  0.00000000000E+00 0. -1.
         -5    1    3    3    0  503 -0.93171755858E+02  0.39789871783E+01  0.42859086483E+02  0.10274142165E+03  0.47000000000E+01 0.  1.
         13    1    4    4    0    0  0.25656807659E+02  0.11898516484E+02 -0.18245146647E+02  0.33656081916E+02  0.00000000000E+00 0. -1.
        -14    1    4    4    0    0 -0.12487473856E+02 -0.58933629441E+02  0.13663065769E+02  0.61772073371E+02  0.00000000000E+00 0.  1.
</event>
<event>
12    1  0.8135779E-002  0.2353990E+03  0.7818608E-02  0.1124396E+00
         21   -1    0    0  501  502  0.00000000000E+00  0.00000000000E+00  0.92664351722E+02  0.92664351722E+02  0.00000000000E+00 0. -1.
         21   -1    0    0  502  503 -0.00000000000E+00 -0.00000000000E+00 -0.18858102977E+04  0.18858102977E+04  0.00000000000E+00 0. -1.
         -6    2    1    2    0  503  0.12537341984E+03  0.77340768850E+02 -0.17259673221E+04  0.17419459992E+04  0.18360985367E+03 0.  0.
        -24    2    3    3    0    0  0.11383626703E+03 -0.27806046336E+00 -0.13970111198E+04  0.14037270441E+04  0.76490343006E+02 0.  0.
          6    2    1    2  501    0 -0.12537341984E+03 -0.77340768850E+02 -0.67178623887E+02  0.23652865020E+03  0.17243185880E+03 0.  0.
         24    2    5    5    0    0 -0.99829147371E+02 -0.80591516283E+02  0.13994619740E+02  0.15123936191E+03  0.78845697720E+02 0.  0.
          5    1    5    5  501    0 -0.25544272464E+02  0.32507474338E+01 -0.81173243627E+02  0.85289288281E+02  0.47000000000E+01 0. -1.
        -11    1    6    6    0    0 -0.86890913923E+01 -0.40404301932E+02  0.29028898884E+02  0.50504305700E+02  0.00000000000E+00 0.  1.
         12    1    6    6    0    0 -0.91140055979E+02 -0.40187214351E+02 -0.15034279144E+02  0.10073505621E+03  0.00000000000E+00 0. -1.
         -5    1    3    3    0  503  0.11537152809E+02  0.77618829313E+02 -0.32895620225E+03  0.33821895506E+03  0.47000000000E+01 0.  1.
         11    1    4    4    0    0 -0.68561497911E+00  0.19787046683E+02 -0.14850627274E+03  0.14982026007E+03  0.00000000000E+00 0. -1.
        -12    1    4    4    0    0  0.11452188201E+03 -0.20065107147E+02 -0.12485048471E+04  0.12539067841E+04  0.00000000000E+00 0.  1.
</event>
<event>
12    1  0.8135779E-002  0.2713264E+03  0.7818608E-02  0.1100730E+00
         21   -1    0    0  503  502  0.00000000000E+00  0.00000000000E+00  0.72835852691E+03  0.72835852691E+03  0.00000000000E+00 0. -1.
         21   -1    0    0  501  503 -0.00000000000E+00 -0.00000000000E+00 -0.11716960005E+03  0.11716960005E+03  0.00000000000E+00 0. -1.
          6    2    1    2  501    0  0.11302623421E+03 -0.18028637395E+03  0.14700124654E+03  0.30858930009E+03  0.16834453777E+03 0.  0.
         24    2    3    3    0    0  0.14418650027E+03 -0.14703865982E+03  0.14211470182E+03  0.26252042779E+03  0.79437221688E+02 0.  0.
         -6    2    1    2    0  502 -0.11302623421E+03  0.18028637395E+03  0.46418768032E+03  0.53693882686E+03  0.16599697280E+03 0.  0.
        -24    2    5    5    0    0 -0.92325109236E+02  0.20074659881E+03  0.44126719846E+03  0.49959453861E+03  0.77812851395E+02 0.  0.
          5    1    3    3  501    0 -0.31160266063E+02 -0.33247714131E+02  0.48865447130E+01  0.46068872303E+02  0.47000000000E+01 0. -1.
        -13    1    4    4    0    0  0.17459919618E+02  0.71598918919E+01  0.24242954707E+02  0.30721876536E+02  0.00000000000E+00 0.  1.
         14    1    4    4    0    0  0.12672658065E+03 -0.15419855171E+03  0.11787174712E+03  0.23179855125E+03  0.00000000000E+00 0. -1.
         -5    1    5    5    0  502 -0.20701124971E+02 -0.20460224861E+02  0.22920481864E+02  0.37344288256E+02  0.47000000000E+01 0.  1.
         11    1    6    6    0    0 -0.56333305067E+02  0.13693527787E+03  0.20964884898E+03  0.25666583618E+03  0.00000000000E+00 0. -1.
        -12    1    6    6    0    0 -0.35991804169E+02  0.63811320948E+02  0.23161834948E+03  0.24292870243E+03  0.00000000000E+00 0.  1.
</event>
<event>
12    1  0.8135779E-002  0.2053805E+03  0.7818608E-02  0.1147238E+00
         21   -1    0    0  501  502  0.00000000000E+00  0.00000000000E+00  0.73000759766E+02  0.73000759766E+02  0.00000000000E+00 0. -1.
         21   -1    0    0  502  503 -0.00000000000E+00 -0.00000000000E+00 -0.12142015288E+04  0.12142015288E+04  0.00000000000E+00 0. -1.
         -6    2    1    2    0  503  0.46008889466E+02 -0.81062285504E+02 -0.10398795492E+04  0.10581888466E+04  0.17241301050E+03 0.  0.
        -24    2    3    3    0    0 -0.69840278659E+01  0.17393481384E+02 -0.50076340265E+03  0.50758000469E+03  0.80759927493E+02 0.  0.
          6    2    1    2  501    0 -0.46008889466E+02  0.81062285504E+02 -0.10132121980E+03  0.22901344193E+03  0.18301162521E+03 0.  0.
         24    2    5    5    0    0 -0.27574579787E+02 -0.10196597319E+02  0.85742968547E+01  0.84905419780E+02  0.79190174227E+02 0.  0.
          5    1    5    5  501    0 -0.18434309679E+02  0.91258882823E+02 -0.10989551665E+03  0.14410802215E+03  0.47000000000E+01 0. -1.
        -13    1    6    6    0    0 -0.33205832262E+02 -0.11809158807E+02 -0.29759224173E+02  0.46126943876E+02  0.00000000000E+00 0.  1.
         14    1    6    6    0    0  0.56312524752E+01  0.16125614882E+01  0.38333521028E+02  0.38778475904E+02  0.00000000000E+00 0. -1.
         -5    1    3    3    0  503  0.52992917332E+02 -0.98455766887E+02 -0.53911614659E+03  0.55060884195E+03  0.47000000000E+01 0.  1.
         11    1    4    4    0    0  0.87850316057E+01  0.35041579240E+01 -0.47127718429E+03  0.47137208269E+03  0.00000000000E+00 0. -1.
        -12    1    4    4    0    0 -0.15769059472E+02  0.13889323460E+02 -0.29486218361E+02  0.36207922006E+02  0.00000000000E+00 0.  1.
</event>
<event>
12    1  0.8135779E-002  0.1732564E+03  0.7818608E-02  0.1174625E+00
         21   -1    0    0  501  502  0.00000000000E+00  0.00000000000E+00  0.23097589110E+03  0.23097589110E+03  0.00000000000E+00 0.  1.
         21   -1    0    0  502  503 -0.00000000000E+00 -0.00000000000E+00 -0.18801685189E+03  0.18801685189E+03  0.00000000000E+00 0.  1.
         -6    2    1    2    0  503  0.17889798815E+01 -0.12932217085E+02 -0.95342716136E+02  0.19730565846E+03  0.17224647066E+03 0.  0.
        -24    2    3    3    0    0 -0.35094569698E+02  0.62747534215E+01 -0.11290517096E+00  0.93285896677E+02  0.86204665874E+02 0.  0.
          6    2    1    2  501    0 -0.17889798815E+01  0.12932217085E+02  0.13830175535E+03  0.22168708453E+03  0.17276384236E+03 0.  0.
         24    2    5    5    0    0 -0.91857744716E+00  0.61789732233E+02  0.32780410186E+02  0.10530556249E+03  0.78713984811E+02 0.  0.
          5    1    5    5  501    0 -0.87040243433E+00 -0.48857515148E+02  0.10552134517E+03  0.11638152204E+03  0.47000000000E+01 0. -1.
        -13    1    6    6    0    0 -0.35770962946E+01  0.31078962027E+02  0.57721135681E+02  0.65653842255E+02  0.00000000000E+00 0.  1.
         14    1    6    6    0    0  0.26585188474E+01  0.30710770206E+02 -0.24940725495E+02  0.39651720232E+02  0.00000000000E+00 0. -1.
         -5    1    3    3    0  503  0.36883549579E+02 -0.19206970506E+02 -0.95229810965E+02  0.10401976179E+03  0.47000000000E+01 0.  1.
         11    1    4    4    0    0 -0.17613400893E+02  0.43457521383E+02 -0.15538264776E+02  0.49398640953E+02  0.00000000000E+00 0. -1.
        -12    1    4    4    0    0 -0.17481168804E+02 -0.37182767961E+02  0.15425359605E+02  0.43887255724E+02  0.00000000000E+00 0.  1.
</event>
<event>
12    1  0.8135779E-002  0.2133425E+03  0.7818608E-02  0.1139766E+00
         21   -1    0    0  501  502  0.00000000000E+00  0.00000000000E+00  0.10623694914E+03  0.10623694914E+03  0.00000000000E+00 0.  1.
         21   -1    0    0  502  503 -0.00000000000E+00 -0.00000000000E+00 -0.87577795174E+03  0.87577795174E+03  0.00000000000E+00 0.  1.
         -6    2    1    2    0  503  0.90736496153E+02 -0.76300657719E+02 -0.73712257471E+03  0.76622338976E+03  0.17231857345E+03 0.  0.
        -24    2    3    3    0    0 -0.34186155900E+01 -0.81218456195E+02 -0.36105173014E+03  0.37848541128E+03  0.79276290032E+02 0.  0.
          6    2    1    2  501    0 -0.90736496153E+02  0.76300657719E+02 -0.32418427882E+02  0.21579151113E+03  0.17737000791E+03 0.  0.
         24    2    5    5    0    0 -0.72825592379E+02  0.93065892514E+02  0.32357731517E+02  0.14636590779E+03  0.80069525541E+02 0.  0.
          5    1    5    5  501    0 -0.17910903774E+02 -0.16765234795E+02 -0.64776159399E+02  0.69425603333E+02  0.47000000000E+01 0. -1.
        -11    1    6    6    0    0 -0.78580902843E+02  0.55465481744E+02  0.45123393290E+02  0.10624264012E+03  0.00000000000E+00 0.  1.
         12    1    6    6    0    0  0.57553104634E+01  0.37600410770E+02 -0.12765661774E+02  0.40123267677E+02  0.00000000000E+00 0. -1.
         -5    1    3    3    0  503  0.94155111743E+02  0.49177984767E+01 -0.37607084458E+03  0.38773797847E+03  0.47000000000E+01 0.  1.
         13    1    4    4    0    0  0.13015868885E+02 -0.53574811692E+02 -0.90086823173E+02  0.10561869626E+03  0.00000000000E+00 0. -1.
        -14    1    4    4    0    0 -0.16434484475E+02 -0.27643644503E+02 -0.27096490696E+03  0.27286671502E+03  0.00000000000E+00 0.  1.
</event>
<event>
12    1  0.8135779E-002  0.2310221E+03  0.7818608E-02  0.1126056E+00
         21   -1    0    0  503  502  0.00000000000E+00  0.00000000000E+00  0.17154091804E+03  0.17154091804E+03  0.00000000000E+00 0.  1.
         21   -1    0    0  501  503 -0.00000000000E+00 -0.00000000000E+00 -0.31062479880E+03  0.31062479880E+03  0.00000000000E+00 0.  1.
          6    2    1    2  501    0 -0.76720882264E+02  0.13073224961E+03 -0.59556947753E+02  0.23783861946E+03  0.17332963975E+03 0.  0.
         24    2    3    3    0    0 -0.98195739216E+02  0.15291665139E+03 -0.43480183258E+02  0.20271214056E+03  0.78586131864E+02 0.  0.
         -6    2    1    2    0  502  0.76720882264E+02 -0.13073224961E+03 -0.79526933006E+02  0.24432709739E+03  0.17433927436E+03 0.  0.
        -24    2    5    5    0    0  0.19244807215E+02  0.22156350103E+01 -0.48768519603E+02  0.96182542232E+02  0.80606707429E+02 0.  0.
          5    1    3    3  501    0  0.21474856952E+02 -0.22184401774E+02 -0.16076764495E+02  0.35126478898E+02  0.47000000000E+01 0. -1.
        -11    1    4    4    0    0 -0.20793630984E+02  0.55634441840E+02  0.20582802638E+02  0.62858714374E+02  0.00000000000E+00 0.  1.
         12    1    4    4    0    0 -0.77402108233E+02  0.97282209547E+02 -0.64062985896E+02  0.13985342618E+03  0.00000000000E+00 0. -1.
         -5    1    5    5    0  502  0.57476075049E+02 -0.13294788462E+03 -0.30758413403E+02  0.14814455516E+03  0.47000000000E+01 0.  1.
         11    1    6    6    0    0 -0.13007632083E+02 -0.93244068784E+01 -0.58437327906E+02  0.60589308865E+02  0.00000000000E+00 0. -1.
        -12    1    6    6    0    0  0.32252439298E+02  0.11540041889E+02  0.96688083027E+01  0.35593233366E+02  0.00000000000E+00 0.  1.
</event>
<event>
12    1  0.8135779E-002  0.2055021E+03  0.7818608E-02  0.1145270E+00
         21   -1    0    0  501  502  0.00000000000E+00  0.00000000000E+00  0.72599768856E+03  0.72599768856E+03  0.00000000000E+00 0. -1.
         21   -1    0    0  502  503 -0.00000000000E+00 -0.00000000000E+00 -0.58147968016E+02  0.58147968016E+02  0.00000000000E+00 0. -1.
         -6    2    1    2    0  503  0.59887288936E+02  0.92685787018E+02  0.35023051446E+03  0.40584275150E+03  0.17282876842E+03 0.  0.
        -24    2    3    3    0    0  0.66945585367E+02  0.12832208612E+03  0.25647206131E+03  0.30518241721E+03  0.80063227236E+02 0.  0.
          6    2    1    2  501    0 -0.59887288936E+02 -0.92685787018E+02  0.31761920608E+03  0.37830290508E+03  0.17336085321E+03 0.  0.
         24    2    5    5    0    0 -0.46957369662E+02 -0.10950357275E+03  0.32497824242E+03  0.35536241369E+03  0.80470864324E+02 0.  0.
          5    1    5    5  501    0 -0.12929919274E+02  0.16817785730E+02 -0.73590363409E+01  0.22940491389E+02  0.47000000000E+01 0. -1.
        -13    1    6    6    0    0  0.19552405808E+02 -0.17736830179E+02  0.33676288672E+02  0.42790000426E+02  0.00000000000E+00 0.  1.
         14    1    6    6    0    0 -0.66509775470E+02 -0.91766742569E+02  0.29130195375E+03  0.31257241326E+03  0.00000000000E+00 0. -1.
         -5    1    3    3    0  503 -0.70582964310E+01 -0.35636299097E+02  0.93758453157E+02  0.10066033429E+03  0.47000000000E+01 0.  1.
         11    1    4    4    0    0  0.47973216264E+02  0.34048999355E+02  0.49203547907E+02  0.76692587403E+02  0.00000000000E+00 0. -1.
        -12    1    4    4    0    0  0.18972369103E+02  0.94273086760E+02  0.20726851340E+03  0.22848982980E+03  0.00000000000E+00 0.  1.
</event>
<event>
12    1  0.8135779E-002  0.1894848E+03  0.7818608E-02  0.1160305E+00
         21   -1    0    0  503  502  0.00000000000E+00  0.00000000000E+00  0.10452159622E+03  0.10452159622E+03  0.00000000000E+00 0.  1.
         21   -1    0    0  501  503 -0.00000000000E+00 -0.00000000000E+00 -0.33738615168E+03  0.33738615168E+03  0.00000000000E+00 0. -1.
          6    2    1    2  501    0 -0.46591200780E+02 -0.45714035203E+02 -0.14418916180E+03  0.23810716349E+03  0.17788758788E+03 0.  0.
         24    2    3    3    0    0 -0.39706191671E+02 -0.96045866632E+02 -0.13087644160E+03  0.18538131476E+03  0.80225923139E+02 0.  0.
         -6    2    1    2    0  502  0.46591200780E+02  0.45714035203E+02 -0.88675393661E+02  0.20380058440E+03  0.17149588845E+03 0.  0.
        -24    2    5    5    0    0  0.37340960310E+01  0.23252028578E+02 -0.11937878118E+03  0.14630222639E+03  0.81230830020E+02 0.  0.
          5    1    3    3  501    0 -0.68850091085E+01  0.50331831429E+02 -0.13312720201E+02  0.52725848732E+02  0.47000000000E+01 0. -1.
        -11    1    4    4    0    0  0.13954738837E+02 -0.56912841106E+02 -0.33457826772E+02  0.67477643639E+02  0.00000000000E+00 0.  1.
         12    1    4    4    0    0 -0.53660930508E+02 -0.39133025526E+02 -0.97418614823E+02  0.11790367112E+03  0.00000000000E+00 0. -1.
         -5    1    5    5    0  502  0.42857104749E+02  0.22462006625E+02  0.30703387514E+02  0.57498358011E+02  0.47000000000E+01 0.  1.
         13    1    6    6    0    0  0.39023267984E+02  0.28643526456E+02 -0.76220340861E+02  0.90292897909E+02  0.00000000000E+00 0. -1.
        -14    1    6    6    0    0 -0.35289171953E+02 -0.53914978773E+01 -0.43158440314E+02  0.56009328481E+02  0.00000000000E+00 0.  1.
</event>
<event>
12    1  0.8135779E-002  0.1930095E+03  0.7818608E-02  0.1156011E+00
         21   -1    0    0  503  502  0.00000000000E+00  0.00000000000E+00  0.43035401069E+02  0.43035401069E+02  0.00000000000E+00 0. -1.
         21   -1    0    0  501  503 -0.00000000000E+00 -0.00000000000E+00 -0.89965716454E+03  0.89965716454E+03  0.00000000000E+00 0. -1.
          6    2    1    2  501    0 -0.77969915726E+02 -0.34969521294E+02 -0.52506218637E+03  0.55904633512E+03  0.17187300566E+03 0.  0.
         24    2    3    3    0    0 -0.95146760130E+02  0.24261764048E+02 -0.40079602234E+03  0.42023870323E+03  0.79508345551E+02 0.  0.
         -6    2    1    2    0  502  0.77969915726E+02  0.34969521294E+02 -0.33155957710E+03  0.38364623049E+03  0.17306213285E+03 0.  0.
        -24    2    5    5    0    0  0.76219086053E+02  0.26272970446E+02 -0.34841007548E+03  0.36403183025E+03  0.68043917271E+02 0.  0.
          5    1    3    3  501    0  0.17176844403E+02 -0.59231285343E+02 -0.12426616404E+03  0.13880763189E+03  0.47000000000E+01 0. -1.
        -13    1    4    4    0    0 -0.24542003904E+01  0.25069517812E+02 -0.36594998769E+02  0.44426318301E+02  0.00000000000E+00 0.  1.
         14    1    4    4    0    0 -0.92692559739E+02 -0.80775376348E+00 -0.36420102357E+03  0.37581238493E+03  0.00000000000E+00 0. -1.
         -5    1    5    5    0  502  0.17508296733E+01  0.86965508487E+01  0.16850498385E+02  0.19614400246E+02  0.47000000000E+01 0.  1.
         13    1    6    6    0    0  0.28961847108E+02  0.23690911660E+02 -0.53132801893E+02  0.64985710123E+02  0.00000000000E+00 0. -1.
        -14    1    6    6    0    0  0.47257238945E+02  0.25820587855E+01 -0.29527727359E+03  0.29904612012E+03  0.00000000000E+00 0.  1.
</event>
<event>
12    1  0.8135779E-002  0.1792808E+03  0.7818608E-02  0.1168611E+00
         21   -1    0    0  503  502  0.00000000000E+00  0.00000000000E+00  0.72538705333E+03  0.72538705333E+03  0.00000000000E+00 0.  1.
         21   -1    0    0  501  503 -0.00000000000E+00 -0.00000000000E+00 -0.74665105195E+02  0.74665105195E+02  0.00000000000E+00 0.  1.
          6    2    1    2  501    0 -0.26220922834E+02  0.44953562490E+02  0.69588501674E+02  0.19189289799E+03  0.17109051744E+03 0.  0.
         24    2    3    3    0    0 -0.52744900738E+02 -0.32920974740E+02  0.26200562978E+02  0.98766273560E+02  0.72128303466E+02 0.  0.
         -6    2    1    2    0  502  0.26220922834E+02 -0.44953562490E+02  0.58113344646E+03  0.60815926054E+03  0.17156119611E+03 0.  0.
        -24    2    5    5    0    0 -0.22809073477E+02 -0.76031776784E+02  0.28343987915E+03  0.30482224341E+03  0.79229729719E+02 0.  0.
          5    1    3    3  501    0  0.26523977904E+02  0.77874537230E+02  0.43387938696E+02  0.93126624425E+02  0.47000000000E+01 0. -1.
        -11    1    4    4    0    0 -0.57202193406E+02  0.20869099371E+01  0.46791720223E+01  0.57431182944E+02  0.00000000000E+00 0.  1.
         12    1    4    4    0    0  0.44572926687E+01 -0.35007884677E+02  0.21521390956E+02  0.41335090616E+02  0.00000000000E+00 0. -1.
         -5    1    5    5    0  502  0.49029996311E+02  0.31078214294E+02  0.29769356732E+03  0.30333701713E+03  0.47000000000E+01 0.  1.
         13    1    6    6    0    0 -0.31031253178E+02 -0.77527798471E+02  0.15460216564E+03  0.17571376677E+03  0.00000000000E+00 0. -1.
        -14    1    6    6    0    0  0.82221797013E+01  0.14960216865E+01  0.12883771350E+03  0.12910847664E+03  0.00000000000E+00 0.  1.
</event>
<event>
12    1  0.8135779E-002  0.3355181E+03  0.7818608E-02  0.1068902E+00
         21   -1    0    0  501  502  0.00000000000E+00  0.00000000000E+00  0.10516772793E+03  0.10516772793E+03  0.00000000000E+00 0.  1.
         21   -1    0    0  502  503 -0.00000000000E+00 -0.00000000000E+00 -0.10999010052E+04  0.10999010052E+04  0.00000000000E+00 0. -1.
         -6    2    1    2    0  503  0.27700524871E+03 -0.73988513424E+02 -0.60336578364E+03  0.68956808242E+03  0.17101948277E+03 0.  0.
        -24    2    3    3    0    0  0.15903679439E+03 -0.10195406952E+03 -0.45737232059E+03  0.49973971311E+03  0.69735263312E+02 0.  0.
          6    2    1    2  501    0 -0.27700524871E+03  0.73988513424E+02 -0.39136749365E+03  0.51550065074E+03  0.17425899660E+03 0.  0.
         24    2    5    5    0    0 -0.43177537793E+02  0.34169589369E+02 -0.10822529428E+03  0.14610582109E+03  0.81254760034E+02 0.  0.
          5    1    5    5  501    0 -0.23382771092E+03  0.39818924054E+02 -0.28314219937E+03  0.36939482965E+03  0.47000000000E+01 0. -1.
        -13    1    6    6    0    0 -0.56762045314E+02  0.16859111034E+02 -0.33125602013E+02  0.67848838765E+02  0.00000000000E+00 0.  1.
         14    1    6    6    0    0  0.13584507521E+02  0.17310478335E+02 -0.75099692264E+02  0.78256982327E+02  0.00000000000E+00 0. -1.
         -5    1    3    3    0  503  0.11796845432E+03  0.27965556092E+02 -0.14599346305E+03  0.18982836931E+03  0.47000000000E+01 0.  1.
         13    1    4    4    0    0  0.16155139747E+03 -0.83844603016E+02 -0.39862343319E+03  0.43821160752E+03  0.00000000000E+00 0. -1.
        -14    1    4    4    0    0 -0.25146030782E+01 -0.18109466500E+02 -0.58748887407E+02  0.61528105587E+02  0.00000000000E+00 0.  1.
</event>
<event>
12    1  0.8135779E-002  0.2396593E+03  0.7818608E-02  0.1120071E+00
         21   -1    0    0  503  502  0.00000000000E+00  0.00000000000E+00  0.10088167257E+03  0.10088167257E+03  0.00000000000E+00 0. -1.
         21   -1    0    0  501  503 -0.00000000000E+00 -0.00000000000E+00 -0.65786566570E+03  0.65786566570E+03  0.00000000000E+00 0. -1.
          6    2    1    2  501    0  0.16538691207E+03 -0.27320050893E+02 -0.41807141136E+03  0.48173958442E+03  0.17085112328E+03 0.  0.
         24    2    3    3    0    0  0.49927487512E+02  0.42415709108E+02 -0.18036846315E+03  0.20839230249E+03  0.81257140317E+02 0.  0.
         -6    2    1    2    0  502 -0.16538691207E+03  0.27320050893E+02 -0.13891258176E+03  0.27700775385E+03  0.17128156485E+03 0.  0.
        -24    2    5    5    0    0 -0.15618381463E+03  0.35496190334E+02 -0.45991574441E+02  0.18315707532E+03  0.76012668954E+02 0.  0.
          5    1    3    3  501    0  0.11545942456E+03 -0.69735760001E+02 -0.23770294822E+03  0.27334728192E+03  0.47000000000E+01 0. -1.
        -11    1    4    4    0    0  0.20753987152E+02  0.34514161487E+02 -0.17252951511E+03  0.17716768585E+03  0.00000000000E+00 0.  1.
         12    1    4    4    0    0  0.29173500360E+02  0.79015476208E+01 -0.78389480346E+01  0.31224616641E+02  0.00000000000E+00 0. -1.
         -5    1    5    5    0  502 -0.92030974409E+01 -0.81761394402E+01 -0.92921007320E+02  0.93850678527E+02  0.47000000000E+01 0.  1.
         11    1    6    6    0    0 -0.94368488193E+02  0.55779987044E+02 -0.13539503840E+02  0.11045422890E+03  0.00000000000E+00 0. -1.
        -12    1    6    6    0    0 -0.61815326436E+02 -0.20283796710E+02 -0.32452070601E+02  0.72702846421E+02  0.00000000000E+00 0.  1.
</event>
<event>
12    1  0.8135779E-002  0.2123986E+03  0.7818608E-02  0.1139945E+00
         21   -1    0    0  503  502  0.00000000000E+00  0.00000000000E+00  0.10024971561E+04  0.10024971561E+04  0.00000000000E+00 0. -1.
         21   -1    0    0  501  503 -0.00000000000E+00 -0.00000000000E+00 -0.70882717951E+02  0.70882717951E+02  0.00000000000E+00 0.  1.
          6    2    1    2  501    0  0.11708824803E+03 -0.40723243045E+02  0.14065650921E+03  0.25474969502E+03  0.17246771634E+03 0.  0.
         24    2    3    3    0    0  0.63842770250E+02 -0.93029837600E+02  0.10547534282E+03  0.17210064659E+03  0.75915312143E+02 0.  0.
         -6    2    1    2    0  502 -0.11708824803E+03  0.40723243045E+02  0.79095792897E+03  0.81863017906E+03  0.17080071520E+03 0.  0.
        -24    2    5    5    0    0 -0.63803952596E+02  0.49129269276E+02  0.72320152067E+03  0.73189553613E+03  0.78523925350E+02 0.  0.
          5    1    3    3  501    0  0.53245477780E+02  0.52306594555E+02  0.35181166386E+02  0.82649048429E+02  0.47000000000E+01 0. -1.
        -11    1    4    4    0    0  0.20676253544E+02 -0.64049766886E+02  0.16900580534E+02  0.69393873802E+02  0.00000000000E+00 0.  1.
         12    1    4    4    0    0  0.43166516706E+02 -0.28980070713E+02  0.88574762288E+02  0.10270677279E+03  0.00000000000E+00 0. -1.
         -5    1    5    5    0  502 -0.53284295433E+02 -0.84060262309E+01  0.67756408306E+02  0.86734642925E+02  0.47000000000E+01 0.  1.
         11    1    6    6    0    0 -0.59966183379E+02  0.62712554981E+02  0.44759034050E+03  0.45592315209E+03  0.00000000000E+00 0. -1.
        -12    1    6    6    0    0 -0.38377692173E+01 -0.13583285706E+02  0.27561118017E+03  0.27597238405E+03  0.00000000000E+00 0.  1.
</event>
<event>
12    1  0.8135779E-002  0.2018390E+03  0.7818608E-02  0.1148367E+00
         21   -1    0    0  501  502  0.00000000000E+00  0.00000000000E+00  0.21214780439E+03  0.21214780439E+03  0.00000000000E+00 0. -1.
         21   -1    0    0  502  503 -0.00000000000E+00 -0.00000000000E+00 -0.19648892548E+03  0.19648892548E+03  0.00000000000E+00 0. -1.
         -6    2    1    2    0  503  0.56581363213E+02  0.86889135657E+02 -0.25532404609E+02  0.20263744778E+03  0.17221747588E+03 0.  0.
        -24    2    3    3    0    0  0.90400309491E+02  0.16897509162E+02 -0.11256349267E+01  0.12102660712E+03  0.78666579972E+02 0.  0.
          6    2    1    2  501    0 -0.56581363213E+02 -0.86889135657E+02  0.41191283512E+02  0.20599928209E+03  0.17316988718E+03 0.  0.
         24    2    5    5    0    0  0.93856139477E+01 -0.23566990926E+02 -0.30453480127E+02  0.89739236308E+02  0.80512255408E+02 0.  0.
          5    1    5    5  501    0 -0.65966977161E+02 -0.63322144732E+02  0.71644763639E+02  0.11626004579E+03  0.47000000000E+01 0. -1.
        -13    1    6    6    0    0 -0.14458374380E+02  0.25806089989E+02 -0.11110492639E+02  0.31598131542E+02  0.00000000000E+00 0.  1.
         14    1    6    6    0    0  0.23843988328E+02 -0.49373080915E+02 -0.19342987489E+02  0.58141104766E+02  0.00000000000E+00 0. -1.
         -5    1    3    3    0  503 -0.33818946278E+02  0.69991626496E+02 -0.24406769683E+02  0.81610840660E+02  0.47000000000E+01 0.  1.
         13    1    4    4    0    0  0.36877341843E+02  0.40618251594E+02  0.20571403475E+02  0.58591495500E+02  0.00000000000E+00 0. -1.
        -14    1    4    4    0    0  0.53522967648E+02 -0.23720742432E+02 -0.21697038402E+02  0.62435111618E+02  0.00000000000E+00 0.  1.
</event>
<event>
12    1  0.8135779E-002  0.1854987E+03  0.7818608E-02  0.1165179E+00
         21   -1    0    0  501  502  0.00000000000E+00  0.00000000000E+00  0.51790542877E+02  0.51790542877E+02  0.00000000000E+00 0. -1.
         21   -1    0    0  502  503 -0.00000000000E+00 -0.00000000000E+00 -0.67597713281E+03  0.67597713281E+03  0.00000000000E+00 0. -1.
         -6    2    1    2    0  503  0.47577242133E+01 -0.24032439038E+02 -0.41936862246E+03  0.45856275479E+03  0.18387377330E+03 0.  0.
        -24    2    3    3    0    0  0.24962862689E+02 -0.79521194864E+02 -0.17512513441E+03  0.20723782347E+03  0.73020119354E+02 0.  0.
          6    2    1    2  501    0 -0.47577242133E+01  0.24032439038E+02 -0.20481796747E+03  0.26920492090E+03  0.17297599710E+03 0.  0.
         24    2    5    5    0    0  0.44947492113E+02  0.61410874837E+02 -0.14802829117E+03  0.18485497527E+03  0.80420235642E+02 0.  0.
          5    1    5    5  501    0 -0.49705216327E+02 -0.37378435799E+02 -0.56789676302E+02  0.84349945627E+02  0.47000000000E+01 0. -1.
        -13    1    6    6    0    0 -0.25638096003E+01 -0.17878279039E+02 -0.28759951516E+02  0.33960871489E+02  0.00000000000E+00 0.  1.
         14    1    6    6    0    0  0.47511301714E+02  0.79289153876E+02 -0.11926833966E+03  0.15089410378E+03  0.00000000000E+00 0. -1.
         -5    1    3    3    0  503 -0.20205138476E+02  0.55488755826E+02 -0.24424348805E+03  0.25132493131E+03  0.47000000000E+01 0.  1.
         13    1    4    4    0    0 -0.14002501155E+02 -0.22090518106E+02 -0.10639579012E+03  0.10956333868E+03  0.00000000000E+00 0. -1.
        -14    1    4    4    0    0  0.38965363844E+02 -0.57430676758E+02 -0.68729344290E+02  0.97674484790E+02  0.00000000000E+00 0.  1.
</event>
<event>
12    1  0.8135779E-002  0.2368470E+03  0.7818608E-02  0.1122961E+00
         21   -1    0    0  501  502  0.00000000000E+00  0.00000000000E+00  0.46643355859E+03  0.46643355859E+03  0.00000000000E+00 0. -1.
         21   -1    0    0  502  503 -0.00000000000E+00 -0.00000000000E+00 -0.12347614551E+03  0.12347614551E+03  0.00000000000E+00 0.  1.
         -6    2    1    2    0  503  0.46041717627E+02  0.14909249489E+03  0.24018324894E+03  0.33731957631E+03  0.17817994190E+03 0.  0.
        -24    2    3    3    0    0 -0.31044899437E+02  0.87979840484E+02  0.19197208191E+03  0.22766781077E+03  0.79215615351E+02 0.  0.
          6    2    1    2  501    0 -0.46041717627E+02 -0.14909249489E+03  0.10277416414E+03  0.25259012780E+03  0.16997303331E+03 0.  0.
         24    2    5    5    0    0 -0.52084318977E+02 -0.17840773167E+03  0.91680772048E+02  0.22032482931E+03  0.74803552346E+02 0.  0.
          5    1    5    5  501    0  0.60426013493E+01  0.29315236780E+02  0.11093392093E+02  0.32265298490E+02  0.47000000000E+01 0. -1.
        -13    1    6    6    0    0 -0.21974994414E+02 -0.14808863569E+03  0.43448554103E+02  0.15588752757E+03  0.00000000000E+00 0.  1.
         14    1    6    6    0    0 -0.30109324563E+02 -0.30319095979E+02  0.48232217945E+02  0.64437301732E+02  0.00000000000E+00 0. -1.
         -5    1    3    3    0  503  0.77086617065E+02  0.61112654403E+02  0.48211167024E+02  0.10965176553E+03  0.47000000000E+01 0.  1.
         13    1    4    4    0    0  0.80212175220E+01  0.61211155494E+02  0.15728281609E+03  0.16896458127E+03  0.00000000000E+00 0. -1.
        -14    1    4    4    0    0 -0.39066116959E+02  0.26768684991E+02  0.34689265823E+02  0.58703229500E+02  0.00000000000E+00 0.  1.
</event>
<event>
12    1  0.8135779E-002  0.1832450E+03  0.7818608E-02  0.1164881E+00
         21   -1    0    0  503  502  0.00000000000E+00  0.00000000000E+00  0.10737017077E+03  0.10737017077E+03  0.00000000000E+00 0.  1.
         21   -1    0    0  501  503 -0.00000000000E+00 -0.00000000000E+00 -0.54235030405E+03  0.54235030405E+03  0.00000000000E+00 0.  1.
          6    2    1    2  501    0  0.58334131006E+02 -0.15438476161E+02 -0.42972857384E+03  0.46716741636E+03  0.17302465242E+03 0.  0.
         24    2    3    3    0    0  0.10454615665E+03  0.86152090923E+01 -0.31311436478E+03  0.33935859490E+03  0.78227423599E+02 0.  0.
         -6    2    1    2    0  502 -0.58334131006E+02  0.15438476161E+02 -0.52515594400E+01  0.18255305846E+03  0.17221156433E+03 0.  0.
        -24    2    5    5    0    0  0.10218021684E+02 -0.34866983032E+02  0.25836665573E+02  0.91896538574E+02  0.80357489017E+02 0.  0.
          5    1    3    3  501    0 -0.46212025642E+02 -0.24053685253E+02 -0.11661420905E+03  0.12780882145E+03  0.47000000000E+01 0. -1.
        -13    1    4    4    0    0  0.40042602895E+02  0.37947444978E+02 -0.93128516041E+02  0.10824203955E+03  0.00000000000E+00 0.  1.
         14    1    4    4    0    0  0.64503553754E+02 -0.29332235886E+02 -0.21998584874E+03  0.23111655535E+03  0.00000000000E+00 0. -1.
         -5    1    5    5    0  502 -0.68552152690E+02  0.50305459193E+02 -0.31088225013E+02  0.90656519884E+02  0.47000000000E+01 0.  1.
         13    1    6    6    0    0  0.38879490511E+02  0.55698434654E+00 -0.12192265752E+01  0.38902590240E+02  0.00000000000E+00 0. -1.
        -14    1    6    6    0    0 -0.28661468826E+02 -0.35423967378E+02  0.27055892148E+02  0.52993948334E+02  0.00000000000E+00 0.  1.
</event>
<event>
12    1  0.8135779E-002  0.1963198E+03  0.7818608E-02  0.1153244E+00
         21   -1    0    0  501  502  0.00000000000E+00  0.00000000000E+00  0.23217516888E+02  0.23217516888E+02  0.00000000000E+00 0.  1.
         21   -1    0    0  502  503 -0.00000000000E+00 -0.00000000000E+00 -0.18407374027E+04  0.18407374027E+04  0.00000000000E+00 0.  1.
         -6    2    1    2    0  503  0.52312556253E+02  0.78995481373E+02 -0.12084732174E+04  0.12240492182E+04  0.17003553127E+03 0.  0.
        -24    2    3    3    0    0  0.96372011171E+01  0.41912540919E+02 -0.10799136927E+04  0.10835288575E+04  0.77276545539E+02 0.  0.
          6    2    1    2  501    0 -0.52312556253E+02 -0.78995481373E+02 -0.60904666842E+03  0.63990570135E+03  0.17194351598E+03 0.  0.
         24    2    5    5    0    0  0.18236971935E+02 -0.85218468886E+02 -0.29395071298E+03  0.31691419583E+03  0.80204808299E+02 0.  0.
          5    1    5    5  501    0 -0.70549528189E+02  0.62229875133E+01 -0.31509595544E+03  0.32299150552E+03  0.47000000000E+01 0. -1.
        -11    1    6    6    0    0 -0.54002057760E+01  0.12822782484E+02 -0.15842300513E+02  0.21084697261E+02  0.00000000000E+00 0.  1.
         12    1    6    6    0    0  0.23637177711E+02 -0.98041251370E+02 -0.27810841246E+03  0.29582949857E+03  0.00000000000E+00 0. -1.
         -5    1    3    3    0  503  0.42675355136E+02  0.37082940454E+02 -0.12855952464E+03  0.14052036074E+03  0.47000000000E+01 0.  1.
         13    1    4    4    0    0 -0.21075851918E+02  0.23427667921E+02 -0.87043174760E+03  0.87100199448E+03  0.00000000000E+00 0. -1.
        -14    1    4    4    0    0  0.30713053035E+02  0.18484872998E+02 -0.20948194514E+03  0.21252686300E+03  0.00000000000E+00 0.  1.
</event>
<event>
12    1  0.8135779E-002  0.1775733E+03  0.7818608E-02  0.1170212E+00
         21   -1    0    0  501  502  0.00000000000E+00  0.00000000000E+00  0.15616677748E+03  0.15616677748E+03  0.00000000000E+00 0.  1.
         21   -1    0    0  502  503 -0.00000000000E+00 -0.00000000000E+00 -0.20174881319E+03  0.20174881319E+03  0.00000000000E+00 0.  1.
         -6    2    1    2    0  503 -0.29802629739E+02  0.30576072608E+02 -0.24493104578E+02  0.17925452980E+03  0.17236351506E+03 0.  0.
        -24    2    3    3    0    0  0.33687750535E+02  0.22258768106E+02  0.26021623793E+02  0.97559770333E+02  0.84914466311E+02 0.  0.
          6    2    1    2  501    0  0.29802629739E+02 -0.30576072608E+02 -0.21088931132E+02  0.17866106087E+03  0.17219738297E+03 0.  0.
         24    2    5    5    0    0 -0.21051865627E+02 -0.54511564750E+02  0.27899274843E+02  0.10395482414E+03  0.81323700029E+02 0.  0.
          5    1    5    5  501    0  0.50854495366E+02  0.23935492142E+02 -0.48988205975E+02  0.74706236739E+02  0.47000000000E+01 0. -1.
        -11    1    6    6    0    0  0.11891672419E+02 -0.22660358814E+02  0.47625751665E+02  0.54065848335E+02  0.00000000000E+00 0.  1.
         12    1    6    6    0    0 -0.32943538047E+02 -0.31851205935E+02 -0.19726476822E+02  0.49888975800E+02  0.00000000000E+00 0. -1.
         -5    1    3    3    0  503 -0.63490380274E+02  0.83173045024E+01 -0.50514728371E+02  0.81694759464E+02  0.47000000000E+01 0.  1.
         13    1    4    4    0    0  0.21964501186E+02  0.53664945238E+02  0.27129603611E+02  0.64018599264E+02  0.00000000000E+00 0. -1.
        -14    1    4    4    0    0  0.11723249349E+02 -0.31406177132E+02 -0.11079798180E+01  0.33541171068E+02  0.00000000000E+00 0.  1.
</event>
<event>
12    1  0.8135779E-002  0.3040029E+03  0.7818608E-02  0.1083491E+00
         21   -1    0    0  503  502  0.00000000000E+00  0.00000000000E+00  0.85472120961E+03  0.85472120961E+03  0.00000000000E+00 0.  1.
         21   -1    0    0  501  503 -0.00000000000E+00 -0.00000000000E+00 -0.11121339055E+03  0.11121339055E+03  0.00000000000E+00 0.  1.
          6    2    1    2  501    0 -0.12716856500E+03 -0.21364578913E+03  0.46170289692E+03  0.55279951545E+03  0.17493247876E+03 0.  0.
         24    2    3    3    0    0 -0.97837450112E+02 -0.19396631181E+03  0.24990690261E+03  0.33802700945E+03  0.67924240058E+02 0.  0.
         -6    2    1    2    0  502  0.12716856500E+03  0.21364578913E+03  0.28180492215E+03  0.41313508470E+03  0.17161065506E+03 0.  0.
        -24    2    5    5    0    0  0.10959560418E+03  0.15384104426E+03  0.11480945960E+03  0.23482358487E+03  0.79263110231E+02 0.  0.
          5    1    3    3  501    0 -0.29331114884E+02 -0.19679477324E+02  0.21179599431E+03  0.21477250600E+03  0.47000000000E+01 0. -1.
        -13    1    4    4    0    0 -0.59396458048E+02 -0.53909151985E+02  0.67307390978E+02  0.10471113015E+03  0.00000000000E+00 0.  1.
         14    1    4    4    0    0 -0.38440992063E+02 -0.14005715982E+03  0.18259951163E+03  0.23331587930E+03  0.00000000000E+00 0. -1.
         -5    1    5    5    0  502  0.17572960813E+02  0.59804744867E+02  0.16699546255E+03  0.17831149983E+03  0.47000000000E+01 0.  1.
         11    1    6    6    0    0  0.31928845789E+02  0.30368386448E+02  0.69112347965E+02  0.81964667571E+02  0.00000000000E+00 0. -1.
        -12    1    6    6    0    0  0.77666758394E+02  0.12347265781E+03  0.45697111634E+02  0.15285891730E+03  0.00000000000E+00 0.  1.
</event>
<event>
12    1  0.8135779E-002  0.2858486E+03  0.7818608E-02  0.1092886E+00
         21   -1    0    0  503  502  0.00000000000E+00  0.00000000000E+00  0.44903044822E+03  0.44903044822E+03  0.00000000000E+00 0.  1.
         21   -1    0    0  501  503 -0.00000000000E+00 -0.00000000000E+00 -0.24668688556E+03  0.24668688556E+03  0.00000000000E+00 0.  1.
          6    2    1    2  501    0 -0.69195046289E+02  0.21454180340E+03 -0.79607230225E+02  0.29421308564E+03  0.17148728471E+03 0.  0.
         24    2    3    3    0    0 -0.11355282350E+03  0.14589617172E+03 -0.61605938908E+02  0.21039201646E+03  0.79306823396E+02 0.  0.
         -6    2    1    2    0  502  0.69195046289E+02 -0.21454180340E+03  0.28195079288E+03  0.40150424814E+03  0.17576481965E+03 0.  0.
        -24    2    5    5    0    0  0.10573677686E+03 -0.10157043997E+03  0.17156227638E+03  0.23931441613E+03  0.79630112617E+02 0.  0.
          5    1    3    3  501    0  0.44357777207E+02  0.68645631688E+02 -0.18001291317E+02  0.83821069175E+02  0.47000000000E+01 0. -1.
        -13    1    4    4    0    0 -0.43151696459E+02  0.97893541690E+02 -0.30930974406E+01  0.10702701371E+03  0.00000000000E+00 0.  1.
         14    1    4    4    0    0 -0.70401127037E+02  0.48002630027E+02 -0.58512841468E+02  0.10336500275E+03  0.00000000000E+00 0. -1.
         -5    1    5    5    0  502 -0.36541730573E+02 -0.11297136344E+03  0.11038851650E+03  0.16218983200E+03  0.47000000000E+01 0.  1.
         13    1    6    6    0    0  0.60926610377E+02 -0.67783871677E+02  0.15667015588E+03  0.18125187683E+03  0.00000000000E+00 0. -1.
        -14    1    6    6    0    0  0.44810166484E+02 -0.33786568292E+02  0.14892120505E+02  0.58062539304E+02  0.00000000000E+00 0.  1.
</event>
<event>
12    1  0.8135779E-002  0.1802228E+03  0.7818608E-02  0.1167777E+00
         21   -1    0    0  503  502  0.00000000000E+00  0.00000000000E+00  0.23817022668E+03  0.23817022668E+03  0.00000000000E+00 0. -1.
         21   -1    0    0  501  503 -0.00000000000E+00 -0.00000000000E+00 -0.14091881930E+03  0.14091881930E+03  0.00000000000E+00 0. -1.
          6    2    1    2  501    0 -0.30771911094E+02 -0.43467172478E+02  0.84917881620E+02  0.19922675831E+03  0.17217418219E+03 0.  0.
         24    2    3    3    0    0 -0.13465521851E+02 -0.76701697035E+02  0.10752363481E+03  0.15521363745E+03  0.80408150079E+02 0.  0.
         -6    2    1    2    0  502  0.30771911094E+02  0.43467172478E+02  0.12333525764E+02  0.17986228766E+03  0.17135349739E+03 0.  0.
        -24    2    5    5    0    0  0.62717050695E+02  0.26714573521E+02  0.59462279238E+02  0.12032783612E+03  0.79346887827E+02 0.  0.
          5    1    3    3  501    0 -0.17306389243E+02  0.33234524557E+02 -0.22605753193E+02  0.44013120868E+02  0.47000000000E+01 0. -1.
        -11    1    4    4    0    0  0.14187558517E+02 -0.81671390418E+02  0.71076117369E+02  0.10919394347E+03  0.00000000000E+00 0.  1.
         12    1    4    4    0    0 -0.27653080368E+02  0.49696933828E+01  0.36447517444E+02  0.46019693980E+02  0.00000000000E+00 0. -1.
         -5    1    5    5    0  502 -0.31945139601E+02  0.16752598957E+02 -0.47128753473E+02  0.59534451537E+02  0.47000000000E+01 0.  1.
         13    1    6    6    0    0  0.42193823669E+02  0.53977123504E+02  0.28336079853E+02  0.74140286208E+02  0.00000000000E+00 0. -1.
        -14    1    6    6    0    0  0.20523227026E+02 -0.27262549982E+02  0.31126199385E+02  0.46187549916E+02  0.00000000000E+00 0.  1.
</event>
<event>
12    1  0.8135779E-002  0.2063927E+03  0.7818608E-02  0.1145540E+00
         21   -1    0    0  503  502  0.00000000000E+00  0.00000000000E+00  0.19392741959E+04  0.19392741959E+04  0.00000000000E+00 0.  1.
         21   -1    0    0  501  503 -0.00000000000E+00 -0.00000000000E+00 -0.65390714792E+02  0.65390714792E+02  0.00000000000E+00 0.  1.
          6    2    1    2  501    0  0.10381182432E+03  0.40245520845E+02  0.11093275922E+03  0.22967387367E+03  0.16747362289E+03 0.  0.
         24    2    3    3    0    0  0.43037919028E+02 -0.30682344365E+01  0.12410244102E+03  0.15374575320E+03  0.79841494366E+02 0.  0.
         -6    2    1    2    0  502 -0.10381182432E+03 -0.40245520845E+02  0.17629507219E+04  0.17749910370E+04  0.17378531836E+03 0.  0.
        -24    2    5    5    0    0 -0.48544955849E+02  0.23370407715E+02  0.13922710951E+04  0.13948241147E+04  0.64905469555E+02 0.  0.
          5    1    3    3  501    0  0.60773905288E+02  0.43313755281E+02 -0.13169681796E+02  0.75928120477E+02  0.47000000000E+01 0. -1.
        -11    1    4    4    0    0 -0.94376912810E+01  0.86846762657E+00 -0.74522674003E+01  0.12056555982E+02  0.00000000000E+00 0.  1.
         12    1    4    4    0    0  0.52475610309E+02 -0.39367020631E+01  0.13155470842E+03  0.14168919722E+03  0.00000000000E+00 0. -1.
         -5    1    5    5    0  502 -0.55266868468E+02 -0.63615928560E+02  0.37067962678E+03  0.38016692232E+03  0.47000000000E+01 0.  1.
         13    1    6    6    0    0 -0.15211177554E+02 -0.21390538780E+02  0.61019320926E+03  0.61075747044E+03  0.00000000000E+00 0. -1.
        -14    1    6    6    0    0 -0.33333778295E+02  0.44760946496E+02  0.78207788582E+03  0.78406664424E+03  0.00000000000E+00 0.  1.
</event>
<event>
12    1  0.8135779E-002  0.1835893E+03  0.7818608E-02  0.1165025E+00
         21   -1    0    0  503  502  0.00000000000E+00  0.00000000000E+00  0.29434584211E+03  0.29434584211E+03  0.00000000000E+00 0.  1.
         21   -1    0    0  501  503 -0.00000000000E+00 -0.00000000000E+00 -0.11422411834E+03  0.11422411834E+03  0.00000000000E+00 0.  1.
          6    2    1    2  501    0 -0.43407970955E+02 -0.38399604377E+02  0.66632977183E+02  0.19273502358E+03  0.17131273773E+03 0.  0.
         24    2    3    3    0    0 -0.39432093473E+02 -0.96303164553E+01  0.10889699200E+03  0.14123923271E+03  0.80264145175E+02 0.  0.
         -6    2    1    2    0  502  0.43407970955E+02  0.38399604377E+02  0.11348874659E+03  0.21583493686E+03  0.17420173021E+03 0.  0.
        -24    2    5    5    0    0  0.24746743864E+02 -0.36485169471E+02  0.14233768775E+02  0.90019153387E+02  0.77183410651E+02 0.  0.
          5    1    3    3  501    0 -0.39758774820E+01 -0.28769287921E+02 -0.42264014814E+02  0.51495790871E+02  0.47000000000E+01 0. -1.
        -11    1    4    4    0    0 -0.27208995758E+02  0.24824962359E+01 -0.34885959554E+01  0.27543829427E+02  0.00000000000E+00 0.  1.
         12    1    4    4    0    0 -0.12223097714E+02 -0.12112812691E+02  0.11238558795E+03  0.11369540329E+03  0.00000000000E+00 0. -1.
         -5    1    5    5    0  502  0.18661227091E+02  0.74884773847E+02  0.99254977815E+02  0.12581578348E+03  0.47000000000E+01 0.  1.
         11    1    6    6    0    0 -0.13640430947E+02 -0.33778336054E+02  0.31199327324E+02  0.47962854048E+02  0.00000000000E+00 0. -1.
        -12    1    6    6    0    0  0.38387174811E+02 -0.27068334168E+01 -0.16965558550E+02  0.42056299338E+02  0.00000000000E+00 0.  1.
</event>
<event>
12    1  0.8135779E-002  0.1866558E+03  0.7818608E-02  0.1161573E+00
         21   -1    0    0  501  502  0.00000000000E+00  0.00000000000E+00  0.27018035897E+03  0.27018035897E+03  0.00000000000E+00 0.  1.
         21   -1    0    0  502  503 -0.00000000000E+00 -0.00000000000E+00 -0.15446552316E+03  0.15446552316E+03  0.00000000000E+00 0. -1.
         -6    2    1    2    0  503  0.28461991361E+02 -0.65332835802E+02 -0.28774090748E+02  0.18860044570E+03  0.17223157501E+03 0.  0.
        -24    2    3    3    0    0  0.20844558190E+02  0.88116498070E+01  0.37447539778E+02  0.88786496851E+02  0.77256604955E+02 0.  0.
          6    2    1    2  501    0 -0.28461991361E+02  0.65332835802E+02  0.14448892655E+03  0.23604543644E+03  0.17251647394E+03 0.  0.
         24    2    5    5    0    0  0.20164439064E+00  0.91473491867E+02  0.43847565310E+02  0.12808381591E+03  0.78201115975E+02 0.  0.
          5    1    5    5  501    0 -0.28663635751E+02 -0.26140656065E+02  0.10064136124E+03  0.10796162053E+03  0.47000000000E+01 0. -1.
        -11    1    6    6    0    0 -0.14701130669E+02  0.85603998103E+01  0.40327173403E+02  0.43768534389E+02  0.00000000000E+00 0.  1.
         12    1    6    6    0    0  0.14902775059E+02  0.82913092057E+02  0.35203919067E+01  0.84315281522E+02  0.00000000000E+00 0. -1.
         -5    1    3    3    0  503  0.76174331704E+01 -0.74144485609E+02 -0.66221630526E+02  0.99813948844E+02  0.47000000000E+01 0.  1.
         13    1    4    4    0    0 -0.21445746615E+02 -0.15435485364E+02 -0.13888569351E+01  0.26459462956E+02  0.00000000000E+00 0. -1.
        -14    1    4    4    0    0  0.42290304806E+02  0.24247135171E+02  0.38836396713E+02  0.62327033895E+02  0.00000000000E+00 0.  1.
</event>
<event>
12    1  0.8135779E-002  0.1847689E+03  0.7818608E-02  0.1164428E+00
         21   -1    0    0  503  502  0.00000000000E+00  0.00000000000E+00  0.19283203849E+03  0.19283203849E+03  0.00000000000E+00 0. -1.
         21   -1    0    0  501  503 -0.00000000000E+00 -0.00000000000E+00 -0.37508428101E+03  0.37508428101E+03  0.00000000000E+00 0. -1.
          6    2    1    2  501    0 -0.59081875702E+02 -0.31899167534E+02 -0.29930259589E+03  0.34919199585E+03  0.16686755566E+03 0.  0.
         24    2    3    3    0    0 -0.81931878352E+02 -0.50021334290E+02 -0.29362039290E+03  0.31911022430E+03  0.80021456818E+02 0.  0.
         -6    2    1    2    0  502  0.59081875702E+02  0.31899167534E+02  0.11705035338E+03  0.21872432365E+03  0.17213750202E+03 0.  0.
        -24    2    5    5    0    0 -0.11785080653E+02  0.41915941891E+02  0.11367085489E+03  0.14691922437E+03  0.82270048797E+02 0.  0.
          5    1    3    3  501    0  0.22850002649E+02  0.18122166756E+02 -0.56822029955E+01  0.30081771555E+02  0.47000000000E+01 0. -1.
        -11    1    4    4    0    0 -0.65540059313E+02 -0.85646017952E+01 -0.96198345641E+02  0.11671749433E+03  0.00000000000E+00 0.  1.
         12    1    4    4    0    0 -0.16391819039E+02 -0.41456732495E+02 -0.19742204726E+03  0.20239272997E+03  0.00000000000E+00 0. -1.
         -5    1    5    5    0  502  0.70866956356E+02 -0.10016774358E+02  0.33794984927E+01  0.71805099274E+02  0.47000000000E+01 0.  1.
         11    1    6    6    0    0  0.33387285193E+02  0.25689721021E+02  0.71695031290E+02  0.83155577627E+02  0.00000000000E+00 0. -1.
        -12    1    6    6    0    0 -0.45172365846E+02  0.16226220870E+02  0.41975823599E+02  0.63763646748E+02  0.00000000000E+00 0.  1.
</event>
<event>
12    1  0.8135779E-002  0.1726999E+03  0.7818608E-02  0.1175095E+00
         21   -1    0    0  503  502  0.00000000000E+00  0.00000000000E+00  0.44378590880E+02  0.44378590880E+02  0.00000000000E+00 0. -1.
         21   -1    0    0  501  503 -0.00000000000E+00 -0.00000000000E+00 -0.71064963253E+03  0.71064963253E+03  0.00000000000E+00 0. -1.
          6    2    1    2  501    0 -0.13942529440E+02  0.57198258479E+01 -0.24446487194E+03  0.29923692652E+03  0.17190856305E+03 0.  0.
         24    2    3    3    0    0  0.32913397143E+02 -0.23200226109E+02 -0.22153317688E+03  0.23940549750E+03  0.81341880790E+02 0.  0.
         -6    2    1    2    0  502  0.13942529440E+02 -0.57198258479E+01 -0.42180616972E+03  0.45579129689E+03  0.17204113164E+03 0.  0.
        -24    2    5    5    0    0  0.41256363853E+02  0.29520051442E+02 -0.38799653194E+03  0.39963903863E+03  0.81219033488E+02 0.  0.
          5    1    3    3  501    0 -0.46855926583E+02  0.28920051957E+02 -0.22931695059E+02  0.59831429027E+02  0.47000000000E+01 0. -1.
        -11    1    4    4    0    0  0.17743760584E+02 -0.31690124740E+02 -0.30062248658E+02  0.47147044871E+02  0.00000000000E+00 0.  1.
         12    1    4    4    0    0  0.15169636559E+02  0.84898986312E+01 -0.19147092822E+03  0.19225845262E+03  0.00000000000E+00 0. -1.
         -5    1    5    5    0  502 -0.27313834412E+02 -0.35239877290E+02 -0.33809637775E+02  0.56152258264E+02  0.47000000000E+01 0.  1.
         13    1    6    6    0    0 -0.18170164930E+02 -0.16679212183E+01 -0.27866740857E+02  0.33309039326E+02  0.00000000000E+00 0. -1.
        -14    1    6    6    0    0  0.59426528783E+02  0.31187972660E+02 -0.36012979108E+03  0.36632999930E+03  0.00000000000E+00 0.  1.
</event>
<event>
12    1  0.8135779E-002  0.2009539E+03  0.7818608E-02  0.1149025E+00
         21   -1    0    0  503  502  0.00000000000E+00  0.00000000000E+00  0.21080889333E+03  0.21080889333E+03  0.00000000000E+00 0.  1.
         21   -1    0    0  501  503 -0.00000000000E+00 -0.00000000000E+00 -0.27695278718E+03  0.27695278718E+03  0.00000000000E+00 0. -1.
          6    2    1    2  501    0 -0.10303177181E+03  0.51666032575E+01  0.10264216400E+03  0.22564993401E+03  0.17245358534E+03 0.  0.
         24    2    3    3    0    0  0.13627797536E+01 -0.35901926384E+02  0.55270144947E+02  0.10378507151E+03  0.80160755102E+02 0.  0.
         -6    2    1    2    0  502  0.10303177181E+03 -0.51666032575E+01 -0.16878605785E+03  0.26211174651E+03  0.17196393383E+03 0.  0.
        -24    2    5    5    0    0  0.30734006817E+02  0.15701218958E+02 -0.12433047591E+02  0.88529527817E+02  0.80571639994E+02 0.  0.
          5    1    3    3  501    0 -0.10439455157E+03  0.41068529641E+02  0.47372019052E+02  0.12186486250E+03  0.47000000000E+01 0. -1.
        -11    1    4    4    0    0  0.98240559970E+01 -0.74767449116E+01  0.69712846827E+02  0.70797562129E+02  0.00000000000E+00 0.  1.
         12    1    4    4    0    0 -0.84612762434E+01 -0.28425181472E+02 -0.14442701879E+02  0.32987509378E+02  0.00000000000E+00 0. -1.
         -5    1    5    5    0  502  0.72297764996E+02 -0.20867822215E+02 -0.15635301026E+03  0.17358221869E+03  0.47000000000E+01 0.  1.
         13    1    6    6    0    0  0.28368467956E+02 -0.17442260523E+02 -0.35039976631E+02  0.48340483951E+02  0.00000000000E+00 0. -1.
        -14    1    6    6    0    0  0.23655388617E+01  0.33143479481E+02  0.22606929040E+02  0.40189043866E+02  0.00000000000E+00 0.  1.
</event>
<event>
12    1  0.8135779E-002  0.3127467E+03  0.7818608E-02  0.1080548E+00
         21   -1    0    0  501  502  0.00000000000E+00  0.00000000000E+00  0.17248702557E+03  0.17248702557E+03  0.00000000000E+00 0. -1.
         21   -1    0    0  502  503 -0.00000000000E+00 -0.00000000000E+00 -0.54879692100E+03  0.54879692100E+03  0.00000000000E+00 0.  1.
         -6    2    1    2    0  503 -0.24468284141E+03  0.31887353630E+02 -0.21566879455E+03  0.36969314544E+03  0.17109499305E+03 0.  0.
        -24    2    3    3    0    0 -0.21293902689E+03  0.80528650262E+02 -0.16526828222E+03  0.29264804735E+03  0.80631146721E+02 0.  0.
          6    2    1    2  501    0  0.24468284141E+03 -0.31887353630E+02 -0.16064110088E+03  0.35159080113E+03  0.19215626961E+03 0.  0.
         24    2    5    5    0    0  0.12669446172E+03 -0.94099364902E+02 -0.76402949502E+02  0.19376257731E+03  0.82464225986E+02 0.  0.
          5    1    5    5  501    0  0.11798837968E+03  0.62212011273E+02 -0.84238151382E+02  0.15782822382E+03  0.47000000000E+01 0. -1.
        -13    1    6    6    0    0  0.90415021223E+02 -0.71442259878E+02 -0.92799104872E+02  0.14795454175E+03  0.00000000000E+00 0.  1.
         14    1    6    6    0    0  0.36279440501E+02 -0.22657105025E+02  0.16396155371E+02  0.45808035563E+02  0.00000000000E+00 0. -1.
         -5    1    3    3    0  503 -0.31743814517E+02 -0.48641296632E+02 -0.50400512327E+02  0.77045098098E+02  0.47000000000E+01 0.  1.
         13    1    4    4    0    0 -0.45890195829E+02  0.55801265999E+02 -0.41933264882E+02  0.83534963123E+02  0.00000000000E+00 0. -1.
        -14    1    4    4    0    0 -0.16704883106E+03  0.24727384263E+02 -0.12333501734E+03  0.20911308422E+03  0.00000000000E+00 0.  1.
</event>
<event>
12    1  0.8135779E-002  0.1977178E+03  0.7818608E-02  0.1151791E+00
         21   -1    0    0  501  502  0.00000000000E+00  0.00000000000E+00  0.33339027193E+03  0.33339027193E+03  0.00000000000E+00 0. -1.
         21   -1    0    0  502  503 -0.00000000000E+00 -0.00000000000E+00 -0.37549963869E+03  0.37549963869E+03  0.00000000000E+00 0. -1.
         -6    2    1    2    0  503 -0.39789131320E+02 -0.86824973706E+02 -0.31517896923E+03  0.37206198496E+03  0.17312015184E+03 0.  0.
        -24    2    3    3    0    0 -0.45178658898E+02 -0.12134974572E+03 -0.20096182573E+03  0.25252683213E+03  0.81346625870E+02 0.  0.
          6    2    1    2  501    0  0.39789131320E+02  0.86824973706E+02  0.27306960246E+03  0.33682792567E+03  0.17252331057E+03 0.  0.
         24    2    5    5    0    0 -0.25439272092E+02 -0.48569672181E+00  0.83950362827E+02  0.11850230971E+03  0.79672715039E+02 0.  0.
          5    1    5    5  501    0  0.65228403412E+02  0.87310670428E+02  0.18911923964E+03  0.21832561596E+03  0.47000000000E+01 0. -1.
        -13    1    6    6    0    0  0.18439722165E+02 -0.20520169568E+02  0.56811033793E+02  0.63155318646E+02  0.00000000000E+00 0.  1.
         14    1    6    6    0    0 -0.43878994258E+02  0.20034472846E+02  0.27139329034E+02  0.55346991063E+02  0.00000000000E+00 0. -1.
         -5    1    3    3    0  503  0.53895275777E+01  0.34524772018E+02 -0.11421714350E+03  0.11953515282E+03  0.47000000000E+01 0.  1.
         13    1    4    4    0    0  0.20965693241E+02 -0.45354866784E+02 -0.87740222126E+02  0.10097014813E+03  0.00000000000E+00 0. -1.
        -14    1    4    4    0    0 -0.66144352138E+02 -0.75994878940E+02 -0.11322160360E+03  0.15155668401E+03  0.00000000000E+00 0.  1.
</event>
<event>
12    1  0.8135779E-002  0.1853645E+03  0.7818608E-02  0.1162741E+00
         21   -1    0    0  503  502  0.00000000000E+00  0.00000000000E+00  0.74673361332E+03  0.74673361332E+03  0.00000000000E+00 0. -1.
         21   -1    0    0  501  503 -0.00000000000E+00 -0.00000000000E+00 -0.46353787740E+02  0.46353787740E+02  0.00000000000E+00 0. -1.
          6    2    1    2  501    0 -0.55948535576E+02  0.41343161798E+02  0.31473405478E+03  0.36526363393E+03  0.17181531180E+03 0.  0.
         24    2    3    3    0    0 -0.25640208119E+02  0.64350744168E+02  0.97358052313E+02  0.14453221340E+03  0.81317475439E+02 0.  0.
         -6    2    1    2    0  502  0.55948535576E+02 -0.41343161798E+02  0.38564577080E+03  0.42782376713E+03  0.17167125423E+03 0.  0.
        -24    2    5    5    0    0  0.12427543251E+02  0.17836845623E+02  0.81911426607E+02  0.11529698125E+03  0.78174901242E+02 0.  0.
          5    1    3    3  501    0 -0.30308327457E+02 -0.23007582370E+02  0.21737600247E+03  0.22073142053E+03  0.47000000000E+01 0. -1.
        -13    1    4    4    0    0 -0.34902894802E+02  0.48074582800E+02  0.10780317475E+03  0.12308900058E+03  0.00000000000E+00 0.  1.
         14    1    4    4    0    0  0.92626866826E+01  0.16276161367E+02 -0.10445122434E+02  0.21443212821E+02  0.00000000000E+00 0. -1.
         -5    1    5    5    0  502  0.43520992325E+02 -0.59180007420E+02  0.30373434419E+03  0.31252678588E+03  0.47000000000E+01 0.  1.
         13    1    6    6    0    0  0.21158607485E+02  0.35988517026E+01  0.92872087304E+02  0.95319793351E+02  0.00000000000E+00 0. -1.
        -14    1    6    6    0    0 -0.87310642337E+01  0.14237993920E+02 -0.10960660698E+02  0.19977187901E+02  0.00000000000E+00 0.  1.
</event>
<event>
12    1  0.8135779E-002  0.2230078E+03  0.7818608E-02  0.1131854E+00
         21   -1    0    0  503  502  0.00000000000E+00  0.00000000000E+00  0.99697381749E+03  0.99697381749E+03  0.00000000000E+00 0. -1.
         21   -1    0    0  501  503 -0.00000000000E+00 -0.00000000000E+00 -0.88745709377E+02  0.88745709377E+02  0.00000000000E+00 0.  1.
          6    2    1    2  501    0  0.66484355051E+02  0.12405621797E+03  0.94394058478E+02  0.24216261078E+03  0.17298085762E+03 0.  0.
         24    2    3    3    0    0  0.73765640102E+02  0.65168453052E+02 -0.51470415309E+01  0.12618284289E+03  0.78786552602E+02 0.  0.
         -6    2    1    2    0  502 -0.66484355051E+02 -0.12405621797E+03  0.81383404963E+03  0.84355691608E+03  0.17161671143E+03 0.  0.
        -24    2    5    5    0    0 -0.80981792781E+02 -0.44872873209E+02  0.64361682043E+03  0.65520572042E+03  0.80500304485E+02 0.  0.
          5    1    3    3  501    0 -0.72812850506E+01  0.58887764920E+02  0.99541100009E+02  0.11597976789E+03  0.47000000000E+01 0. -1.
        -11    1    4    4    0    0  0.67576986269E+02  0.71707112483E+02  0.19057572772E+02  0.10035810946E+03  0.00000000000E+00 0.  1.
         12    1    4    4    0    0  0.61886538332E+01 -0.65386594315E+01 -0.24204614303E+02  0.25824733435E+02  0.00000000000E+00 0. -1.
         -5    1    5    5    0  502  0.14497437730E+02 -0.79183344763E+02  0.17021722920E+03  0.18835119566E+03  0.47000000000E+01 0.  1.
         11    1    6    6    0    0 -0.29811764438E+02 -0.10778176172E+02  0.55754211872E+02  0.64136124938E+02  0.00000000000E+00 0. -1.
        -12    1    6    6    0    0 -0.51170028343E+02 -0.34094697036E+02  0.58786260856E+03  0.59106959548E+03  0.00000000000E+00 0.  1.
</event>
<event>
12    1  0.8135779E-002  0.1878077E+03  0.7818608E-02  0.1161482E+00
         21   -1    0    0  501  502  0.00000000000E+00  0.00000000000E+00  0.58089733638E+02  0.58089733638E+02  0.00000000000E+00 0.  1.
         21   -1    0    0  502  503 -0.00000000000E+00 -0.00000000000E+00 -0.63030910812E+03  0.63030910812E+03  0.00000000000E+00 0.  1.
         -6    2    1    2    0  503  0.57751426147E+02 -0.15038512029E+02 -0.37312156948E+03  0.41772171253E+03  0.17807397184E+03 0.  0.
        -24    2    3    3    0    0  0.77007663462E+02  0.40000974842E+02 -0.28537276894E+03  0.31226039362E+03  0.92404967141E+02 0.  0.
          6    2    1    2  501    0 -0.57751426147E+02  0.15038512029E+02 -0.19909780500E+03  0.27067712923E+03  0.17339200749E+03 0.  0.
         24    2    5    5    0    0 -0.81310832548E+02 -0.27843647956E+02 -0.81867487667E+02  0.14355922105E+03  0.80748029027E+02 0.  0.
          5    1    5    5  501    0  0.23559406402E+02  0.42882159985E+02 -0.11723031734E+03  0.12711790817E+03  0.47000000000E+01 0. -1.
        -11    1    6    6    0    0 -0.44165750915E+02  0.25096627517E+02 -0.50695874566E+02  0.71767164948E+02  0.00000000000E+00 0.  1.
         12    1    6    6    0    0 -0.37145081633E+02 -0.52940275473E+02 -0.31171613101E+02  0.71792056107E+02  0.00000000000E+00 0. -1.
         -5    1    3    3    0  503 -0.19256237315E+02 -0.55039486871E+02 -0.87748800545E+02  0.10546131892E+03  0.47000000000E+01 0.  1.
         11    1    4    4    0    0  0.51387250718E+01 -0.10162736233E+01  0.68066344268E+01  0.85889219150E+01  0.00000000000E+00 0. -1.
        -12    1    4    4    0    0  0.71868938390E+02  0.41017248465E+02 -0.29217940336E+03  0.30367147170E+03  0.00000000000E+00 0.  1.
</event>
<event>
12    1  0.8135779E-002  0.1818540E+03  0.7818608E-02  0.1166387E+00
         21   -1    0    0  501  502  0.00000000000E+00  0.00000000000E+00  0.21048902375E+03  0.21048902375E+03  0.00000000000E+00 0. -1.
         21   -1    0    0  502  503 -0.00000000000E+00 -0.00000000000E+00 -0.50813371670E+03  0.50813371670E+03  0.00000000000E+00 0. -1.
         -6    2    1    2    0  503  0.37051339956E+02  0.38867296247E+02 -0.44782846993E+03  0.48277102757E+03  0.17214545616E+03 0.  0.
        -24    2    3    3    0    0  0.16058847011E+02  0.64987469882E+02 -0.43375885468E+03  0.44612416817E+03  0.79992322151E+02 0.  0.
          6    2    1    2  501    0 -0.37051339956E+02 -0.38867296247E+02  0.15018377699E+03  0.23585171288E+03  0.17374520162E+03 0.  0.
         24    2    5    5    0    0 -0.48159957892E+02 -0.88197797720E+02  0.12529435790E+03  0.17929666933E+03  0.79689311985E+02 0.  0.
          5    1    5    5  501    0  0.11108617936E+02  0.49330501473E+02  0.24889419088E+02  0.56555043547E+02  0.47000000000E+01 0. -1.
        -13    1    6    6    0    0  0.12156586695E+02 -0.57234163356E+02  0.42680454772E+02  0.72423430426E+02  0.00000000000E+00 0.  1.
         14    1    6    6    0    0 -0.60316544587E+02 -0.30963634365E+02  0.82613903128E+02  0.10687323890E+03  0.00000000000E+00 0. -1.
         -5    1    3    3    0  503  0.20992492946E+02 -0.26120173635E+02 -0.14069615248E+02  0.36646859402E+02  0.47000000000E+01 0.  1.
         13    1    4    4    0    0  0.46476498108E+02  0.24188986958E+02 -0.18881061351E+03  0.19594545093E+03  0.00000000000E+00 0. -1.
        -14    1    4    4    0    0 -0.30417651097E+02  0.40798482925E+02 -0.24494824117E+03  0.25017871724E+03  0.00000000000E+00 0.  1.
</event>
<event>
12    1  0.8135779E-002  0.1836310E+03  0.7818608E-02  0.1164553E+00
         21   -1    0    0  501  502  0.00000000000E+00  0.00000000000E+00  0.51877084684E+03  0.51877084684E+03  0.00000000000E+00 0. -1.
         21   -1    0    0  502  503 -0.00000000000E+00 -0.00000000000E+00 -0.64924293166E+02  0.64924293166E+02  0.00000000000E+00 0.  1.
         -6    2    1    2    0  503 -0.46731750156E+02 -0.43097568653E+02  0.24448430818E+03  0.30521195850E+03  0.17129070544E+03 0.  0.
        -24    2    3    3    0    0  0.12673251151E+01 -0.81336982488E+02  0.19698640973E+03  0.22746683419E+03  0.79499711968E+02 0.  0.
          6    2    1    2  501    0  0.46731750156E+02  0.43097568653E+02  0.20936224549E+03  0.27848318150E+03  0.17227616099E+03 0.  0.
         24    2    5    5    0    0  0.39560415045E+02 -0.24627154081E+02  0.50135062806E+02  0.10523927303E+03  0.79939082489E+02 0.  0.
          5    1    5    5  501    0  0.71713351108E+01  0.67724722734E+02  0.15922718268E+03  0.17324390847E+03  0.47000000000E+01 0. -1.
        -13    1    6    6    0    0 -0.17472569832E+02  0.14689387795E+02  0.81542990622E+01  0.24239665912E+02  0.00000000000E+00 0.  1.
         14    1    6    6    0    0  0.57032984877E+02 -0.39316541877E+02  0.41980763743E+02  0.80999607120E+02  0.00000000000E+00 0. -1.
         -5    1    3    3    0  503 -0.47999075271E+02  0.38239413835E+02  0.47497898449E+02  0.77745124313E+02  0.47000000000E+01 0.  1.
         11    1    4    4    0    0 -0.39701662917E+01 -0.23906801705E+02  0.22124815633E+01  0.24335004886E+02  0.00000000000E+00 0. -1.
        -12    1    4    4    0    0  0.52374914068E+01 -0.57430180783E+02  0.19477392817E+03  0.20313182930E+03  0.00000000000E+00 0.  1.
</event>
<event>
12    1  0.8135779E-002  0.1854899E+03  0.7818608E-02  0.1164879E+00
         21   -1    0    0  501  502  0.00000000000E+00  0.00000000000E+00  0.83830040939E+03  0.83830040939E+03  0.00000000000E+00 0.  1.
         21   -1    0    0  502  503 -0.00000000000E+00 -0.00000000000E+00 -0.42809588290E+02  0.42809588290E+02  0.00000000000E+00 0. -1.
         -6    2    1    2    0  503 -0.35676089070E+02 -0.20886565180E+02  0.25606660857E+03  0.31068473018E+03  0.17101421463E+03 0.  0.
        -24    2    3    3    0    0 -0.86822944104E+02 -0.21888471778E+02  0.14625413574E+03  0.18944994233E+03  0.80521299090E+02 0.  0.
          6    2    1    2  501    0  0.35676089070E+02  0.20886565180E+02  0.53942421254E+03  0.57042526751E+03  0.18082442535E+03 0.  0.
         24    2    5    5    0    0 -0.33719884348E+01  0.73864179220E+02  0.23387948979E+03  0.25783760373E+03  0.79456446408E+02 0.  0.
          5    1    5    5  501    0  0.39048077505E+02 -0.52977614040E+02  0.30554472274E+03  0.31258766377E+03  0.47000000000E+01 0. -1.
        -13    1    6    6    0    0  0.64358339331E+01  0.48273567200E+02  0.22315647421E+03  0.22840877660E+03  0.00000000000E+00 0.  1.
         14    1    6    6    0    0 -0.98078223680E+01  0.25590612020E+02  0.10723015587E+02  0.29428827133E+02  0.00000000000E+00 0. -1.
         -5    1    3    3    0  503  0.51146855034E+02  0.10019065987E+01  0.10981247283E+03  0.12123478785E+03  0.47000000000E+01 0.  1.
         13    1    4    4    0    0 -0.58508143552E+02  0.26154502444E+02  0.87309422440E+02  0.10830602987E+03  0.00000000000E+00 0. -1.
        -14    1    4    4    0    0 -0.28314800552E+02 -0.48042974222E+02  0.58944713299E+02  0.81143912454E+02  0.00000000000E+00 0.  1.
</event>
<event>
12    1  0.8135779E-002  0.2295330E+03  0.7818608E-02  0.1127543E+00
         21   -1    0    0  503  502  0.00000000000E+00  0.00000000000E+00  0.11728273833E+04  0.11728273833E+04  0.00000000000E+00 0.  1.
         21   -1    0    0  501  503 -0.00000000000E+00 -0.00000000000E+00 -0.10832462016E+03  0.10832462016E+03  0.00000000000E+00 0.  1.
          6    2    1    2  501    0  0.15025101174E+03  0.17604576116E+02  0.41296807763E+02  0.23321837429E+03  0.17262704350E+03 0.  0.
         24    2    3    3    0    0  0.24764355210E+02 -0.13776087421E+02 -0.23483938878E+02  0.88476251381E+02  0.80458049937E+02 0.  0.
         -6    2    1    2    0  502 -0.15025101174E+03 -0.17604576116E+02  0.10232059554E+04  0.10479336292E+04  0.16831273386E+03 0.  0.
        -24    2    5    5    0    0 -0.67392601205E+02 -0.23321039818E+02  0.27826880432E+03  0.29836599166E+03  0.80641824943E+02 0.  0.
          5    1    3    3  501    0  0.12548665653E+03  0.31380663537E+02  0.64780746641E+02  0.14474212291E+03  0.47000000000E+01 0. -1.
        -13    1    4    4    0    0  0.51846272915E+02 -0.14272881893E+02 -0.18435144787E+01  0.53806595491E+02  0.00000000000E+00 0.  1.
         14    1    4    4    0    0 -0.27081917705E+02  0.49679447151E+00 -0.21640424399E+02  0.34669655890E+02  0.00000000000E+00 0. -1.
         -5    1    5    5    0  502 -0.82858410530E+02  0.57164637026E+01  0.74493715109E+03  0.74956763753E+03  0.47000000000E+01 0.  1.
         11    1    6    6    0    0 -0.64663870951E+02 -0.94382593776E+01  0.27648816388E+03  0.28410596916E+03  0.00000000000E+00 0. -1.
        -12    1    6    6    0    0 -0.27287302537E+01 -0.13882780441E+02  0.17806404417E+01  0.14260022509E+02  0.00000000000E+00 0.  1.
</event>
<event>
12    1  0.8135779E-002  0.4344638E+03  0.7818608E-02  0.1032501E+00
         21   -1    0    0  503  502  0.00000000000E+00  0.00000000000E+00  0.51824632455E+03  0.51824632455E+03  0.00000000000E+00 0. -1.
         21   -1    0    0  501  503 -0.00000000000E+00 -0.00000000000E+00 -0.73546420513E+03  0.73546420513E+03  0.00000000000E+00 0.  1.
          6    2    1    2  501    0 -0.64570377197E+02 -0.39353562367E+03 -0.55427127323E+03  0.70425524779E+03  0.17239254335E+03 0.  0.
         24    2    3    3    0    0 -0.10438628724E+03 -0.34137647993E+03 -0.49697669718E+03  0.61701625758E+03  0.79302122062E+02 0.  0.
         -6    2    1    2    0  502  0.64570377197E+02  0.39353562367E+03  0.33705339265E+03  0.54945528189E+03  0.17104530567E+03 0.  0.
        -24    2    5    5    0    0  0.10728032214E+03  0.31733514186E+03  0.24607450615E+03  0.42324157181E+03  0.79812942235E+02 0.  0.
          5    1    3    3  501    0  0.39815910042E+02 -0.52159143740E+02 -0.57294576045E+02  0.87238990208E+02  0.47000000000E+01 0. -1.
        -13    1    4    4    0    0  0.29282795544E+01 -0.92383158332E+02 -0.15668137457E+03  0.18191282500E+03  0.00000000000E+00 0.  1.
         14    1    4    4    0    0 -0.10731456679E+03 -0.24899332160E+03 -0.34029532262E+03  0.43510343258E+03  0.00000000000E+00 0. -1.
         -5    1    5    5    0  502 -0.42709944944E+02  0.76200481805E+02  0.90978886498E+02  0.12621371008E+03  0.47000000000E+01 0.  1.
         13    1    6    6    0    0  0.55568300165E+02  0.15928932143E+03  0.17288229349E+03  0.24155581407E+03  0.00000000000E+00 0. -1.
        -14    1    6    6    0    0  0.51712021976E+02  0.15804582043E+03  0.73192212661E+02  0.18168575774E+03  0.00000000000E+00 0.  1.
</event>
<event>
12    1  0.8135779E-002  0.2733880E+03  0.7818608E-02  0.1099412E+00
         21   -1    0    0  501  502  0.00000000000E+00  0.00000000000E+00  0.34593552520E+03  0.34593552520E+03  0.00000000000E+00 0.  1.
         21   -1    0    0  502  503 -0.00000000000E+00 -0.00000000000E+00 -0.21623588998E+03  0.21623588998E+03  0.00000000000E+00 0.  1.
         -6    2    1    2    0  503  0.19597511736E+03  0.81505944006E+02  0.51376942485E+02  0.27778535894E+03  0.17168473983E+03 0.  0.
        -24    2    3    3    0    0  0.93052397496E+02  0.10435906595E+03  0.11650516959E+01  0.16091502300E+03  0.79641220203E+02 0.  0.
          6    2    1    2  501    0 -0.19597511736E+03 -0.81505944006E+02  0.78322692734E+02  0.28438605624E+03  0.17231227250E+03 0.  0.
         24    2    5    5    0    0 -0.10896892466E+03 -0.70501948377E+02  0.11384012631E+03  0.18965093300E+03  0.78505737122E+02 0.  0.
          5    1    5    5  501    0 -0.87006192703E+02 -0.11003995629E+02 -0.35517433579E+02  0.94735123247E+02  0.47000000000E+01 0. -1.
        -11    1    6    6    0    0 -0.27423880791E+02 -0.61485308101E+02  0.67916430507E+02  0.95630297933E+02  0.00000000000E+00 0.  1.
         12    1    6    6    0    0 -0.81545043867E+02 -0.90166402760E+01  0.45923695807E+02  0.94020635063E+02  0.00000000000E+00 0. -1.
         -5    1    3    3    0  503  0.10292271986E+03 -0.22853121947E+02  0.50211890789E+02  0.11687033594E+03  0.47000000000E+01 0.  1.
         13    1    4    4    0    0  0.48929116733E+00  0.41566013195E+02 -0.21484544719E+02  0.46792718670E+02  0.00000000000E+00 0. -1.
        -14    1    4    4    0    0  0.92563106329E+02  0.62793052758E+02  0.22649596415E+02  0.11412230433E+03  0.00000000000E+00 0.  1.
</event>
<event>
12    1  0.8135779E-002  0.3018152E+03  0.7818608E-02  0.1084404E+00
         21   -1    0    0  503  502  0.00000000000E+00  0.00000000000E+00  0.75959046220E+03  0.75959046220E+03  0.00000000000E+00 0.  1.
         21   -1    0    0  501  503 -0.00000000000E+00 -0.00000000000E+00 -0.19093545742E+03  0.19093545742E+03  0.00000000000E+00 0. -1.
          6    2    1    2  501    0 -0.24143978603E+03 -0.55676370566E+02 -0.57904969565E+01  0.30187077327E+03  0.17233515422E+03 0.  0.
         24    2    3    3    0    0 -0.14150390924E+03 -0.70228683350E+02  0.52068713876E+02  0.18538589203E+03  0.81861796374E+02 0.  0.
         -6    2    1    2    0  502  0.24143978603E+03  0.55676370566E+02  0.57444550174E+03  0.64865514636E+03  0.17138505162E+03 0.  0.
        -24    2    5    5    0    0  0.14861814117E+03 -0.33022751217E+02  0.35822327461E+03  0.39714464268E+03  0.78880281142E+02 0.  0.
          5    1    3    3  501    0 -0.99935876792E+02  0.14552312784E+02 -0.57859210833E+02  0.11648488123E+03  0.47000000000E+01 0. -1.
        -13    1    4    4    0    0 -0.31288923701E+02  0.18366292076E+02  0.68398602754E+01  0.36920199344E+02  0.00000000000E+00 0.  1.
         14    1    4    4    0    0 -0.11021498554E+03 -0.88594975426E+02  0.45228853601E+02  0.14846569269E+03  0.00000000000E+00 0. -1.
         -5    1    5    5    0  502  0.92821644865E+02  0.88699121783E+02  0.21622222713E+03  0.25151050369E+03  0.47000000000E+01 0.  1.
         13    1    6    6    0    0  0.17733749817E+02  0.19045891311E+02  0.96207424454E+02  0.99664940568E+02  0.00000000000E+00 0. -1.
        -14    1    6    6    0    0  0.13088439135E+03 -0.52068642528E+02  0.26201585015E+03  0.29747970211E+03  0.00000000000E+00 0.  1.
</event>
<event>
12    1  0.8135779E-002  0.1755797E+03  0.7818608E-02  0.1172411E+00
         21   -1    0    0  503  502  0.00000000000E+00  0.00000000000E+00  0.94890518939E+02  0.94890518939E+02  0.00000000000E+00 0.  1.
         21   -1    0    0  501  503 -0.00000000000E+00 -0.00000000000E+00 -0.33053615452E+03  0.33053615452E+03  0.00000000000E+00 0.  1.
          6    2    1    2  501    0 -0.18774025407E+02 -0.22706847248E+02 -0.14967708036E+03  0.22993031764E+03  0.17203679154E+03 0.  0.
         24    2    3    3    0    0 -0.14522988897E+02  0.20427830195E+02 -0.23363376064E+02  0.96304296213E+02  0.90002537047E+02 0.  0.
         -6    2    1    2    0  502  0.18774025407E+02  0.22706847248E+02 -0.85968555220E+02  0.19549635582E+03  0.17309005664E+03 0.  0.
        -24    2    5    5    0    0  0.76579713794E+02 -0.44060694821E+01 -0.59425572298E+02  0.12619103275E+03  0.80677828984E+02 0.  0.
          5    1    3    3  501    0 -0.42510365094E+01 -0.43134677443E+02 -0.12631370430E+03  0.13362602143E+03  0.47000000000E+01 0. -1.
        -13    1    4    4    0    0 -0.36723953030E+02  0.15038666069E+02  0.22100669472E+02  0.45423009526E+02  0.00000000000E+00 0.  1.
         14    1    4    4    0    0  0.22200964133E+02  0.53891641261E+01 -0.45464045536E+02  0.50881286687E+02  0.00000000000E+00 0. -1.
         -5    1    5    5    0  502 -0.57805688387E+02  0.27112916730E+02 -0.26542982922E+02  0.69305323071E+02  0.47000000000E+01 0.  1.
         11    1    6    6    0    0 -0.86454015622E+01  0.20582076286E+02 -0.90728816594E+01  0.24097344543E+02  0.00000000000E+00 0. -1.
        -12    1    6    6    0    0  0.85225115356E+02 -0.24988145768E+02 -0.50352690638E+02  0.10209368820E+03  0.00000000000E+00 0.  1.
</event>
<event>
12    1  0.8135779E-002  0.1904340E+03  0.7818608E-02  0.1158151E+00
         21   -1    0    0  503  502  0.00000000000E+00  0.00000000000E+00  0.13710688874E+03  0.13710688874E+03  0.00000000000E+00 0. -1.
         21   -1    0    0  501  503 -0.00000000000E+00 -0.00000000000E+00 -0.60264901171E+03  0.60264901171E+03  0.00000000000E+00 0. -1.
          6    2    1    2  501    0 -0.57569252029E+02  0.57194113065E+02 -0.51013407054E+03  0.54451985169E+03  0.17227801254E+03 0.  0.
         24    2    3    3    0    0 -0.68135737744E+02  0.53115545164E+02 -0.18455069869E+03  0.21870562953E+03  0.79432059671E+02 0.  0.
         -6    2    1    2    0  502  0.57569252029E+02 -0.57194113065E+02  0.44591947570E+02  0.19523604876E+03  0.17188160926E+03 0.  0.
        -24    2    5    5    0    0  0.40677117254E+01 -0.96685096458E+02  0.29582869385E+02  0.12690366250E+03  0.76582238409E+02 0.  0.
          5    1    3    3  501    0  0.10566485715E+02  0.40785679012E+01 -0.32558337185E+03  0.32581422216E+03  0.47000000000E+01 0. -1.
        -13    1    4    4    0    0 -0.35202250167E+02  0.50347879307E+01 -0.13563156337E+02  0.38059252701E+02  0.00000000000E+00 0.  1.
         14    1    4    4    0    0 -0.32933487577E+02  0.48080757233E+02 -0.17098754236E+03  0.18064637683E+03  0.00000000000E+00 0. -1.
         -5    1    5    5    0  502  0.53501540303E+02  0.39490983393E+02  0.15009078185E+02  0.68332386261E+02  0.47000000000E+01 0.  1.
         13    1    6    6    0    0  0.38999545561E+02 -0.65750115251E+02  0.22647695195E+02  0.79730548143E+02  0.00000000000E+00 0. -1.
        -14    1    6    6    0    0 -0.34931833835E+02 -0.30934981206E+02  0.69351741906E+01  0.47173114360E+02  0.00000000000E+00 0.  1.
</event>
