<event>
12    1  0.9749377E-001  0.2609872E+03  0.7818608E-02  0.1106552E+00
         21   -1    0    0  501  502  0.00000000000E+00  0.00000000000E+00  0.20598896600E+03  0.20598896600E+03  0.00000000000E+00 0.  1.
         21   -1    0    0  502  503 -0.00000000000E+00 -0.00000000000E+00 -0.44027172071E+03  0.44027172071E+03  0.00000000000E+00 0. -1.
         -6    2    1    2    0  503 -0.10764171749E+03 -0.21551957541E+03 -0.17870940871E+03  0.34561629695E+03  0.17169200688E+03 0.  0.
        -24    2    3    3    0    0 -0.20571277145E+02 -0.52903772884E+02 -0.17170381768E+02  0.10037741741E+03  0.80986525344E+02 0.  0.
          6    2    1    2  501    0  0.10764171749E+03  0.21551957541E+03 -0.55573345995E+02  0.30064438976E+03  0.17106497474E+03 0.  0.
         24    2    5    5    0    0  0.34763194793E+02  0.36092455176E+02 -0.45693703827E+02  0.10667256739E+03  0.82340615928E+02 0.  0.
         14    1    6    6    0    0  0.11807632103E+02  0.21495446109E+02 -0.67493995104E+02  0.71811654725E+02  0.00000000000E+00 0. -1.
        -13    1    6    6    0    0  0.22955562689E+02  0.14597009066E+02  0.21800291277E+02  0.34860912665E+02  0.00000000000E+00 0.  1.
          5    1    5    5  501    0  0.72878522697E+02  0.17942712023E+03 -0.98796421679E+01  0.19397182237E+03  0.47000000000E+01 0. -1.
         11    1    4    4    0    0 -0.36223907691E+02  0.63242711904E+00  0.11036771716E+02  0.37873233059E+02  0.00000000000E+00 0. -1.
        -12    1    4    4    0    0  0.15652630546E+02 -0.53536200003E+02 -0.28207153484E+02  0.62504184351E+02  0.00000000000E+00 0.  1.
         -5    1    3    3    0  503 -0.87070440344E+02 -0.16261580252E+03 -0.16153902695E+03  0.24523887954E+03  0.47000000000E+01 0.  1.
</event>
<event>
12    1  0.9749377E-001  0.1745681E+03  0.7818608E-02  0.1173166E+00
         21   -1    0    0  503  502  0.00000000000E+00  0.00000000000E+00  0.72889705090E+03  0.72889705090E+03  0.00000000000E+00 0.  1.
         21   -1    0    0  501  503 -0.00000000000E+00 -0.00000000000E+00 -0.63936383212E+02  0.63936383212E+02  0.00000000000E+00 0.  1.
          6    2    1    2  501    0  0.10733680556E+03 -0.76627919061E+02  0.34391077801E+03  0.40556398001E+03  0.16974831616E+03 0.  0.
         24    2    3    3    0    0  0.88028916290E+02 -0.67406347357E+02  0.12628843588E+03  0.18684176859E+03  0.81660098492E+02 0.  0.
         -6    2    1    2    0  502 -0.10733680556E+03  0.76627919061E+02  0.32104988967E+03  0.38726945410E+03  0.17178932043E+03 0.  0.
        -24    2    5    5    0    0 -0.12118519391E+03  0.16894096495E+02  0.16269276044E+03  0.21739015049E+03  0.76277660624E+02 0.  0.
         14    1    4    4    0    0  0.69828540508E+02 -0.31086909866E+01  0.75652965004E+02  0.10300029196E+03  0.00000000000E+00 0. -1.
        -13    1    4    4    0    0  0.18200375782E+02 -0.64297656371E+02  0.50635470880E+02  0.83841476636E+02  0.00000000000E+00 0.  1.
          5    1    3    3  501    0  0.19307889267E+02 -0.92215717031E+01  0.21762234213E+03  0.21872221142E+03  0.47000000000E+01 0. -1.
         13    1    6    6    0    0 -0.15392085945E+02  0.17379072009E+02 -0.13023555784E+00  0.23215628679E+02  0.00000000000E+00 0. -1.
        -14    1    6    6    0    0 -0.10579310796E+03 -0.48497551449E+00  0.16282299600E+03  0.19417452181E+03  0.00000000000E+00 0.  1.
         -5    1    5    5    0  502  0.13848388349E+02  0.59733822566E+02  0.15835712923E+03  0.16987930361E+03  0.47000000000E+01 0.  1.
</event>
<event>
12    1  0.9749377E-001  0.3990450E+03  0.7818608E-02  0.1044111E+00
         21   -1    0    0  503  502  0.00000000000E+00  0.00000000000E+00  0.40188745919E+03  0.40188745919E+03  0.00000000000E+00 0.  1.
         21   -1    0    0  501  503 -0.00000000000E+00 -0.00000000000E+00 -0.56923988279E+03  0.56923988279E+03  0.00000000000E+00 0. -1.
          6    2    1    2  501    0  0.33634492745E+03 -0.17876606864E+03  0.15262084296E+03  0.44486483975E+03  0.17183243706E+03 0.  0.
         24    2    3    3    0    0  0.65638080396E+02 -0.83448483734E+02  0.69749819763E+02  0.14610517795E+03  0.72178103553E+02 0.  0.
         -6    2    1    2    0  502 -0.33634492745E+03  0.17876606864E+03 -0.31997326657E+03  0.52626250223E+03  0.17170938362E+03 0.  0.
        -24    2    5    5    0    0 -0.14178827696E+03  0.24219866526E+02 -0.16569920823E+03  0.23375712808E+03  0.80595594792E+02 0.  0.
         12    1    4    4    0    0  0.15568964866E+02 -0.34909644036E+02  0.65999907452E+02  0.76269677444E+02  0.00000000000E+00 0. -1.
        -11    1    4    4    0    0  0.50069115530E+02 -0.48538839699E+02  0.37499123112E+01  0.69835500511E+02  0.00000000000E+00 0.  1.
          5    1    3    3  501    0  0.27070684705E+03 -0.95317584903E+02  0.82871023201E+02  0.29875966180E+03  0.47000000000E+01 0. -1.
         11    1    6    6    0    0  0.10569986327E+01 -0.80646746770E+01  0.44428515407E+01  0.92679638307E+01  0.00000000000E+00 0. -1.
        -12    1    6    6    0    0 -0.14284527560E+03  0.32284541203E+02 -0.17014205977E+03  0.22448916425E+03  0.00000000000E+00 0.  1.
         -5    1    5    5    0  502 -0.19455665048E+03  0.15454620211E+03 -0.15427405833E+03  0.29250537415E+03  0.47000000000E+01 0.  1.
</event>
<event>
12    1  0.9749377E-001  0.3761634E+03  0.7818608E-02  0.1052361E+00
         21   -1    0    0  501  502  0.00000000000E+00  0.00000000000E+00  0.52688124460E+03  0.52688124460E+03  0.00000000000E+00 0.  1.
         21   -1    0    0  502  503 -0.00000000000E+00 -0.00000000000E+00 -0.52031621225E+03  0.52031621225E+03  0.00000000000E+00 0. -1.
         -6    2    1    2    0  503 -0.34120391720E+03  0.10260680585E+03  0.34938403752E+03  0.52351379704E+03  0.15826945471E+03 0.  0.
        -24    2    3    3    0    0 -0.21833332677E+03  0.12261832314E+03  0.20766041060E+03  0.33482007895E+03  0.79227169521E+02 0.  0.
          6    2    1    2  501    0  0.34120391720E+03 -0.10260680585E+03 -0.34281900518E+03  0.52368365982E+03  0.17254401041E+03 0.  0.
         24    2    5    5    0    0  0.11179182029E+03  0.69726447335E+01 -0.15838946402E+03  0.20955962086E+03  0.79258964943E+02 0.  0.
         12    1    6    6    0    0  0.12938603558E+02  0.12248695258E+02  0.50137744866E+01  0.18508806881E+02  0.00000000000E+00 0. -1.
        -11    1    6    6    0    0  0.98853216731E+02 -0.52760505248E+01 -0.16340323850E+03  0.19105081398E+03  0.00000000000E+00 0.  1.
          5    1    5    5  501    0  0.22941209691E+03 -0.10957945059E+03 -0.18442954116E+03  0.31412403896E+03  0.47000000000E+01 0. -1.
         11    1    4    4    0    0 -0.11508488257E+03  0.32438802631E+02  0.61597781043E+02  0.13450313284E+03  0.00000000000E+00 0. -1.
        -12    1    4    4    0    0 -0.10324844420E+03  0.90179520510E+02  0.14606262956E+03  0.20031694612E+03  0.00000000000E+00 0.  1.
         -5    1    3    3    0  503 -0.12287059042E+03 -0.20011517290E+02  0.14172362692E+03  0.18869371808E+03  0.47000000000E+01 0.  1.
</event>
<event>
12    1  0.9749377E-001  0.2810223E+03  0.7818608E-02  0.1095132E+00
         21   -1    0    0  503  502  0.00000000000E+00  0.00000000000E+00  0.56393697182E+03  0.56393697182E+03  0.00000000000E+00 0. -1.
         21   -1    0    0  501  503 -0.00000000000E+00 -0.00000000000E+00 -0.44534391978E+03  0.44534391978E+03  0.00000000000E+00 0.  1.
          6    2    1    2  501    0  0.22791358842E+03  0.95957093305E+02  0.46274106848E+03  0.55160427443E+03  0.17025161253E+03 0.  0.
         24    2    3    3    0    0  0.96169926105E+02  0.36277180615E+02  0.10847360361E+03  0.16892214629E+03  0.78762175594E+02 0.  0.
         -6    2    1    2    0  502 -0.22791358842E+03 -0.95957093305E+02 -0.34414801644E+03  0.45767661717E+03  0.17285155811E+03 0.  0.
        -24    2    5    5    0    0 -0.55647090535E+02 -0.69749765764E+02 -0.19033480574E+03  0.22520476060E+03  0.80797384937E+02 0.  0.
         12    1    4    4    0    0  0.41544138908E+02  0.57445159877E+02  0.60665913706E+02  0.93307100248E+02  0.00000000000E+00 0. -1.
        -11    1    4    4    0    0  0.54625787198E+02 -0.21167979261E+02  0.47807689907E+02  0.75615046037E+02  0.00000000000E+00 0.  1.
          5    1    3    3  501    0  0.13174366231E+03  0.59679912690E+02  0.35426746487E+03  0.38268212815E+03  0.47000000000E+01 0. -1.
         11    1    6    6    0    0  0.11412870838E+02  0.55715184678E+01 -0.54883841520E+02  0.56334106000E+02  0.00000000000E+00 0. -1.
        -12    1    6    6    0    0 -0.67059961373E+02 -0.75321284231E+02 -0.13545096422E+03  0.16887065460E+03  0.00000000000E+00 0.  1.
         -5    1    5    5    0  502 -0.17226649788E+03 -0.26207327542E+02 -0.15381321071E+03  0.23247185657E+03  0.47000000000E+01 0.  1.
</event>
<event>
12    1  0.9749377E-001  0.6867740E+03  0.7818608E-02  0.9740122E-01
         21   -1    0    0  503  502  0.00000000000E+00  0.00000000000E+00  0.91096541828E+03  0.91096541828E+03  0.00000000000E+00 0. -1.
         21   -1    0    0  501  503 -0.00000000000E+00 -0.00000000000E+00 -0.58497942148E+03  0.58497942148E+03  0.00000000000E+00 0.  1.
          6    2    1    2  501    0  0.76777062265E+01 -0.67570415560E+03 -0.57337561927E+02  0.70036447698E+03  0.17489354343E+03 0.  0.
         24    2    3    3    0    0  0.69465183599E+02 -0.22925130911E+03 -0.27688711908E+02  0.24865773493E+03  0.60683028215E+02 0.  0.
         -6    2    1    2    0  502 -0.76777062265E+01  0.67570415560E+03  0.38332355872E+03  0.79558036278E+03  0.17139460292E+03 0.  0.
        -24    2    5    5    0    0 -0.36931906748E+02  0.57393523052E+03  0.26987382835E+03  0.64032040760E+03  0.80079501760E+02 0.  0.
         12    1    4    4    0    0  0.53953055947E+02 -0.19835658116E+03 -0.19748339558E+01  0.20557277423E+03  0.00000000000E+00 0. -1.
        -11    1    4    4    0    0  0.15512127652E+02 -0.30894727953E+02 -0.25713877952E+02  0.43084960704E+02  0.00000000000E+00 0.  1.
          5    1    3    3  501    0 -0.61787477373E+02 -0.44645284649E+03 -0.29648850020E+02  0.45170674204E+03  0.47000000000E+01 0. -1.
         13    1    6    6    0    0 -0.29854164141E+02  0.16426480165E+03  0.44899881747E+02  0.17288781206E+03  0.00000000000E+00 0. -1.
        -14    1    6    6    0    0 -0.70777426069E+01  0.40967042886E+03  0.22497394660E+03  0.46743259554E+03  0.00000000000E+00 0.  1.
         -5    1    5    5    0  502  0.29254200521E+02  0.10176892509E+03  0.11344973038E+03  0.15525995518E+03  0.47000000000E+01 0.  1.
</event>
<event>
12    1  0.9749377E-001  0.6172341E+03  0.7818608E-02  0.9870282E-01
         21   -1    0    0  501  502  0.00000000000E+00  0.00000000000E+00  0.12282154574E+04  0.12282154574E+04  0.00000000000E+00 0. -1.
         21   -1    0    0  502  503 -0.00000000000E+00 -0.00000000000E+00 -0.32153473763E+03  0.32153473763E+03  0.00000000000E+00 0.  1.
         -6    2    1    2    0  503 -0.57607621388E+03  0.18094243294E+03  0.40606214592E+03  0.74684639666E+03  0.16819365510E+03 0.  0.
        -24    2    3    3    0    0 -0.56590774246E+03  0.15715428478E+03  0.40940639039E+03  0.72034077886E+03  0.79550003084E+02 0.  0.
          6    2    1    2  501    0  0.57607621388E+03 -0.18094243294E+03  0.50061857383E+03  0.80290379834E+03  0.17155636007E+03 0.  0.
         24    2    5    5    0    0  0.34188086516E+03 -0.17644405466E+03  0.29511630367E+03  0.49126142347E+03  0.78924794040E+02 0.  0.
         12    1    6    6    0    0  0.32530153065E+03 -0.17248076078E+03  0.29836056081E+03  0.47390898169E+03  0.00000000000E+00 0. -1.
        -11    1    6    6    0    0  0.16579334520E+02 -0.39632938802E+01 -0.32442571438E+01  0.17352441785E+02  0.00000000000E+00 0.  1.
          5    1    5    5  501    0  0.23419534872E+03 -0.44983782828E+01  0.20550227017E+03  0.31164237487E+03  0.47000000000E+01 0. -1.
         11    1    4    4    0    0 -0.19300663380E+03  0.34337565637E+02  0.97652530309E+02  0.21901288953E+03  0.00000000000E+00 0. -1.
        -12    1    4    4    0    0 -0.37290110866E+03  0.12281671914E+03  0.31175386008E+03  0.50132788933E+03  0.00000000000E+00 0.  1.
         -5    1    3    3    0  503 -0.10168471421E+02  0.23788148160E+02 -0.33442444745E+01  0.26505617802E+02  0.47000000000E+01 0. -1.
</event>
<event>
12    1  0.9749377E-001  0.5029167E+03  0.7818608E-02  0.1013020E+00
         21   -1    0    0  501  502  0.00000000000E+00  0.00000000000E+00  0.19327662048E+03  0.19327662048E+03  0.00000000000E+00 0. -1.
         21   -1    0    0  502  503 -0.00000000000E+00 -0.00000000000E+00 -0.13648938145E+04  0.13648938145E+04  0.00000000000E+00 0.  1.
         -6    2    1    2    0  503 -0.17033287008E+03 -0.45205562769E+03 -0.54752901098E+03  0.75046870048E+03  0.17334265307E+03 0.  0.
        -24    2    3    3    0    0 -0.14720692326E+02 -0.13736915120E+03 -0.20339670892E+03  0.25884703733E+03  0.80898609701E+02 0.  0.
          6    2    1    2  501    0  0.17033287008E+03  0.45205562769E+03 -0.62408818303E+03  0.80770173449E+03  0.17183845479E+03 0.  0.
         24    2    5    5    0    0  0.19592569580E+03  0.40307724227E+03 -0.54251661692E+03  0.70906155320E+03  0.87096871856E+02 0.  0.
         14    1    6    6    0    0  0.11436893700E+03  0.16796380078E+03 -0.29377970646E+03  0.35720947363E+03  0.00000000000E+00 0. -1.
        -13    1    6    6    0    0  0.81556758797E+02  0.23511344149E+03 -0.24873691046E+03  0.35185207957E+03  0.00000000000E+00 0.  1.
          5    1    5    5  501    0 -0.25592825717E+02  0.48978385423E+02 -0.81571566114E+02  0.98640181291E+02  0.47000000000E+01 0. -1.
         11    1    4    4    0    0 -0.22466235004E+02 -0.21515142473E+02 -0.89471552038E+01  0.32367957260E+02  0.00000000000E+00 0. -1.
        -12    1    4    4    0    0  0.77455426787E+01 -0.11585400873E+03 -0.19444955372E+03  0.22647908007E+03  0.00000000000E+00 0.  1.
         -5    1    3    3    0  503 -0.15561217775E+03 -0.31468647649E+03 -0.34413230206E+03  0.49162166314E+03  0.47000000000E+01 0.  1.
</event>
<event>
12    1  0.9749377E-001  0.3404819E+03  0.7818608E-02  0.1066591E+00
         21   -1    0    0  501  502  0.00000000000E+00  0.00000000000E+00  0.13570274296E+04  0.13570274296E+04  0.00000000000E+00 0. -1.
         21   -1    0    0  502  503 -0.00000000000E+00 -0.00000000000E+00 -0.10025829929E+03  0.10025829929E+03  0.00000000000E+00 0.  1.
         -6    2    1    2    0  503 -0.31670246890E+03 -0.19595301259E+02  0.48669069520E+03  0.60657871182E+03  0.17431428860E+03 0.  0.
        -24    2    3    3    0    0 -0.19168927409E+03  0.27408034736E+02  0.19784578955E+03  0.28831611271E+03  0.80543443191E+02 0.  0.
          6    2    1    2  501    0  0.31670246890E+03  0.19595301259E+02  0.77007843512E+03  0.85070701707E+03  0.17319700637E+03 0.  0.
         24    2    5    5    0    0  0.14259664446E+03 -0.15126816128E+02  0.22783024191E+03  0.28011639624E+03  0.77433537540E+02 0.  0.
         14    1    6    6    0    0 -0.53583135671E+01  0.10343994781E+02  0.89248112990E+01  0.14675217512E+02  0.00000000000E+00 0. -1.
        -13    1    6    6    0    0  0.14795495803E+03 -0.25470810908E+02  0.21890543062E+03  0.26544117873E+03  0.00000000000E+00 0.  1.
          5    1    5    5  501    0  0.17410582444E+03  0.34722117387E+02  0.54224819321E+03  0.57059062083E+03  0.47000000000E+01 0. -1.
         11    1    4    4    0    0 -0.10300328962E+02  0.24452316334E+02  0.13865638121E+02  0.29937743257E+02  0.00000000000E+00 0. -1.
        -12    1    4    4    0    0 -0.18138894513E+03  0.29557184025E+01  0.18398015142E+03  0.25837836946E+03  0.00000000000E+00 0.  1.
         -5    1    3    3    0  503 -0.12501319481E+03 -0.47003335995E+02  0.28884490565E+03  0.31826259911E+03  0.47000000000E+01 0.  1.
</event>
<event>
12    1  0.9749377E-001  0.4406342E+03  0.7818608E-02  0.1030552E+00
         21   -1    0    0  503  502  0.00000000000E+00  0.00000000000E+00  0.96610274876E+03  0.96610274876E+03  0.00000000000E+00 0.  1.
         21   -1    0    0  501  503 -0.00000000000E+00 -0.00000000000E+00 -0.23619545827E+03  0.23619545827E+03  0.00000000000E+00 0. -1.
          6    2    1    2  501    0 -0.41872061970E+02 -0.41004073244E+03  0.58665873371E+03  0.73341100381E+03  0.15439092861E+03 0.  0.
         24    2    3    3    0    0 -0.41253084801E+02 -0.11442212364E+03  0.20286876026E+03  0.24894472147E+03  0.77611217455E+02 0.  0.
         -6    2    1    2    0  502  0.41872061970E+02  0.41004073244E+03  0.14324855678E+03  0.46888720322E+03  0.17160532767E+03 0.  0.
        -24    2    5    5    0    0  0.10285398131E+01  0.39455188822E+03  0.13212769489E+03  0.42356765813E+03  0.79243819099E+02 0.  0.
         12    1    4    4    0    0  0.21204396594E+02 -0.49872274334E+02  0.69049491728E+02  0.87776434708E+02  0.00000000000E+00 0. -1.
        -11    1    4    4    0    0 -0.62457481395E+02 -0.64549849305E+02  0.13381926853E+03  0.16116828676E+03  0.00000000000E+00 0.  1.
          5    1    3    3  501    0 -0.61897716939E+00 -0.29561860880E+03  0.38378997345E+03  0.48446628234E+03  0.47000000000E+01 0. -1.
         11    1    6    6    0    0 -0.18510913616E+02  0.66400967274E+02  0.48741888711E+02  0.84424605968E+02  0.00000000000E+00 0. -1.
        -12    1    6    6    0    0  0.19539453429E+02  0.32815092094E+03  0.83385806178E+02  0.33914305216E+03  0.00000000000E+00 0.  1.
         -5    1    5    5    0  502  0.40843522157E+02  0.15488844223E+02  0.11120861891E+02  0.45319545086E+02  0.47000000000E+01 0.  1.
</event>
<event>
12    1  0.9749377E-001  0.1820230E+03  0.7818608E-02  0.1165859E+00
         21   -1    0    0  501  502  0.00000000000E+00  0.00000000000E+00  0.71098051287E+02  0.71098051287E+02  0.00000000000E+00 0.  1.
         21   -1    0    0  502  503 -0.00000000000E+00 -0.00000000000E+00 -0.14125558915E+04  0.14125558915E+04  0.00000000000E+00 0.  1.
         -6    2    1    2    0  503  0.24155858258E+02 -0.13154157479E+03 -0.15243634999E+03  0.27497694709E+03  0.18571157542E+03 0.  0.
        -24    2    3    3    0    0  0.18577129359E+01 -0.15633538577E+03 -0.75484386241E+02  0.19097911930E+03  0.79567125777E+02 0.  0.
          6    2    1    2  501    0 -0.24155858258E+02  0.13154157479E+03 -0.11890214902E+04  0.12086769957E+04  0.17100083139E+03 0.  0.
         24    2    5    5    0    0 -0.10421549398E+02  0.12186149573E+03 -0.53307606676E+03  0.55249956258E+03  0.78274139199E+02 0.  0.
         14    1    6    6    0    0 -0.38233084861E+02  0.57102884864E+02 -0.34209602314E+03  0.34893007506E+03  0.00000000000E+00 0. -1.
        -13    1    6    6    0    0  0.27811535463E+02  0.64758610867E+02 -0.19098004362E+03  0.20356948752E+03  0.00000000000E+00 0.  1.
          5    1    5    5  501    0 -0.13734308861E+02  0.96800790609E+01 -0.65594542348E+03  0.65617743313E+03  0.47000000000E+01 0. -1.
         11    1    4    4    0    0 -0.33976112500E+02 -0.42671442214E+02 -0.36315291661E+02  0.65528838001E+02  0.00000000000E+00 0. -1.
        -12    1    4    4    0    0  0.35833825436E+02 -0.11366394355E+03 -0.39169094579E+02  0.12545028130E+03  0.00000000000E+00 0.  1.
         -5    1    3    3    0  503  0.22298145323E+02  0.24793810974E+02 -0.76951963750E+02  0.83997827783E+02  0.47000000000E+01 0.  1.
</event>
<event>
12    1  0.9749377E-001  0.5304531E+03  0.7818608E-02  0.1006122E+00
         21   -1    0    0  501  502  0.00000000000E+00  0.00000000000E+00  0.11203384626E+04  0.11203384626E+04  0.00000000000E+00 0. -1.
         21   -1    0    0  502  503 -0.00000000000E+00 -0.00000000000E+00 -0.26561846544E+03  0.26561846544E+03  0.00000000000E+00 0.  1.
         -6    2    1    2    0  503 -0.30735799206E+03  0.41462774619E+03  0.47757187371E+03  0.72430337070E+03  0.17365303069E+03 0.  0.
        -24    2    3    3    0    0 -0.19389005504E+03  0.15808688925E+03  0.24579104317E+03  0.36039043138E+03  0.82965101856E+02 0.  0.
          6    2    1    2  501    0  0.30735799206E+03 -0.41462774619E+03  0.37714812348E+03  0.66165355737E+03  0.17076188025E+03 0.  0.
         24    2    5    5    0    0  0.28232999371E+03 -0.33993334939E+03  0.37041993627E+03  0.58245120818E+03  0.82301721387E+02 0.  0.
         14    1    6    6    0    0  0.20739246211E+03 -0.18847613610E+03  0.24069855869E+03  0.36941938684E+03  0.00000000000E+00 0. -1.
        -13    1    6    6    0    0  0.74937531602E+02 -0.15145721329E+03  0.12972137758E+03  0.21303182133E+03  0.00000000000E+00 0.  1.
          5    1    5    5  501    0  0.25027998341E+02 -0.74694396799E+02  0.67281872058E+01  0.79202349190E+02  0.47000000000E+01 0. -1.
         13    1    4    4    0    0 -0.37990619768E+02  0.48705374411E+02  0.11114266743E+03  0.12715421035E+03  0.00000000000E+00 0. -1.
        -14    1    4    4    0    0 -0.15589943527E+03  0.10938151484E+03  0.13464837575E+03  0.23323622103E+03  0.00000000000E+00 0.  1.
         -5    1    3    3    0  503 -0.11346793702E+03  0.25654085693E+03  0.23178083054E+03  0.36391293933E+03  0.47000000000E+01 0.  1.
</event>
<event>
12    1  0.9749377E-001  0.2178055E+03  0.7818608E-02  0.1135530E+00
         21   -1    0    0  503  502  0.00000000000E+00  0.00000000000E+00  0.87366722479E+02  0.87366722479E+02  0.00000000000E+00 0.  1.
         21   -1    0    0  501  503 -0.00000000000E+00 -0.00000000000E+00 -0.82374881148E+03  0.82374881148E+03  0.00000000000E+00 0. -1.
          6    2    1    2  501    0 -0.16857562048E+03  0.97602810385E+02 -0.47733127982E+03  0.54399789513E+03  0.17362174631E+03 0.  0.
         24    2    3    3    0    0 -0.14371715503E+03  0.89544143925E+02 -0.48143572960E+03  0.51713115142E+03  0.83495458985E+02 0.  0.
         -6    2    1    2    0  502  0.16857562048E+03 -0.97602810385E+02 -0.25905080919E+03  0.36711763883E+03  0.17240646910E+03 0.  0.
        -24    2    5    5    0    0  0.40575333870E+02 -0.53216722884E+02 -0.18668344255E+03  0.21345136443E+03  0.78945550477E+02 0.  0.
         14    1    4    4    0    0 -0.57203537409E+02  0.46181051080E+02 -0.32476724608E+03  0.33298453162E+03  0.00000000000E+00 0. -1.
        -13    1    4    4    0    0 -0.86513617625E+02  0.43363092845E+02 -0.15666848352E+03  0.18414661980E+03  0.00000000000E+00 0.  1.
          5    1    3    3  501    0 -0.24858465448E+02  0.80586664601E+01  0.41044497788E+01  0.26866743709E+02  0.47000000000E+01 0. -1.
         13    1    6    6    0    0  0.64503510632E+02 -0.38758743169E+02 -0.12886093409E+03  0.14922494225E+03  0.00000000000E+00 0. -1.
        -14    1    6    6    0    0 -0.23928176762E+02 -0.14457979715E+02 -0.57822508466E+02  0.64226422179E+02  0.00000000000E+00 0.  1.
         -5    1    5    5    0  502  0.12800028661E+03 -0.44386087501E+02 -0.72367366631E+02  0.15366627440E+03  0.47000000000E+01 0.  1.
</event>
<event>
12    1  0.9749377E-001  0.5372359E+03  0.7818608E-02  0.1004492E+00
         21   -1    0    0  503  502  0.00000000000E+00  0.00000000000E+00  0.17978492374E+04  0.17978492374E+04  0.00000000000E+00 0.  1.
         21   -1    0    0  501  503 -0.00000000000E+00 -0.00000000000E+00 -0.32044164667E+03  0.32044164667E+03  0.00000000000E+00 0. -1.
          6    2    1    2  501    0  0.38254975351E+03 -0.35213004901E+03  0.14721463603E+04  0.15708582592E+04  0.17332304799E+03 0.  0.
         24    2    3    3    0    0  0.26951482048E+03 -0.32813495670E+03  0.11427713879E+04  0.12217699853E+04  0.80527409196E+02 0.  0.
         -6    2    1    2    0  502 -0.38254975351E+03  0.35213004901E+03  0.52612304641E+01  0.54743262493E+03  0.17121598337E+03 0.  0.
        -24    2    5    5    0    0 -0.29805235143E+03  0.31959826688E+03  0.48816449820E+02  0.44684795940E+03  0.79446816523E+02 0.  0.
         14    1    4    4    0    0  0.13839489034E+03 -0.22027590246E+03  0.62903682932E+03  0.68070694981E+03  0.00000000000E+00 0. -1.
        -13    1    4    4    0    0  0.13111993014E+03 -0.10785905424E+03  0.51373455857E+03  0.54106303545E+03  0.00000000000E+00 0.  1.
          5    1    3    3  501    0  0.11303493303E+03 -0.23995092312E+02  0.32937497241E+03  0.34908827393E+03  0.47000000000E+01 0. -1.
         13    1    6    6    0    0 -0.57902487675E+02  0.82218875184E+02 -0.19246314018E+02  0.10238682590E+03  0.00000000000E+00 0. -1.
        -14    1    6    6    0    0 -0.24014986376E+03  0.23737939170E+03  0.68062763838E+02  0.34446113350E+03  0.00000000000E+00 0.  1.
         -5    1    5    5    0  502 -0.84497402075E+02  0.32531782128E+02 -0.43555219356E+02  0.10058466553E+03  0.47000000000E+01 0.  1.
</event>
<event>
12    1  0.9749377E-001  0.2148608E+03  0.7818608E-02  0.1137774E+00
         21   -1    0    0  501  502  0.00000000000E+00  0.00000000000E+00  0.31682398088E+03  0.31682398088E+03  0.00000000000E+00 0.  1.
         21   -1    0    0  502  503 -0.00000000000E+00 -0.00000000000E+00 -0.55002272339E+03  0.55002272339E+03  0.00000000000E+00 0. -1.
         -6    2    1    2    0  503  0.16266195058E+03 -0.31426952619E+02  0.23823469529E+03  0.33724197821E+03  0.17184242290E+03 0.  0.
        -24    2    3    3    0    0  0.26863361413E+02 -0.33757554704E+02  0.46575723899E+02  0.10229104750E+03  0.80205658505E+02 0.  0.
          6    2    1    2  501    0 -0.16266195058E+03  0.31426952619E+02 -0.47143343779E+03  0.52960472606E+03  0.17545687813E+03 0.  0.
         24    2    5    5    0    0 -0.46417609119E+02 -0.40449435956E+02 -0.24931184143E+03  0.26876175466E+03  0.79282628544E+02 0.  0.
         14    1    6    6    0    0 -0.17968998675E+02 -0.39600376136E+02 -0.23068260059E+03  0.23474568562E+03  0.00000000000E+00 0. -1.
        -13    1    6    6    0    0 -0.28448610445E+02 -0.84905982006E+00 -0.18629240835E+02  0.34016069040E+02  0.00000000000E+00 0.  1.
          5    1    5    5  501    0 -0.11624434146E+03  0.71876388576E+02 -0.22212159637E+03  0.26084297140E+03  0.47000000000E+01 0. -1.
         13    1    4    4    0    0  0.50905122255E+02 -0.11131820913E+02  0.45630857918E+02  0.69263439872E+02  0.00000000000E+00 0. -1.
        -14    1    4    4    0    0 -0.24041760842E+02 -0.22625733791E+02  0.94486598157E+00  0.33027607629E+02  0.00000000000E+00 0.  1.
         -5    1    3    3    0  503  0.13579858917E+03  0.23306020849E+01  0.19165897139E+03  0.23495093071E+03  0.47000000000E+01 0.  1.
</event>
<event>
12    1  0.9749377E-001  0.1800428E+03  0.7818608E-02  0.1167762E+00
         21   -1    0    0  501  502  0.00000000000E+00  0.00000000000E+00  0.86970157349E+02  0.86970157349E+02  0.00000000000E+00 0.  1.
         21   -1    0    0  502  503 -0.00000000000E+00 -0.00000000000E+00 -0.49277739315E+03  0.49277739315E+03  0.00000000000E+00 0. -1.
         -6    2    1    2    0  503  0.11011246970E+03  0.33118298276E+02 -0.20775701817E+03  0.29341112575E+03  0.17235292993E+03 0.  0.
        -24    2    3    3    0    0  0.65176379697E+02 -0.27323798185E+02 -0.18612151940E+03  0.21490836137E+03  0.80931040915E+02 0.  0.
          6    2    1    2  501    0 -0.11011246970E+03 -0.33118298276E+02 -0.19805021764E+03  0.28633642475E+03  0.17188101050E+03 0.  0.
         24    2    5    5    0    0 -0.21157856883E+02 -0.57749237407E+01 -0.45179680985E+02  0.10730549377E+03  0.94827531693E+02 0.  0.
         12    1    6    6    0    0 -0.13226312783E+02  0.38125303271E+02 -0.47874215520E+02  0.62613214348E+02  0.00000000000E+00 0. -1.
        -11    1    6    6    0    0 -0.79315441001E+01 -0.43900227011E+02  0.26945345354E+01  0.44692279421E+02  0.00000000000E+00 0.  1.
          5    1    5    5  501    0 -0.88954612814E+02 -0.27343374536E+02 -0.15287053665E+03  0.17903093098E+03  0.47000000000E+01 0. -1.
         13    1    4    4    0    0  0.50610796931E+02  0.21898115504E+02 -0.11071551756E+03  0.12368874669E+03  0.00000000000E+00 0. -1.
        -14    1    4    4    0    0  0.14565582765E+02 -0.49221913689E+02 -0.75406001844E+02  0.91219614682E+02  0.00000000000E+00 0.  1.
         -5    1    3    3    0  503  0.44936090000E+02  0.60442096461E+02 -0.21635498766E+02  0.78502764384E+02  0.47000000000E+01 0.  1.
</event>
<event>
12    1  0.9749377E-001  0.3258944E+03  0.7818608E-02  0.1072968E+00
         21   -1    0    0  503  502  0.00000000000E+00  0.00000000000E+00  0.34091379782E+03  0.34091379782E+03  0.00000000000E+00 0.  1.
         21   -1    0    0  501  503 -0.00000000000E+00 -0.00000000000E+00 -0.35438411706E+03  0.35438411706E+03  0.00000000000E+00 0. -1.
          6    2    1    2  501    0  0.66422969415E+02  0.29429143902E+03  0.69448819210E+01  0.34722116413E+03  0.17174062853E+03 0.  0.
         24    2    3    3    0    0  0.72279954510E+01  0.22194183285E+03 -0.44913780654E+02  0.24021685889E+03  0.79852805311E+02 0.  0.
         -6    2    1    2    0  502 -0.66422969415E+02 -0.29429143902E+03 -0.20415201159E+02  0.34807675075E+03  0.17239832374E+03 0.  0.
        -24    2    5    5    0    0  0.12539212690E+01 -0.11651147777E+03 -0.64793537351E+02  0.15268636491E+03  0.74420607204E+02 0.  0.
         14    1    4    4    0    0  0.33436848046E+02  0.12272550497E+03 -0.51855134012E+02  0.13736275806E+03  0.00000000000E+00 0. -1.
        -13    1    4    4    0    0 -0.26208852595E+02  0.99216327875E+02  0.69413533577E+01  0.10285410083E+03  0.00000000000E+00 0.  1.
          5    1    3    3  501    0  0.59194973964E+02  0.72349606175E+02  0.51858662575E+02  0.10700430524E+03  0.47000000000E+01 0. -1.
         13    1    6    6    0    0 -0.77981621930E+01  0.91948403222E+01 -0.78552617419E+01  0.14389633740E+02  0.00000000000E+00 0. -1.
        -14    1    6    6    0    0  0.90520834621E+01 -0.12570631809E+03 -0.56938275609E+02  0.13829673117E+03  0.00000000000E+00 0.  1.
         -5    1    5    5    0  502 -0.67676890684E+02 -0.17777996126E+03  0.44378336193E+02  0.19539038584E+03  0.47000000000E+01 0.  1.
</event>
<event>
12    1  0.9749377E-001  0.1663802E+03  0.7818608E-02  0.1181676E+00
         21   -1    0    0  501  502  0.00000000000E+00  0.00000000000E+00  0.11808845381E+03  0.11808845381E+03  0.00000000000E+00 0. -1.
         21   -1    0    0  502  503 -0.00000000000E+00 -0.00000000000E+00 -0.38698033737E+03  0.38698033737E+03  0.00000000000E+00 0.  1.
         -6    2    1    2    0  503  0.10751304392E+03  0.65684961560E+02 -0.11092538463E+03  0.24030930136E+03  0.17196089840E+03 0.  0.
        -24    2    3    3    0    0  0.94010207490E+02  0.58721116361E+02 -0.83237938279E+01  0.13648253137E+03  0.79196636338E+02 0.  0.
          6    2    1    2  501    0 -0.10751304392E+03 -0.65684961560E+02 -0.15796649894E+03  0.26475948982E+03  0.17108653914E+03 0.  0.
         24    2    5    5    0    0 -0.73418688742E+02 -0.10908478971E+03 -0.13402347844E+03  0.20441606956E+03  0.80832181207E+02 0.  0.
         12    1    6    6    0    0 -0.49111908598E+02 -0.11538622041E+03 -0.12668459215E+03  0.17825528131E+03  0.00000000000E+00 0. -1.
        -11    1    6    6    0    0 -0.24306780144E+02  0.63014307030E+01 -0.73388862915E+01  0.26160788250E+02  0.00000000000E+00 0.  1.
          5    1    5    5  501    0 -0.34094355181E+02  0.43399828146E+02 -0.23943020499E+02  0.60343420262E+02  0.47000000000E+01 0. -1.
         11    1    4    4    0    0  0.55588544431E+02  0.31831806238E+02  0.34689877560E+02  0.72847359358E+02  0.00000000000E+00 0. -1.
        -12    1    4    4    0    0  0.38421663059E+02  0.26889310123E+02 -0.43013671388E+02  0.63635172015E+02  0.00000000000E+00 0.  1.
         -5    1    3    3    0  503  0.13502836434E+02  0.69638451985E+01 -0.10260159080E+03  0.10382676999E+03  0.47000000000E+01 0.  1.
</event>
<event>
12    1  0.1292651E+000  0.1177978E+04  0.7818608E-02  0.9132354E-01
         21   -1    0    0  501  502  0.00000000000E+00  0.00000000000E+00  0.80676854759E+03  0.80676854759E+03  0.00000000000E+00 0.  1.
         21   -1    0    0  502  503 -0.00000000000E+00 -0.00000000000E+00 -0.17581741699E+04  0.17581741699E+04  0.00000000000E+00 0. -1.
         -6    2    1    2    0  503 -0.10184408129E+04 -0.57247317563E+03 -0.31279629401E+03  0.12223506452E+04  0.17706595407E+03 0.  0.
        -24    2    3    3    0    0 -0.48771545228E+03 -0.33808256906E+03 -0.11898515500E+03  0.61063730347E+03  0.80958405259E+02 0.  0.
          6    2    1    2  501    0  0.10184408129E+04  0.57247317563E+03 -0.63860932831E+03  0.13425920723E+04  0.17258149422E+03 0.  0.
         24    2    5    5    0    0  0.50736906077E+03  0.35607373260E+03 -0.36610956453E+03  0.72428691620E+03  0.79645821418E+02 0.  0.
         12    1    6    6    0    0  0.50491209149E+01  0.18864819745E+02 -0.71011318235E+01  0.20779824812E+02  0.00000000000E+00 0. -1.
        -11    1    6    6    0    0  0.50231993985E+03  0.33720891285E+03 -0.35900843271E+03  0.70350709139E+03  0.00000000000E+00 0.  1.
          5    1    5    5  501    0  0.51107175214E+03  0.21639944303E+03 -0.27249976378E+03  0.61830515608E+03  0.47000000000E+01 0. -1.
         11    1    4    4    0    0 -0.47422332549E+03 -0.31450116758E+03 -0.12547860988E+03  0.58270372264E+03  0.00000000000E+00 0. -1.
        -12    1    4    4    0    0 -0.13492126789E+02 -0.23581401485E+02  0.64934548848E+01  0.27933580824E+02  0.00000000000E+00 0.  1.
         -5    1    3    3    0  503 -0.53072536063E+03 -0.23439060657E+03 -0.19381113901E+03  0.61171334174E+03  0.47000000000E+01 0.  1.
</event>
<event>
12    1  0.9749377E-001  0.1901965E+03  0.7818608E-02  0.1158284E+00
         21   -1    0    0  501  502  0.00000000000E+00  0.00000000000E+00  0.21677242252E+03  0.21677242252E+03  0.00000000000E+00 0. -1.
         21   -1    0    0  502  503 -0.00000000000E+00 -0.00000000000E+00 -0.31822074063E+03  0.31822074063E+03  0.00000000000E+00 0.  1.
         -6    2    1    2    0  503 -0.87629304738E+02  0.10328626062E+03  0.96510928906E+02  0.24003644637E+03  0.17307856455E+03 0.  0.
        -24    2    3    3    0    0 -0.73189534336E+02  0.76217792391E+01  0.96873718339E+02  0.14317354541E+03  0.75494021918E+02 0.  0.
          6    2    1    2  501    0  0.87629304738E+02 -0.10328626062E+03 -0.19795924702E+03  0.29495671678E+03  0.17165271514E+03 0.  0.
         24    2    5    5    0    0  0.11594563777E+02 -0.24823874641E+02 -0.15529386438E+03  0.17756824750E+03  0.81631118714E+02 0.  0.
         14    1    6    6    0    0 -0.26546981775E+02  0.10099222539E+02 -0.26770585071E+02  0.39030766868E+02  0.00000000000E+00 0. -1.
        -13    1    6    6    0    0  0.38141545552E+02 -0.34923097180E+02 -0.12852327931E+03  0.13853748063E+03  0.00000000000E+00 0.  1.
          5    1    5    5  501    0  0.76034740961E+02 -0.78462385977E+02 -0.42665382633E+02  0.11738846929E+03  0.47000000000E+01 0. -1.
         13    1    4    4    0    0  0.64229763237E+01 -0.10588098682E+02  0.44412882231E+02  0.46107120563E+02  0.00000000000E+00 0. -1.
        -14    1    4    4    0    0 -0.79612510660E+02  0.18209877921E+02  0.52460836108E+02  0.97066424847E+02  0.00000000000E+00 0.  1.
         -5    1    3    3    0  503 -0.14439770402E+02  0.95664481379E+02 -0.36278943282E+00  0.96862900963E+02  0.47000000000E+01 0.  1.
</event>
<event>
12    1  0.9749377E-001  0.2917063E+03  0.7818608E-02  0.1089462E+00
         21   -1    0    0  503  502  0.00000000000E+00  0.00000000000E+00  0.50804935473E+03  0.50804935473E+03  0.00000000000E+00 0. -1.
         21   -1    0    0  501  503 -0.00000000000E+00 -0.00000000000E+00 -0.21423536159E+03  0.21423536159E+03  0.00000000000E+00 0.  1.
          6    2    1    2  501    0 -0.26287199695E+03  0.88122880734E+02  0.20016020210E+03  0.38309367985E+03  0.17271170240E+03 0.  0.
         24    2    3    3    0    0 -0.24073056579E+03  0.92507578763E+02  0.11217412310E+03  0.29213704927E+03  0.79070628068E+02 0.  0.
         -6    2    1    2    0  502  0.26287199695E+03 -0.88122880734E+02  0.93653791039E+02  0.33919103647E+03  0.17149984768E+03 0.  0.
        -24    2    5    5    0    0  0.21845196307E+03 -0.91893250479E+02  0.12982166379E+03  0.28159277159E+03  0.79216128189E+02 0.  0.
         14    1    4    4    0    0 -0.23874577267E+02  0.35065673973E+02  0.26773749954E+01  0.42506061541E+02  0.00000000000E+00 0. -1.
        -13    1    4    4    0    0 -0.21685598853E+03  0.57441904790E+02  0.10949674811E+03  0.24963098772E+03  0.00000000000E+00 0.  1.
          5    1    3    3  501    0 -0.22141431161E+02 -0.43846980284E+01  0.87986078997E+02  0.90956630588E+02  0.47000000000E+01 0. -1.
         13    1    6    6    0    0  0.39074363080E+02  0.12753134248E+02  0.31705886221E+02  0.51910610710E+02  0.00000000000E+00 0. -1.
        -14    1    6    6    0    0  0.17937759999E+03 -0.10464638473E+03  0.98115777574E+02  0.22968216088E+03  0.00000000000E+00 0.  1.
         -5    1    5    5    0  502  0.44420033883E+02  0.37703697451E+01 -0.36167872756E+02  0.57598264886E+02  0.47000000000E+01 0.  1.
</event>
<event>
12    1  0.9749377E-001  0.1817534E+03  0.7818608E-02  0.1166117E+00
         21   -1    0    0  501  502  0.00000000000E+00  0.00000000000E+00  0.23829478449E+03  0.23829478449E+03  0.00000000000E+00 0. -1.
         21   -1    0    0  502  503 -0.00000000000E+00 -0.00000000000E+00 -0.27234674353E+03  0.27234674353E+03  0.00000000000E+00 0.  1.
         -6    2    1    2    0  503  0.14074962103E+02  0.13018821021E+03  0.11727587767E+03  0.24614098606E+03  0.17229242264E+03 0.  0.
        -24    2    3    3    0    0  0.46572459952E+02  0.70111841373E+02  0.13215117340E+03  0.17607942825E+03  0.80345305373E+02 0.  0.
          6    2    1    2  501    0 -0.14074962103E+02 -0.13018821021E+03 -0.15132783671E+03  0.26450054196E+03  0.17295475678E+03 0.  0.
         24    2    5    5    0    0 -0.49365828693E+02 -0.75476748765E+02 -0.26859748664E+02  0.12395452024E+03  0.80681796847E+02 0.  0.
         12    1    6    6    0    0 -0.56625172196E+02 -0.20869763581E+02  0.45880533872E+01  0.60522784073E+02  0.00000000000E+00 0. -1.
        -11    1    6    6    0    0  0.72593435028E+01 -0.54606985184E+02 -0.31447802051E+02  0.63431736165E+02  0.00000000000E+00 0.  1.
          5    1    5    5  501    0  0.35290866590E+02 -0.54711461448E+02 -0.12446808805E+03  0.14054602172E+03  0.47000000000E+01 0. -1.
         13    1    4    4    0    0  0.46982215051E+02  0.28506374834E+01  0.38681636845E+02  0.60923917259E+02  0.00000000000E+00 0. -1.
        -14    1    4    4    0    0 -0.40975509926E+00  0.67261203890E+02  0.93469536556E+02  0.11515551099E+03  0.00000000000E+00 0.  1.
         -5    1    3    3    0  503 -0.32497497850E+02  0.60076368840E+02 -0.14875295735E+02  0.70061557809E+02  0.47000000000E+01 0.  1.
</event>
<event>
12    1  0.9749377E-001  0.7864623E+03  0.7818608E-02  0.9579822E-01
         21   -1    0    0  503  502  0.00000000000E+00  0.00000000000E+00  0.17190401650E+04  0.17190401650E+04  0.00000000000E+00 0. -1.
         21   -1    0    0  501  503 -0.00000000000E+00 -0.00000000000E+00 -0.37239157648E+03  0.37239157648E+03  0.00000000000E+00 0.  1.
          6    2    1    2  501    0 -0.42538034529E+03  0.65178109789E+03  0.76395607249E+03  0.11041473368E+04  0.17246861412E+03 0.  0.
         24    2    3    3    0    0 -0.20123712263E+03  0.22696656935E+03  0.28678137782E+03  0.42707618307E+03  0.90223635246E+02 0.  0.
         -6    2    1    2    0  502  0.42538034529E+03 -0.65178109789E+03  0.58269251603E+03  0.98728440472E+03  0.17156016390E+03 0.  0.
        -24    2    5    5    0    0  0.20246222898E+03 -0.41957517570E+03  0.31063762048E+03  0.56580126973E+03  0.81246928270E+02 0.  0.
         14    1    4    4    0    0 -0.56568467304E+02  0.80838235844E+02  0.41585960186E+02  0.10707102293E+03  0.00000000000E+00 0. -1.
        -13    1    4    4    0    0 -0.14466865533E+03  0.14612833350E+03  0.24519541763E+03  0.32000516014E+03  0.00000000000E+00 0.  1.
          5    1    3    3  501    0 -0.22414322266E+03  0.42481452854E+03  0.47717469467E+03  0.67707115369E+03  0.47000000000E+01 0. -1.
         11    1    6    6    0    0  0.11170201596E+03 -0.20672158730E+03  0.20334215373E+03  0.31073974080E+03  0.00000000000E+00 0. -1.
        -12    1    6    6    0    0  0.90760213014E+02 -0.21285358840E+03  0.10729546675E+03  0.25506152894E+03  0.00000000000E+00 0.  1.
         -5    1    5    5    0  502  0.22291811631E+03 -0.23220592219E+03  0.27205489555E+03  0.42148313498E+03  0.47000000000E+01 0.  1.
</event>
<event>
12    1  0.9749377E-001  0.2387907E+03  0.7818608E-02  0.1120601E+00
         21   -1    0    0  501  502  0.00000000000E+00  0.00000000000E+00  0.14254041479E+03  0.14254041479E+03  0.00000000000E+00 0. -1.
         21   -1    0    0  502  503 -0.00000000000E+00 -0.00000000000E+00 -0.53257448737E+03  0.53257448737E+03  0.00000000000E+00 0.  1.
         -6    2    1    2    0  503 -0.13515683188E+02  0.20931464176E+03 -0.25338146066E+03  0.37162568521E+03  0.17293985184E+03 0.  0.
        -24    2    3    3    0    0  0.13399117471E+02  0.31329137275E+02 -0.55898219853E+02  0.10437118721E+03  0.81287653097E+02 0.  0.
          6    2    1    2  501    0  0.13515683188E+02 -0.20931464176E+03 -0.13665261192E+03  0.30348921695E+03  0.17157061378E+03 0.  0.
         24    2    5    5    0    0  0.49688718742E+02 -0.80995390929E+02 -0.19524946830E+02  0.12596372987E+03  0.80351823694E+02 0.  0.
         14    1    6    6    0    0  0.40650276611E+02 -0.51976744052E+02 -0.50102021825E+02  0.82850706103E+02  0.00000000000E+00 0. -1.
        -13    1    6    6    0    0  0.90384421306E+01 -0.29018646877E+02  0.30577074995E+02  0.43113023763E+02  0.00000000000E+00 0.  1.
          5    1    5    5  501    0 -0.36173035554E+02 -0.12831925083E+03 -0.11712766509E+03  0.17752548708E+03  0.47000000000E+01 0. -1.
         11    1    4    4    0    0 -0.23284800746E+02  0.10481701447E+02 -0.56683836432E+02  0.62169971238E+02  0.00000000000E+00 0. -1.
        -12    1    4    4    0    0  0.36683918217E+02  0.20847435828E+02  0.78561657947E+00  0.42201215975E+02  0.00000000000E+00 0.  1.
         -5    1    3    3    0  503 -0.26914800659E+02  0.17798550448E+03 -0.19748324080E+03  0.26725449800E+03  0.47000000000E+01 0.  1.
</event>
<event>
12    1  0.9749377E-001  0.3932942E+03  0.7818608E-02  0.1046127E+00
         21   -1    0    0  501  502  0.00000000000E+00  0.00000000000E+00  0.75318530109E+03  0.75318530109E+03  0.00000000000E+00 0.  1.
         21   -1    0    0  502  503 -0.00000000000E+00 -0.00000000000E+00 -0.22393878083E+03  0.22393878083E+03  0.00000000000E+00 0. -1.
         -6    2    1    2    0  503 -0.29733670706E+03  0.21807523698E+03  0.34396538974E+03  0.53219420365E+03  0.17015450248E+03 0.  0.
        -24    2    3    3    0    0 -0.13541767840E+03  0.40858206797E+02  0.11383353121E+03  0.19961878372E+03  0.82959299073E+02 0.  0.
          6    2    1    2  501    0  0.29733670706E+03 -0.21807523698E+03  0.18528113053E+03  0.44492987827E+03  0.16633572346E+03 0.  0.
         24    2    5    5    0    0  0.51877639478E+02 -0.71861935455E+02  0.37801681678E+02  0.12336999079E+03  0.77043885191E+02 0.  0.
         14    1    6    6    0    0 -0.81401724801E+01  0.11728264113E+02  0.20048057283E+01  0.14416443150E+02  0.00000000000E+00 0. -1.
        -13    1    6    6    0    0  0.60017811958E+02 -0.83590199568E+02  0.35796875949E+02  0.10895354764E+03  0.00000000000E+00 0.  1.
          5    1    5    5  501    0  0.24545906758E+03 -0.14621330152E+03  0.14747944885E+03  0.32155988747E+03  0.47000000000E+01 0. -1.
         13    1    4    4    0    0 -0.18498567783E+01  0.49076822539E+01  0.44656575053E+02  0.44963507544E+02  0.00000000000E+00 0. -1.
        -14    1    4    4    0    0 -0.13356782162E+03  0.35950524544E+02  0.69176956152E+02  0.15465527618E+03  0.00000000000E+00 0.  1.
         -5    1    3    3    0  503 -0.16191902866E+03  0.17721703018E+03  0.23013185853E+03  0.33257541993E+03  0.47000000000E+01 0.  1.
</event>
<event>
12    1  0.9749377E-001  0.3498283E+03  0.7818608E-02  0.1062686E+00
         21   -1    0    0  503  502  0.00000000000E+00  0.00000000000E+00  0.17814668751E+04  0.17814668751E+04  0.00000000000E+00 0.  1.
         21   -1    0    0  501  503 -0.00000000000E+00 -0.00000000000E+00 -0.82801504920E+02  0.82801504920E+02  0.00000000000E+00 0. -1.
          6    2    1    2  501    0 -0.13081766620E+03  0.29070995793E+03  0.11586873534E+04  0.12140166957E+04  0.17220514831E+03 0.  0.
         24    2    3    3    0    0 -0.11455396750E+03  0.29941992028E+03  0.11412732640E+04  0.11882153033E+04  0.81092809975E+02 0.  0.
         -6    2    1    2    0  502  0.13081766620E+03 -0.29070995793E+03  0.53997801677E+03  0.65025168430E+03  0.17212046047E+03 0.  0.
        -24    2    5    5    0    0  0.15298485213E+03 -0.27947786366E+03  0.52980229617E+03  0.62299036805E+03  0.76904384783E+02 0.  0.
         12    1    4    4    0    0 -0.11894574398E+03  0.23846206662E+03  0.85825312152E+03  0.89867161290E+03  0.00000000000E+00 0. -1.
        -11    1    4    4    0    0  0.43917764862E+01  0.60957853663E+02  0.28302014246E+03  0.28954369042E+03  0.00000000000E+00 0.  1.
          5    1    3    3  501    0 -0.16263698702E+02 -0.87099623539E+01  0.17414089459E+02  0.25801392431E+02  0.47000000000E+01 0. -1.
         13    1    6    6    0    0  0.13956964250E+03 -0.18210885934E+03  0.37473556486E+03  0.43939738885E+03  0.00000000000E+00 0. -1.
        -14    1    6    6    0    0  0.13415209626E+02 -0.97369004324E+02  0.15506673132E+03  0.18359297920E+03  0.00000000000E+00 0.  1.
         -5    1    5    5    0  502 -0.22167185931E+02 -0.11232094267E+02  0.10175720591E+02  0.27261316242E+02  0.47000000000E+01 0.  1.
</event>
<event>
12    1  0.9749377E-001  0.5043694E+03  0.7818608E-02  0.1012645E+00
         21   -1    0    0  501  502  0.00000000000E+00  0.00000000000E+00  0.14305073162E+04  0.14305073162E+04  0.00000000000E+00 0.  1.
         21   -1    0    0  502  503 -0.00000000000E+00 -0.00000000000E+00 -0.78425543061E+03  0.78425543061E+03  0.00000000000E+00 0. -1.
         -6    2    1    2    0  503  0.43821143398E+03 -0.21490423665E+03  0.12892252359E+04  0.13894916351E+04  0.17427622669E+03 0.  0.
        -24    2    3    3    0    0  0.35217330953E+03 -0.11452500818E+03  0.10482694981E+04  0.11146092857E+04  0.79642336961E+02 0.  0.
          6    2    1    2  501    0 -0.43821143398E+03  0.21490423665E+03 -0.64297335031E+03  0.82527111176E+03  0.17159425076E+03 0.  0.
         24    2    5    5    0    0 -0.11775468252E+03  0.43460978733E+02 -0.14672926394E+03  0.21015681059E+03  0.82954121140E+02 0.  0.
         12    1    6    6    0    0  0.82169800825E+01  0.14935651392E+01  0.40211454992E+01  0.92692561529E+01  0.00000000000E+00 0. -1.
        -11    1    6    6    0    0 -0.12597166260E+03  0.41967413594E+02 -0.15075040944E+03  0.20088755444E+03  0.00000000000E+00 0.  1.
          5    1    5    5  501    0 -0.32045675146E+03  0.17144325792E+03 -0.49624408637E+03  0.61511430117E+03  0.47000000000E+01 0. -1.
         11    1    4    4    0    0  0.99528798441E+02 -0.16647088438E+02  0.19827716519E+03  0.22247908106E+03  0.00000000000E+00 0. -1.
        -12    1    4    4    0    0  0.25264451109E+03 -0.97877919738E+02  0.84999233288E+03  0.89213020468E+03  0.00000000000E+00 0.  1.
         -5    1    3    3    0  503  0.86038124449E+02 -0.10037922848E+03  0.24095573787E+03  0.27488234934E+03  0.47000000000E+01 0.  1.
</event>
<event>
12    1  0.9749377E-001  0.2703909E+03  0.7818608E-02  0.1101056E+00
         21   -1    0    0  501  502  0.00000000000E+00  0.00000000000E+00  0.52477376502E+03  0.52477376502E+03  0.00000000000E+00 0. -1.
         21   -1    0    0  502  503 -0.00000000000E+00 -0.00000000000E+00 -0.17118247915E+03  0.17118247915E+03  0.00000000000E+00 0.  1.
         -6    2    1    2    0  503 -0.15006803875E+03 -0.19360216494E+03  0.20136122171E+03  0.36095715566E+03  0.17245727612E+03 0.  0.
        -24    2    3    3    0    0 -0.14735492774E+03 -0.19451548525E+03  0.12798049870E+03  0.28737036584E+03  0.81565742726E+02 0.  0.
          6    2    1    2  501    0  0.15006803875E+03  0.19360216494E+03  0.15223006416E+03  0.33499908851E+03  0.17043527317E+03 0.  0.
         24    2    5    5    0    0  0.14825012453E+03  0.21269307438E+03  0.15875562797E+03  0.31420388188E+03  0.79399538199E+02 0.  0.
         12    1    6    6    0    0  0.24364177600E+02  0.72556345225E+01 -0.18773770517E+01  0.25490820447E+02  0.00000000000E+00 0. -1.
        -11    1    6    6    0    0  0.12388594693E+03  0.20543743986E+03  0.16063300502E+03  0.28871306144E+03  0.00000000000E+00 0.  1.
          5    1    5    5  501    0  0.18179142218E+01 -0.19090909443E+02 -0.65255638063E+01  0.20795206623E+02  0.47000000000E+01 0. -1.
         11    1    4    4    0    0 -0.33656512185E+02 -0.88783257153E+02  0.16844859739E+02  0.96431202744E+02  0.00000000000E+00 0. -1.
        -12    1    4    4    0    0 -0.11369841556E+03 -0.10573222810E+03  0.11113563896E+03  0.19093916310E+03  0.00000000000E+00 0.  1.
         -5    1    3    3    0  503 -0.27131110117E+01  0.91332031133E+00  0.73380723012E+02  0.73586789814E+02  0.47000000000E+01 0.  1.
</event>
<event>
12    1  0.9749377E-001  0.8855036E+03  0.7818608E-02  0.9443886E-01
         21   -1    0    0  501  502  0.00000000000E+00  0.00000000000E+00  0.12135571198E+04  0.12135571198E+04  0.00000000000E+00 0.  1.
         21   -1    0    0  502  503 -0.00000000000E+00 -0.00000000000E+00 -0.74906066801E+03  0.74906066801E+03  0.00000000000E+00 0. -1.
         -6    2    1    2    0  503 -0.47083070116E+03 -0.74040152832E+03 -0.10850413000E+03  0.90129121053E+03  0.17514773095E+03 0.  0.
        -24    2    3    3    0    0 -0.27458912646E+03 -0.48247608320E+03 -0.13258591263E+03  0.57627072942E+03  0.79539739337E+02 0.  0.
          6    2    1    2  501    0  0.47083070116E+03  0.74040152832E+03  0.57300058183E+03  0.10613265773E+04  0.16795375751E+03 0.  0.
         24    2    5    5    0    0  0.25486800296E+03  0.50848766812E+03  0.40289831915E+03  0.70163115709E+03  0.80260933609E+02 0.  0.
         14    1    6    6    0    0  0.16884912616E+03  0.40506454905E+03  0.28997184946E+03  0.52599523741E+03  0.00000000000E+00 0. -1.
        -13    1    6    6    0    0  0.86018876803E+02  0.10342311907E+03  0.11292646970E+03  0.17563591968E+03  0.00000000000E+00 0.  1.
          5    1    5    5  501    0  0.21596269820E+03  0.23191386020E+03  0.17010226267E+03  0.35969542023E+03  0.47000000000E+01 0. -1.
         13    1    4    4    0    0 -0.10214458313E+03 -0.14196119928E+03 -0.91957383010E+01  0.17513154932E+03  0.00000000000E+00 0. -1.
        -14    1    4    4    0    0 -0.17244454333E+03 -0.34051488392E+03 -0.12339017433E+03  0.40113918010E+03  0.00000000000E+00 0.  1.
         -5    1    3    3    0  503 -0.19624157471E+03 -0.25792544512E+03  0.24081782634E+02  0.32502048110E+03  0.47000000000E+01 0.  1.
</event>
<event>
12    1  0.9749377E-001  0.1478181E+03  0.7818608E-02  0.1203180E+00
         21   -1    0    0  503  502  0.00000000000E+00  0.00000000000E+00  0.40091529375E+02  0.40091529375E+02  0.00000000000E+00 0.  1.
         21   -1    0    0  501  503 -0.00000000000E+00 -0.00000000000E+00 -0.10940354953E+04  0.10940354953E+04  0.00000000000E+00 0.  1.
          6    2    1    2  501    0  0.59768533278E+02 -0.11550361780E+02 -0.24943140868E+03  0.30880588794E+03  0.17157902074E+03 0.  0.
         24    2    3    3    0    0  0.85142013938E+02 -0.52815585306E+02 -0.16729150754E+03  0.21332978856E+03  0.86513014057E+02 0.  0.
         -6    2    1    2    0  502 -0.59768533278E+02  0.11550361780E+02 -0.80451255726E+03  0.82532113675E+03  0.17380689157E+03 0.  0.
        -24    2    5    5    0    0 -0.99130590957E+02 -0.10491873598E+02 -0.44713685702E+03  0.46507856175E+03  0.80185698337E+02 0.  0.
         14    1    4    4    0    0  0.48838007478E+02 -0.34050633708E+02 -0.23774869757E+02  0.64108042103E+02  0.00000000000E+00 0. -1.
        -13    1    4    4    0    0  0.36304006461E+02 -0.18764951599E+02 -0.14351663779E+03  0.14922174646E+03  0.00000000000E+00 0.  1.
          5    1    3    3  501    0 -0.25373480661E+02  0.41265223526E+02 -0.82139901138E+02  0.95476099378E+02  0.47000000000E+01 0. -1.
         11    1    6    6    0    0 -0.71951609341E+02 -0.15414740136E+02 -0.41985860755E+03  0.42625801885E+03  0.00000000000E+00 0. -1.
        -12    1    6    6    0    0 -0.27178981616E+02  0.49228665385E+01 -0.27278249462E+02  0.38820542891E+02  0.00000000000E+00 0.  1.
         -5    1    5    5    0  502  0.39362057679E+02  0.22042235377E+02 -0.35737570024E+03  0.36024257501E+03  0.47000000000E+01 0.  1.
</event>
<event>
12    1  0.9749377E-001  0.2737374E+03  0.7818608E-02  0.1099159E+00
         21   -1    0    0  503  502  0.00000000000E+00  0.00000000000E+00  0.98869692007E+02  0.98869692007E+02  0.00000000000E+00 0.  1.
         21   -1    0    0  501  503 -0.00000000000E+00 -0.00000000000E+00 -0.11923239490E+04  0.11923239490E+04  0.00000000000E+00 0. -1.
          6    2    1    2  501    0 -0.20008577571E+03 -0.13125863922E+03 -0.88106963189E+03  0.92888646098E+03  0.17112338570E+03 0.  0.
         24    2    3    3    0    0 -0.20295313548E+03 -0.12275747665E+03 -0.88364624372E+03  0.91843560237E+03  0.80211585038E+02 0.  0.
         -6    2    1    2    0  502  0.20008577571E+03  0.13125863922E+03 -0.21238462507E+03  0.36230718000E+03  0.16998857520E+03 0.  0.
        -24    2    5    5    0    0  0.89268796847E+02  0.13747443180E+03 -0.12581286134E+03  0.22146755788E+03  0.79692318479E+02 0.  0.
         14    1    4    4    0    0 -0.33215120478E+02 -0.51059397429E+02 -0.14756889316E+03  0.15964612279E+03  0.00000000000E+00 0. -1.
        -13    1    4    4    0    0 -0.16973801500E+03 -0.71698079219E+02 -0.73607735056E+03  0.75878947958E+03  0.00000000000E+00 0.  1.
          5    1    3    3  501    0  0.28673597674E+01 -0.85011625718E+01  0.25766118344E+01  0.10450858608E+02  0.47000000000E+01 0. -1.
         13    1    6    6    0    0  0.10309777884E+03  0.12782827772E+03 -0.12083248254E+03  0.20388651114E+03  0.00000000000E+00 0. -1.
        -14    1    6    6    0    0 -0.13828981993E+02  0.96461540871E+01 -0.49803787941E+01  0.17581046742E+02  0.00000000000E+00 0.  1.
         -5    1    5    5    0  502  0.11081697887E+03 -0.62157925844E+01 -0.86571763729E+02  0.14083962212E+03  0.47000000000E+01 0.  1.
</event>
<event>
12    1  0.9749377E-001  0.3503400E+03  0.7818608E-02  0.1062476E+00
         21   -1    0    0  503  502  0.00000000000E+00  0.00000000000E+00  0.52147233269E+03  0.52147233269E+03  0.00000000000E+00 0.  1.
         21   -1    0    0  501  503 -0.00000000000E+00 -0.00000000000E+00 -0.35023253083E+03  0.35023253083E+03  0.00000000000E+00 0. -1.
          6    2    1    2  501    0 -0.37676373437E+02 -0.32901992097E+03  0.29773045168E+03  0.47761220256E+03  0.17261626999E+03 0.  0.
         24    2    3    3    0    0 -0.76389234794E+02 -0.23990988940E+03  0.26696660179E+03  0.37559363650E+03  0.80045881119E+02 0.  0.
         -6    2    1    2    0  502  0.37676373437E+02  0.32901992097E+03 -0.12649064982E+03  0.39409266096E+03  0.17214971223E+03 0.  0.
        -24    2    5    5    0    0  0.60350383930E+02  0.19552779839E+03 -0.13569497816E+03  0.25829476995E+03  0.80185860998E+02 0.  0.
         12    1    4    4    0    0 -0.78155927556E+02 -0.17933526491E+03  0.16029858572E+03  0.25291327137E+03  0.00000000000E+00 0. -1.
        -11    1    4    4    0    0  0.17666927623E+01 -0.60574624487E+02  0.10666801607E+03  0.12268036513E+03  0.00000000000E+00 0.  1.
          5    1    3    3  501    0  0.38712861357E+02 -0.89110031567E+02  0.30763849891E+02  0.10201856606E+03  0.47000000000E+01 0. -1.
         13    1    6    6    0    0  0.19316692533E+01 -0.36504525685E+01  0.57755994456E+01  0.71003309088E+01  0.00000000000E+00 0. -1.
        -14    1    6    6    0    0  0.58418714677E+02  0.19917825095E+03 -0.14147057760E+03  0.25119443904E+03  0.00000000000E+00 0.  1.
         -5    1    5    5    0  502 -0.22674010493E+02  0.13349212258E+03  0.92043283324E+01  0.13579789101E+03  0.47000000000E+01 0.  1.
</event>
<event>
12    1  0.9749377E-001  0.2998116E+03  0.7818608E-02  0.1085335E+00
         21   -1    0    0  501  502  0.00000000000E+00  0.00000000000E+00  0.48786787455E+02  0.48786787455E+02  0.00000000000E+00 0.  1.
         21   -1    0    0  502  503 -0.00000000000E+00 -0.00000000000E+00 -0.22187574779E+04  0.22187574779E+04  0.00000000000E+00 0. -1.
         -6    2    1    2    0  503  0.13725576361E+03  0.23670003011E+03 -0.12985131095E+04  0.13381733150E+04  0.17235276797E+03 0.  0.
        -24    2    3    3    0    0  0.60384479776E+02  0.18923819024E+03 -0.67140826203E+03  0.70457691334E+03  0.78626932048E+02 0.  0.
          6    2    1    2  501    0 -0.13725576361E+03 -0.23670003011E+03 -0.87145758104E+03  0.92937095042E+03  0.17154007995E+03 0.  0.
         24    2    5    5    0    0 -0.15353915310E+03 -0.20721931772E+03 -0.83238121114E+03  0.87757023748E+03  0.10371559129E+03 0.  0.
         14    1    6    6    0    0 -0.26725710484E+02 -0.10008727673E+02 -0.21991340161E+03  0.22175739545E+03  0.00000000000E+00 0. -1.
        -13    1    6    6    0    0 -0.12681344262E+03 -0.19721059004E+03 -0.61246780953E+03  0.65581284203E+03  0.00000000000E+00 0.  1.
          5    1    5    5  501    0  0.16283389496E+02 -0.29480712389E+02 -0.39076369903E+02  0.51800712942E+02  0.47000000000E+01 0. -1.
         13    1    4    4    0    0  0.73886813042E+02  0.11497468928E+03 -0.47090335995E+03  0.49033500256E+03  0.00000000000E+00 0. -1.
        -14    1    4    4    0    0 -0.13502333266E+02  0.74263500962E+02 -0.20050490208E+03  0.21424191078E+03  0.00000000000E+00 0.  1.
         -5    1    3    3    0  503  0.76871283829E+02  0.47461839867E+02 -0.62710484742E+03  0.63359640165E+03  0.47000000000E+01 0.  1.
</event>
<event>
12    1  0.9749377E-001  0.6077994E+03  0.7818608E-02  0.9889356E-01
         21   -1    0    0  501  502  0.00000000000E+00  0.00000000000E+00  0.48275338875E+03  0.48275338875E+03  0.00000000000E+00 0.  1.
         21   -1    0    0  502  503 -0.00000000000E+00 -0.00000000000E+00 -0.12401080401E+04  0.12401080401E+04  0.00000000000E+00 0. -1.
         -6    2    1    2    0  503 -0.59477243370E+03  0.39145227590E+02 -0.89315228448E+03  0.10873899148E+04  0.17149118575E+03 0.  0.
        -24    2    3    3    0    0 -0.31786942081E+03 -0.17018025882E+02 -0.57284947809E+03  0.66025344086E+03  0.80296324446E+02 0.  0.
          6    2    1    2  501    0  0.59477243370E+03 -0.39145227590E+02  0.13579763311E+03  0.63547151407E+03  0.17348328826E+03 0.  0.
         24    2    5    5    0    0  0.32784032230E+03 -0.54128592796E+02  0.16429127218E+02  0.34264360637E+03  0.82009409713E+02 0.  0.
         12    1    6    6    0    0  0.25797617902E+03 -0.75717528552E+02  0.18462660304E+02  0.26949160079E+03  0.00000000000E+00 0. -1.
        -11    1    6    6    0    0  0.69864143283E+02  0.21588935757E+02 -0.20335330859E+01  0.73152005582E+02  0.00000000000E+00 0.  1.
          5    1    5    5  501    0  0.26693211140E+03  0.14983365206E+02  0.11936850589E+03  0.29282790770E+03  0.47000000000E+01 0. -1.
         11    1    4    4    0    0 -0.31766049225E+03 -0.22219771392E+02 -0.53924742110E+03  0.62625049919E+03  0.00000000000E+00 0. -1.
        -12    1    4    4    0    0 -0.20892855977E+00  0.52017455097E+01 -0.33602056996E+02  0.34002941665E+02  0.00000000000E+00 0.  1.
         -5    1    3    3    0  503 -0.27690301289E+03  0.56163253472E+02 -0.32030280638E+03  0.42713647393E+03  0.47000000000E+01 0.  1.
</event>
<event>
12    1  0.9749377E-001  0.1820713E+03  0.7818608E-02  0.1165813E+00
         21   -1    0    0  503  502  0.00000000000E+00  0.00000000000E+00  0.22563244727E+03  0.22563244727E+03  0.00000000000E+00 0.  1.
         21   -1    0    0  501  503 -0.00000000000E+00 -0.00000000000E+00 -0.19487434206E+03  0.19487434206E+03  0.00000000000E+00 0. -1.
          6    2    1    2  501    0 -0.81867809783E+02 -0.71565862920E+02  0.62539017511E+02  0.21311421510E+03  0.17228618328E+03 0.  0.
         24    2    3    3    0    0 -0.12122736913E+02 -0.29259808001E+02 -0.28317143476E+02  0.90921296063E+02  0.80384851487E+02 0.  0.
         -6    2    1    2    0  502  0.81867809783E+02  0.71565862920E+02 -0.31780912305E+02  0.20739257423E+03  0.17371713342E+03 0.  0.
        -24    2    5    5    0    0  0.57947121938E+02  0.11688571570E+03 -0.30602001856E+02  0.15591861778E+03  0.79711939998E+02 0.  0.
         12    1    4    4    0    0  0.20014282639E+02 -0.39570502549E+02 -0.35028309211E+02  0.56509986973E+02  0.00000000000E+00 0. -1.
        -11    1    4    4    0    0 -0.32137019552E+02  0.10310694548E+02  0.67111657353E+01  0.34411309090E+02  0.00000000000E+00 0.  1.
          5    1    3    3  501    0 -0.69745072870E+02 -0.42306054919E+02  0.90856160987E+02  0.12219291903E+03  0.47000000000E+01 0. -1.
         13    1    6    6    0    0  0.71644358675E+02  0.57301505361E+02 -0.17638206237E+02  0.93420998527E+02  0.00000000000E+00 0. -1.
        -14    1    6    6    0    0 -0.13697236736E+02  0.59584210335E+02 -0.12963795618E+02  0.62497619253E+02  0.00000000000E+00 0.  1.
         -5    1    5    5    0  502  0.23920687845E+02 -0.45319852776E+02 -0.11789104489E+01  0.51473956449E+02  0.47000000000E+01 0.  1.
</event>
<event>
12    1  0.9749377E-001  0.3236616E+03  0.7818608E-02  0.1073976E+00
         21   -1    0    0  503  502  0.00000000000E+00  0.00000000000E+00  0.43098536500E+03  0.43098536500E+03  0.00000000000E+00 0.  1.
         21   -1    0    0  501  503 -0.00000000000E+00 -0.00000000000E+00 -0.32770744261E+03  0.32770744261E+03  0.00000000000E+00 0. -1.
          6    2    1    2  501    0 -0.15958805398E+03 -0.25679266098E+03 -0.91776639183E+02  0.36013535154E+03  0.17281117506E+03 0.  0.
         24    2    3    3    0    0 -0.59933953993E+02 -0.86246984949E+02 -0.97069718029E+02  0.16248193280E+03  0.77118266799E+02 0.  0.
         -6    2    1    2    0  502  0.15958805398E+03  0.25679266098E+03  0.19505456157E+03  0.39855745606E+03  0.17143787822E+03 0.  0.
        -24    2    5    5    0    0  0.38764067128E+02  0.11711687794E+03  0.14244518742E+03  0.20646998533E+03  0.84381321525E+02 0.  0.
         12    1    4    4    0    0 -0.69049960718E+02 -0.87372287204E+02 -0.64612580067E+02  0.12875014233E+03  0.00000000000E+00 0. -1.
        -11    1    4    4    0    0  0.91160067253E+01  0.11253022553E+01 -0.32457137962E+02  0.33731790472E+02  0.00000000000E+00 0.  1.
          5    1    3    3  501    0 -0.99654099984E+02 -0.17054567603E+03  0.52930788456E+01  0.19765341874E+03  0.47000000000E+01 0. -1.
         11    1    6    6    0    0  0.52851715781E+02  0.40598301237E+02  0.92523555572E+02  0.11402690148E+03  0.00000000000E+00 0. -1.
        -12    1    6    6    0    0 -0.14087648653E+02  0.76518576705E+02  0.49921631851E+02  0.92443083853E+02  0.00000000000E+00 0.  1.
         -5    1    5    5    0  502  0.12082398685E+03  0.13967578304E+03  0.52609374151E+02  0.19208747074E+03  0.47000000000E+01 0.  1.
</event>
<event>
12    1  0.9749377E-001  0.2919440E+03  0.7818608E-02  0.1089338E+00
         21   -1    0    0  503  502  0.00000000000E+00  0.00000000000E+00  0.57250062686E+03  0.57250062686E+03  0.00000000000E+00 0.  1.
         21   -1    0    0  501  503 -0.00000000000E+00 -0.00000000000E+00 -0.26743273501E+03  0.26743273501E+03  0.00000000000E+00 0. -1.
          6    2    1    2  501    0  0.26814400995E+03 -0.25961865236E+02 -0.90149328507E+02  0.33143759333E+03  0.17073004517E+03 0.  0.
         24    2    3    3    0    0  0.20654767146E+03 -0.19134548696E+02 -0.33788475870E+00  0.22221805939E+03  0.79703702626E+02 0.  0.
         -6    2    1    2    0  502 -0.26814400995E+03  0.25961865236E+02  0.39521722036E+03  0.50849576854E+03  0.17261537254E+03 0.  0.
        -24    2    5    5    0    0 -0.27899124866E+03  0.45286927976E+02  0.34437492876E+03  0.45283474760E+03  0.81106068814E+02 0.  0.
         14    1    4    4    0    0  0.17615338552E+03 -0.18652437633E+02 -0.30098456289E+02  0.17967705955E+03  0.00000000000E+00 0. -1.
        -13    1    4    4    0    0  0.30394285945E+02 -0.48211106290E+00  0.29760571531E+02  0.42540999835E+02  0.00000000000E+00 0.  1.
          5    1    3    3  501    0  0.61596338487E+02 -0.68273165402E+01 -0.89811443748E+02  0.10921953394E+03  0.47000000000E+01 0. -1.
         13    1    6    6    0    0 -0.11481945932E+03 -0.16768738124E+02  0.10878589635E+03  0.15905681394E+03  0.00000000000E+00 0. -1.
        -14    1    6    6    0    0 -0.16417178934E+03  0.62055666100E+02  0.23558903241E+03  0.29377793365E+03  0.00000000000E+00 0.  1.
         -5    1    5    5    0  502  0.10847238707E+02 -0.19325062740E+02  0.50842291601E+02  0.55661020945E+02  0.47000000000E+01 0.  1.
</event>
<event>
12    1  0.9749377E-001  0.2514985E+03  0.7818608E-02  0.1112361E+00
         21   -1    0    0  503  502  0.00000000000E+00  0.00000000000E+00  0.14817732647E+03  0.14817732647E+03  0.00000000000E+00 0.  1.
         21   -1    0    0  501  503 -0.00000000000E+00 -0.00000000000E+00 -0.52128770325E+03  0.52128770325E+03  0.00000000000E+00 0.  1.
          6    2    1    2  501    0  0.15361524085E+03  0.14665380745E+03 -0.24300808351E+03  0.36561844077E+03  0.17181075090E+03 0.  0.
         24    2    3    3    0    0  0.16241108639E+03  0.76911649112E+02 -0.21082770470E+03  0.28816521406E+03  0.79360612254E+02 0.  0.
         -6    2    1    2    0  502 -0.15361524085E+03 -0.14665380745E+03 -0.13010229327E+03  0.30384658894E+03  0.17404356190E+03 0.  0.
        -24    2    5    5    0    0 -0.79717378034E+02 -0.13227915730E+03 -0.29420126211E+02  0.17804311737E+03  0.83553408063E+02 0.  0.
         12    1    4    4    0    0  0.15488166962E+03  0.88717299483E+02 -0.17618288063E+03  0.25079772375E+03  0.00000000000E+00 0. -1.
        -11    1    4    4    0    0  0.75294167673E+01 -0.11805650371E+02 -0.34644824068E+02  0.37367490312E+02  0.00000000000E+00 0.  1.
          5    1    3    3  501    0 -0.87958455353E+01  0.69742158335E+02 -0.32180378810E+02  0.77453226713E+02  0.47000000000E+01 0. -1.
         13    1    6    6    0    0 -0.86301142490E+02 -0.10188386941E+03 -0.47914833216E+02  0.14185923052E+03  0.00000000000E+00 0. -1.
        -14    1    6    6    0    0  0.65837644559E+01 -0.30395287892E+02  0.18494707005E+02  0.36183886851E+02  0.00000000000E+00 0.  1.
         -5    1    5    5    0  502 -0.73897862817E+02 -0.14374650145E+02 -0.10068216706E+03  0.12580347158E+03  0.47000000000E+01 0.  1.
</event>
<event>
12    1  0.9749377E-001  0.5641731E+03  0.7818608E-02  0.9982656E-01
         21   -1    0    0  503  502  0.00000000000E+00  0.00000000000E+00  0.28816690811E+04  0.28816690811E+04  0.00000000000E+00 0. -1.
         21   -1    0    0  501  503 -0.00000000000E+00 -0.00000000000E+00 -0.12729255022E+03  0.12729255022E+03  0.00000000000E+00 0.  1.
          6    2    1    2  501    0 -0.14123544148E+03  0.52165213635E+03  0.19052222328E+04  0.19878191783E+04  0.17171175856E+03 0.  0.
         24    2    3    3    0    0 -0.10408465866E+02  0.28758646476E+03  0.10396022903E+04  0.10816059522E+04  0.79272966134E+02 0.  0.
         -6    2    1    2    0  502  0.14123544148E+03 -0.52165213635E+03  0.84915429805E+03  0.10211424530E+04  0.17204791796E+03 0.  0.
        -24    2    5    5    0    0  0.22713450013E+02 -0.30104609667E+03  0.53248591054E+03  0.61739074108E+03  0.80532162022E+02 0.  0.
         12    1    4    4    0    0 -0.44910460766E+02  0.14567872436E+03  0.52704998139E+03  0.54865373698E+03  0.00000000000E+00 0. -1.
        -11    1    4    4    0    0  0.34501994900E+02  0.14190774040E+03  0.51255230887E+03  0.53295221527E+03  0.00000000000E+00 0.  1.
          5    1    3    3  501    0 -0.13082697562E+03  0.23406567159E+03  0.86561994256E+03  0.90621322608E+03  0.47000000000E+01 0. -1.
         11    1    6    6    0    0 -0.23055343921E+02 -0.39971541532E+02  0.60714940022E+02  0.76259930223E+02  0.00000000000E+00 0. -1.
        -12    1    6    6    0    0  0.45768793934E+02 -0.26107455514E+03  0.47177097051E+03  0.54113081086E+03  0.00000000000E+00 0.  1.
         -5    1    5    5    0  502  0.11852199147E+03 -0.22060603968E+03  0.31666838752E+03  0.40375171189E+03  0.47000000000E+01 0.  1.
</event>
<event>
12    1  0.9749377E-001  0.8260569E+03  0.7818608E-02  0.9523048E-01
         21   -1    0    0  503  502  0.00000000000E+00  0.00000000000E+00  0.48283677890E+03  0.48283677890E+03  0.00000000000E+00 0. -1.
         21   -1    0    0  501  503 -0.00000000000E+00 -0.00000000000E+00 -0.16566453450E+04  0.16566453450E+04  0.00000000000E+00 0.  1.
          6    2    1    2  501    0  0.57281943403E+03  0.57953397988E+03 -0.97747177895E+03  0.12838100682E+04  0.16951541128E+03 0.  0.
         24    2    3    3    0    0  0.35757950239E+03  0.40927619672E+03 -0.56145283603E+03  0.78540281324E+03  0.79108698846E+02 0.  0.
         -6    2    1    2    0  502 -0.57281943403E+03 -0.57953397988E+03 -0.19633678713E+03  0.85567205571E+03  0.17217663921E+03 0.  0.
        -24    2    5    5    0    0 -0.35189035512E+03 -0.44825980334E+03 -0.14629715210E+03  0.59381594558E+03  0.80317166253E+02 0.  0.
         14    1    4    4    0    0  0.16993678273E+03  0.22719088083E+03 -0.24459644069E+03  0.37459528195E+03  0.00000000000E+00 0. -1.
        -13    1    4    4    0    0  0.18764271966E+03  0.18208531589E+03 -0.31685639533E+03  0.41080753129E+03  0.00000000000E+00 0.  1.
          5    1    3    3  501    0  0.21523993164E+03  0.17025778316E+03 -0.41601894292E+03  0.49840725493E+03  0.47000000000E+01 0. -1.
         11    1    6    6    0    0 -0.76149942779E+02 -0.15613627498E+03 -0.48958058254E+02  0.18048335551E+03  0.00000000000E+00 0. -1.
        -12    1    6    6    0    0 -0.27574041234E+03 -0.29212352837E+03 -0.97339093847E+02  0.41333259007E+03  0.00000000000E+00 0.  1.
         -5    1    5    5    0  502 -0.22092907891E+03 -0.13127417654E+03 -0.50039635025E+02  0.26185611012E+03  0.47000000000E+01 0.  1.
</event>
<event>
12    1  0.9749377E-001  0.2967221E+03  0.7818608E-02  0.1086891E+00
         21   -1    0    0  501  502  0.00000000000E+00  0.00000000000E+00  0.32422777854E+03  0.32422777854E+03  0.00000000000E+00 0.  1.
         21   -1    0    0  502  503 -0.00000000000E+00 -0.00000000000E+00 -0.39900242505E+03  0.39900242505E+03  0.00000000000E+00 0. -1.
         -6    2    1    2    0  503 -0.14121946967E+03 -0.23284532171E+03  0.12361414661E+03  0.34478792615E+03  0.17157614730E+03 0.  0.
        -24    2    3    3    0    0 -0.16384952292E+02 -0.11211256569E+03  0.12547127803E+02  0.13858892574E+03  0.78814756696E+02 0.  0.
          6    2    1    2  501    0  0.14121946967E+03  0.23284532171E+03 -0.19838879311E+03  0.37844227744E+03  0.17233850895E+03 0.  0.
         24    2    5    5    0    0  0.41219886955E+02  0.29193140057E+02 -0.74471319220E+02  0.11988520836E+03  0.79215953512E+02 0.  0.
         14    1    6    6    0    0  0.65812512669E+01 -0.32617686563E+01  0.16062499411E+02  0.17662273079E+02  0.00000000000E+00 0. -1.
        -13    1    6    6    0    0  0.34638635688E+02  0.32454908714E+02 -0.90533818631E+02  0.10222293528E+03  0.00000000000E+00 0.  1.
          5    1    5    5  501    0  0.99999582715E+02  0.20365218165E+03 -0.12391747389E+03  0.25855706908E+03  0.47000000000E+01 0. -1.
         11    1    4    4    0    0 -0.17847072069E+02  0.67656477516E+01  0.50113324298E+00  0.19093011954E+02  0.00000000000E+00 0. -1.
        -12    1    4    4    0    0  0.14621197769E+01 -0.11887821345E+03  0.12045994560E+02  0.11949591378E+03  0.00000000000E+00 0.  1.
         -5    1    3    3    0  503 -0.12483451738E+03 -0.12073275601E+03  0.11106701881E+03  0.20619900041E+03  0.47000000000E+01 0.  1.
</event>
<event>
12    1  0.9749377E-001  0.1485819E+04  0.7818608E-02  0.8893938E-01
         21   -1    0    0  501  502  0.00000000000E+00  0.00000000000E+00  0.23832758934E+04  0.23832758934E+04  0.00000000000E+00 0. -1.
         21   -1    0    0  502  503 -0.00000000000E+00 -0.00000000000E+00 -0.95594496389E+03  0.95594496389E+03  0.00000000000E+00 0.  1.
         -6    2    1    2    0  503 -0.86965275958E+03  0.11969436016E+04  0.98422534513E+03  0.17853563373E+04  0.17270730603E+03 0.  0.
        -24    2    3    3    0    0 -0.29170465677E+03  0.34349750814E+03  0.27004396619E+03  0.53137413011E+03  0.79703058856E+02 0.  0.
          6    2    1    2  501    0  0.86965275958E+03 -0.11969436016E+04  0.44310558440E+03  0.15538645200E+04  0.17082880227E+03 0.  0.
         24    2    5    5    0    0  0.82990129765E+03 -0.11798156052E+04  0.44035115449E+03  0.15102385659E+04  0.78805839741E+02 0.  0.
         14    1    6    6    0    0  0.48999986781E+03 -0.64530324899E+03  0.27393063354E+03  0.85530938589E+03  0.00000000000E+00 0. -1.
        -13    1    6    6    0    0  0.33990142984E+03 -0.53451235623E+03  0.16642052095E+03  0.65492917997E+03  0.00000000000E+00 0.  1.
          5    1    5    5  501    0  0.39751461924E+02 -0.17127996427E+02  0.27544299106E+01  0.43625954097E+02  0.47000000000E+01 0. -1.
         11    1    4    4    0    0 -0.22867533432E+03  0.29944758778E+03  0.24909778781E+03  0.45167574016E+03  0.00000000000E+00 0. -1.
        -12    1    4    4    0    0 -0.63029322448E+02  0.44049920363E+02  0.20946178383E+02  0.79698389953E+02  0.00000000000E+00 0.  1.
         -5    1    3    3    0  503 -0.57794810281E+03  0.85344609350E+03  0.71418137894E+03  0.12539822072E+04  0.47000000000E+01 0.  1.
</event>
<event>
12    1  0.9749377E-001  0.3958807E+03  0.7818608E-02  0.1045215E+00
         21   -1    0    0  501  502  0.00000000000E+00  0.00000000000E+00  0.16480125536E+03  0.16480125536E+03  0.00000000000E+00 0.  1.
         21   -1    0    0  502  503 -0.00000000000E+00 -0.00000000000E+00 -0.13784094093E+04  0.13784094093E+04  0.00000000000E+00 0. -1.
         -6    2    1    2    0  503  0.78078179709E+01  0.37618811356E+03 -0.98957993859E+03  0.10726243018E+04  0.17226717401E+03 0.  0.
        -24    2    3    3    0    0  0.24375312220E+02  0.21539834672E+03 -0.40625148939E+03  0.46729629106E+03  0.79592382782E+02 0.  0.
          6    2    1    2  501    0 -0.78078179709E+01 -0.37618811356E+03 -0.22402821537E+03  0.47058636283E+03  0.17229168521E+03 0.  0.
         24    2    5    5    0    0  0.52535615228E+02 -0.22793152910E+03 -0.17413540089E+03  0.30285822654E+03  0.81775269573E+02 0.  0.
         14    1    6    6    0    0 -0.10945298585E+02 -0.13170825086E+03 -0.10103186683E+03  0.16635594676E+03  0.00000000000E+00 0. -1.
        -13    1    6    6    0    0  0.63480913813E+02 -0.96223278232E+02 -0.73103534058E+02  0.13650227978E+03  0.00000000000E+00 0.  1.
          5    1    5    5  501    0 -0.60343433198E+02 -0.14825658447E+03 -0.49892814475E+02  0.16772813629E+03  0.47000000000E+01 0. -1.
         11    1    4    4    0    0  0.39732230310E+02  0.16882130433E+03 -0.36129308040E+03  0.40076423601E+03  0.00000000000E+00 0. -1.
        -12    1    4    4    0    0 -0.15356918091E+02  0.46577042385E+02 -0.44958408991E+02  0.66532055053E+02  0.00000000000E+00 0.  1.
         -5    1    3    3    0  503 -0.16567494249E+02  0.16078976684E+03 -0.58332844920E+03  0.60532801078E+03  0.47000000000E+01 0.  1.
</event>
<event>
12    1  0.9749377E-001  0.3787284E+03  0.7818608E-02  0.1051405E+00
         21   -1    0    0  503  502  0.00000000000E+00  0.00000000000E+00  0.15897409516E+03  0.15897409516E+03  0.00000000000E+00 0. -1.
         21   -1    0    0  501  503 -0.00000000000E+00 -0.00000000000E+00 -0.12552111986E+04  0.12552111986E+04  0.00000000000E+00 0.  1.
          6    2    1    2  501    0  0.34512034487E+03  0.10116159001E+03 -0.23007736114E+03  0.46065794338E+03  0.17299834958E+03 0.  0.
         24    2    3    3    0    0  0.24597425936E+03  0.82220837563E+02 -0.85935683510E+02  0.28462495896E+03  0.79767306365E+02 0.  0.
         -6    2    1    2    0  502 -0.34512034487E+03 -0.10116159001E+03 -0.86615974227E+03  0.95352735034E+03  0.17216268175E+03 0.  0.
        -24    2    5    5    0    0 -0.14022963351E+03  0.17108561187E+02 -0.33290484452E+03  0.37013133713E+03  0.78832215728E+02 0.  0.
         12    1    4    4    0    0  0.21451198076E+03  0.55031102905E+02 -0.96732589645E+02  0.24166300105E+03  0.00000000000E+00 0. -1.
        -11    1    4    4    0    0  0.31462278608E+02  0.27189734658E+02  0.10796906135E+02  0.42961957917E+02  0.00000000000E+00 0.  1.
          5    1    3    3  501    0  0.99146085508E+02  0.18940752443E+02 -0.14414167763E+03  0.17603298442E+03  0.47000000000E+01 0. -1.
         11    1    6    6    0    0  0.21664538664E+01  0.14152940169E+02 -0.10773507209E+02  0.17918361961E+02  0.00000000000E+00 0. -1.
        -12    1    6    6    0    0 -0.14239608738E+03  0.29556210180E+01 -0.32213133731E+03  0.35221297517E+03  0.00000000000E+00 0.  1.
         -5    1    5    5    0  502 -0.20489071136E+03 -0.11827015119E+03 -0.53325489775E+03  0.58339601321E+03  0.47000000000E+01 0.  1.
</event>
<event>
12    1  0.9749377E-001  0.3938136E+03  0.7818608E-02  0.1045943E+00
         21   -1    0    0  503  502  0.00000000000E+00  0.00000000000E+00  0.55193677796E+03  0.55193677796E+03  0.00000000000E+00 0.  1.
         21   -1    0    0  501  503 -0.00000000000E+00 -0.00000000000E+00 -0.31236771486E+03  0.31236771486E+03  0.00000000000E+00 0. -1.
          6    2    1    2  501    0 -0.27090680471E+03  0.25901202370E+03  0.17054625569E+03  0.44646884515E+03  0.17254181841E+03 0.  0.
         24    2    3    3    0    0 -0.24776389042E+03  0.23141089627E+03  0.19857786650E+03  0.40058553748E+03  0.78087485991E+02 0.  0.
         -6    2    1    2    0  502  0.27090680471E+03 -0.25901202370E+03  0.69022807409E+02  0.41783564767E+03  0.17130310931E+03 0.  0.
        -24    2    5    5    0    0  0.21031359623E+03 -0.11455614202E+03  0.77376938570E+02  0.26089323730E+03  0.68725338926E+02 0.  0.
         12    1    4    4    0    0 -0.65995318498E+02  0.11333332461E+03  0.74893632979E+02  0.15102609308E+03  0.00000000000E+00 0. -1.
        -11    1    4    4    0    0 -0.18176857193E+03  0.11807757166E+03  0.12368423352E+03  0.24955944440E+03  0.00000000000E+00 0.  1.
          5    1    3    3  501    0 -0.23142914282E+02  0.27601127436E+02 -0.28031610815E+02  0.45883307663E+02  0.47000000000E+01 0. -1.
         11    1    6    6    0    0  0.27760606902E+02 -0.41767015716E+02  0.13454748522E+01  0.50169165829E+02  0.00000000000E+00 0. -1.
        -12    1    6    6    0    0  0.18255298933E+03 -0.72789126308E+02  0.76031463718E+02  0.21072407147E+03  0.00000000000E+00 0.  1.
         -5    1    5    5    0  502  0.60593208473E+02 -0.14445588168E+03 -0.83541311609E+01  0.15694241037E+03  0.47000000000E+01 0.  1.
</event>
<event>
12    1  0.9749377E-001  0.6112408E+03  0.7818608E-02  0.9882355E-01
         21   -1    0    0  501  502  0.00000000000E+00  0.00000000000E+00  0.38575137234E+03  0.38575137234E+03  0.00000000000E+00 0.  1.
         21   -1    0    0  502  503 -0.00000000000E+00 -0.00000000000E+00 -0.14226039576E+04  0.14226039576E+04  0.00000000000E+00 0. -1.
         -6    2    1    2    0  503 -0.10897182733E+03  0.59234936978E+03 -0.35590074641E+02  0.62738456534E+03  0.17202355764E+03 0.  0.
        -24    2    3    3    0    0 -0.86614680285E+02  0.29834440067E+03 -0.75880246831E+02  0.32975366664E+03  0.80425024419E+02 0.  0.
          6    2    1    2  501    0  0.10897182733E+03 -0.59234936978E+03 -0.10012625106E+04  0.11809707646E+04  0.17150130215E+03 0.  0.
         24    2    5    5    0    0  0.99332907553E+02 -0.50551958588E+03 -0.73863351272E+03  0.90415241138E+03  0.80591802651E+02 0.  0.
         14    1    6    6    0    0 -0.78081332513E+01 -0.14781251839E+03 -0.21370943234E+03  0.25996389943E+03  0.00000000000E+00 0. -1.
        -13    1    6    6    0    0  0.10714104080E+03 -0.35770706748E+03 -0.52492408038E+03  0.64418851194E+03  0.00000000000E+00 0.  1.
          5    1    5    5  501    0  0.96389197772E+01 -0.86829783901E+02 -0.26262899786E+03  0.27681835319E+03  0.47000000000E+01 0. -1.
         13    1    4    4    0    0 -0.98684762895E+02  0.27827112730E+03 -0.59541758297E+02  0.30119549084E+03  0.00000000000E+00 0. -1.
        -14    1    4    4    0    0  0.12070082610E+02  0.20073273368E+02 -0.16338488534E+02  0.28558175808E+02  0.00000000000E+00 0.  1.
         -5    1    3    3    0  503 -0.22357147045E+02  0.29400496911E+03  0.40290172190E+02  0.29763089869E+03  0.47000000000E+01 0.  1.
</event>
<event>
12    1  0.9749377E-001  0.7485418E+03  0.7818608E-02  0.9637641E-01
         21   -1    0    0  501  502  0.00000000000E+00  0.00000000000E+00  0.30871658528E+03  0.30871658528E+03  0.00000000000E+00 0.  1.
         21   -1    0    0  502  503 -0.00000000000E+00 -0.00000000000E+00 -0.19948578001E+04  0.19948578001E+04  0.00000000000E+00 0. -1.
         -6    2    1    2    0  503  0.46209031144E+02  0.73993071905E+03 -0.11310885475E+04  0.13632100211E+04  0.17131116659E+03 0.  0.
        -24    2    3    3    0    0 -0.32986905446E+02  0.37120398184E+03 -0.62757753086E+03  0.73410205185E+03  0.78560379460E+02 0.  0.
          6    2    1    2  501    0 -0.46209031144E+02 -0.73993071905E+03 -0.55505266732E+03  0.94036436428E+03  0.16299978697E+03 0.  0.
         24    2    5    5    0    0 -0.53167668312E+01 -0.44487947959E+03 -0.40387168831E+03  0.60629073526E+03  0.80809007416E+02 0.  0.
         12    1    6    6    0    0 -0.32156926027E+02 -0.30363882100E+03 -0.30661340746E+03  0.43271512932E+03  0.00000000000E+00 0. -1.
        -11    1    6    6    0    0  0.26840159195E+02 -0.14124065859E+03 -0.97258280849E+02  0.17357560594E+03  0.00000000000E+00 0.  1.
          5    1    5    5  501    0 -0.40892264312E+02 -0.29505123947E+03 -0.15118097901E+03  0.33407362902E+03  0.47000000000E+01 0. -1.
         13    1    4    4    0    0 -0.88010592091E+01  0.17414388697E+03 -0.36875398505E+03  0.40790078880E+03  0.00000000000E+00 0. -1.
        -14    1    4    4    0    0 -0.24185846237E+02  0.19706009487E+03 -0.25882354581E+03  0.32620126305E+03  0.00000000000E+00 0.  1.
         -5    1    3    3    0  503  0.79195936589E+02  0.36872673721E+03 -0.50351101668E+03  0.62910796929E+03  0.47000000000E+01 0.  1.
</event>
<event>
12    1  0.9749377E-001  0.3300217E+03  0.7818608E-02  0.1071127E+00
         21   -1    0    0  501  502  0.00000000000E+00  0.00000000000E+00  0.44883971182E+03  0.44883971182E+03  0.00000000000E+00 0. -1.
         21   -1    0    0  502  503 -0.00000000000E+00 -0.00000000000E+00 -0.39072909547E+03  0.39072909547E+03  0.00000000000E+00 0.  1.
         -6    2    1    2    0  503  0.23211448733E+03 -0.20035005683E+03  0.25038543979E+03  0.43908594156E+03  0.18996398374E+03 0.  0.
        -24    2    3    3    0    0  0.55296802101E+02 -0.10217263555E+03  0.33425445143E+02  0.14244300951E+03  0.75337685114E+02 0.  0.
          6    2    1    2  501    0 -0.23211448733E+03  0.20035005683E+03 -0.19227482343E+03  0.40048286573E+03  0.17146322498E+03 0.  0.
         24    2    5    5    0    0 -0.12107798750E+03  0.33109660717E+02 -0.99605800447E+02  0.17933112550E+03  0.80512163064E+02 0.  0.
         14    1    6    6    0    0 -0.10798393725E+03  0.31147523271E+02 -0.41608045431E+02  0.11984126315E+03  0.00000000000E+00 0. -1.
        -13    1    6    6    0    0 -0.13094050250E+02  0.19621374459E+01 -0.57997755016E+02  0.59489862348E+02  0.00000000000E+00 0.  1.
          5    1    5    5  501    0 -0.11103649983E+03  0.16724039611E+03 -0.92669022986E+02  0.22115174023E+03  0.47000000000E+01 0. -1.
         13    1    4    4    0    0  0.67033009198E+02 -0.69315099987E+02  0.35208816330E+01  0.96490434841E+02  0.00000000000E+00 0. -1.
        -14    1    4    4    0    0 -0.11736207097E+02 -0.32857535559E+02  0.29904563510E+02  0.45952574670E+02  0.00000000000E+00 0.  1.
         -5    1    3    3    0  503  0.17681768523E+03 -0.98177421280E+02  0.21695999465E+03  0.29664293205E+03  0.47000000000E+01 0.  1.
</event>
<event>
12    1  0.9749377E-001  0.8653915E+03  0.7818608E-02  0.9469909E-01
         21   -1    0    0  501  502  0.00000000000E+00  0.00000000000E+00  0.94884678048E+03  0.94884678048E+03  0.00000000000E+00 0. -1.
         21   -1    0    0  502  503 -0.00000000000E+00 -0.00000000000E+00 -0.84861271130E+03  0.84861271130E+03  0.00000000000E+00 0.  1.
         -6    2    1    2    0  503  0.75808485196E+03  0.40230628644E+03 -0.14781770849E+03  0.88768331349E+03  0.17201336934E+03 0.  0.
        -24    2    3    3    0    0  0.53822985577E+03  0.27697268243E+03 -0.37322448031E+02  0.61150216963E+03  0.78337053021E+02 0.  0.
          6    2    1    2  501    0 -0.75808485196E+03 -0.40230628644E+03  0.24805177767E+03  0.90977617829E+03  0.17210467542E+03 0.  0.
         24    2    5    5    0    0 -0.40911017924E+03 -0.16888720294E+03  0.16816878906E+03  0.48237569559E+03  0.92258029506E+02 0.  0.
         14    1    6    6    0    0 -0.36307471828E+03 -0.11916678494E+03  0.15942740158E+03  0.41405442887E+03  0.00000000000E+00 0. -1.
        -13    1    6    6    0    0 -0.46035460960E+02 -0.49720418000E+02  0.87413874743E+01  0.68321266725E+02  0.00000000000E+00 0.  1.
          5    1    5    5  501    0 -0.34897467271E+03 -0.23341908351E+03  0.79882988612E+02  0.42740048270E+03  0.47000000000E+01 0. -1.
         11    1    4    4    0    0  0.27013548908E+03  0.10748877384E+03 -0.45213417009E+02  0.29422996455E+03  0.00000000000E+00 0. -1.
        -12    1    4    4    0    0  0.26809436670E+03  0.16948390860E+03  0.78909689781E+01  0.31727220508E+03  0.00000000000E+00 0.  1.
         -5    1    3    3    0  503  0.21985499619E+03  0.12533360401E+03 -0.11049526046E+03  0.27618114386E+03  0.47000000000E+01 0.  1.
</event>
<event>
12    1  0.9749377E-001  0.1441749E+03  0.7818608E-02  0.1207819E+00
         21   -1    0    0  503  502  0.00000000000E+00  0.00000000000E+00  0.69906925058E+02  0.69906925058E+02  0.00000000000E+00 0.  1.
         21   -1    0    0  501  503 -0.00000000000E+00 -0.00000000000E+00 -0.11840774873E+04  0.11840774873E+04  0.00000000000E+00 0.  1.
          6    2    1    2  501    0  0.21528706047E+02  0.62512190211E+02 -0.76301955353E+02  0.20013860587E+03  0.17280686925E+03 0.  0.
         24    2    3    3    0    0  0.46331385322E+02 -0.11156225860E+02 -0.79735446326E+02  0.12218934490E+03  0.79381584552E+02 0.  0.
         -6    2    1    2    0  502 -0.21528706047E+02 -0.62512190211E+02 -0.10378686069E+04  0.10538458065E+04  0.17043614513E+03 0.  0.
        -24    2    5    5    0    0 -0.18205696010E+02 -0.10561626313E+03 -0.75656286623E+03  0.76919863326E+03  0.88277542104E+02 0.  0.
         14    1    4    4    0    0  0.41862807045E+01  0.97893123033E+01 -0.74018599924E+02  0.74780403290E+02  0.00000000000E+00 0. -1.
        -13    1    4    4    0    0  0.42145104617E+02 -0.20945538163E+02 -0.57168464019E+01  0.47408941614E+02  0.00000000000E+00 0.  1.
          5    1    3    3  501    0 -0.24802679275E+02  0.73668416071E+02  0.34334909724E+01  0.77949260971E+02  0.47000000000E+01 0. -1.
         11    1    6    6    0    0  0.19696171122E+01 -0.51295149699E+02 -0.60109209589E+03  0.60328001750E+03  0.00000000000E+00 0. -1.
        -12    1    6    6    0    0 -0.20175313123E+02 -0.54321113433E+02 -0.15547077034E+03  0.16591861576E+03  0.00000000000E+00 0.  1.
         -5    1    5    5    0  502 -0.33230100365E+01  0.43104072921E+02 -0.28130574063E+03  0.28464717319E+03  0.47000000000E+01 0.  1.
</event>
<event>
12    1  0.9749377E-001  0.2732879E+03  0.7818608E-02  0.1099412E+00
         21   -1    0    0  501  502  0.00000000000E+00  0.00000000000E+00  0.46519013367E+03  0.46519013367E+03  0.00000000000E+00 0.  1.
         21   -1    0    0  502  503 -0.00000000000E+00 -0.00000000000E+00 -0.24332439754E+03  0.24332439754E+03  0.00000000000E+00 0. -1.
         -6    2    1    2    0  503 -0.26485507276E+02  0.24455602376E+03  0.27006436379E+03  0.40398803817E+03  0.17251795137E+03 0.  0.
        -24    2    3    3    0    0  0.73475527972E+01  0.41915510547E+02  0.50956657260E+02  0.10359141601E+03  0.79521720268E+02 0.  0.
          6    2    1    2  501    0  0.26485507276E+02 -0.24455602376E+03 -0.48198627656E+02  0.30452649303E+03  0.17292815386E+03 0.  0.
         24    2    5    5    0    0  0.74712479933E+02 -0.12803908636E+03 -0.47442517222E+02  0.17833338983E+03  0.87040468716E+02 0.  0.
         14    1    6    6    0    0  0.63122220454E+02 -0.80510181920E+02  0.10103636287E+02  0.10280266326E+03  0.00000000000E+00 0. -1.
        -13    1    6    6    0    0  0.11590259479E+02 -0.47528904440E+02 -0.57546153509E+02  0.75530726566E+02  0.00000000000E+00 0.  1.
          5    1    5    5  501    0 -0.48226972657E+02 -0.11651693740E+03 -0.75611043453E+00  0.12619310320E+03  0.47000000000E+01 0. -1.
         13    1    4    4    0    0 -0.17015453820E+01  0.50887556021E+02 -0.15392499874E+00  0.50916228330E+02  0.00000000000E+00 0. -1.
        -14    1    4    4    0    0  0.90490981792E+01 -0.89720454733E+01  0.51110582258E+02  0.52675187675E+02  0.00000000000E+00 0.  1.
         -5    1    3    3    0  503 -0.33833060074E+02  0.20264051321E+03  0.21910770653E+03  0.30039662217E+03  0.47000000000E+01 0.  1.
</event>
<event>
12    1  0.9749377E-001  0.5432184E+03  0.7818608E-02  0.1003076E+00
         21   -1    0    0  503  502  0.00000000000E+00  0.00000000000E+00  0.90950771127E+03  0.90950771127E+03  0.00000000000E+00 0. -1.
         21   -1    0    0  501  503 -0.00000000000E+00 -0.00000000000E+00 -0.34396936994E+03  0.34396936994E+03  0.00000000000E+00 0.  1.
          6    2    1    2  501    0  0.40382830598E+03  0.34587553511E+03  0.30981595886E+03  0.63873774903E+03  0.17115138671E+03 0.  0.
         24    2    3    3    0    0  0.34576331460E+03  0.31858002648E+03  0.31878255113E+03  0.57378332045E+03  0.80990622454E+02 0.  0.
         -6    2    1    2    0  502 -0.40382830598E+03 -0.34587553511E+03  0.25572238247E+03  0.61473933219E+03  0.17263638998E+03 0.  0.
        -24    2    5    5    0    0 -0.28479085280E+03 -0.19338018031E+03  0.10272243618E+03  0.36804960386E+03  0.80043038632E+02 0.  0.
         14    1    4    4    0    0  0.18702480345E+03  0.12346301926E+03  0.17253666796E+03  0.28282555758E+03  0.00000000000E+00 0. -1.
        -13    1    4    4    0    0  0.15873851115E+03  0.19511700722E+03  0.14624588317E+03  0.29095776287E+03  0.00000000000E+00 0.  1.
          5    1    3    3  501    0  0.58064991376E+02  0.27295508630E+02 -0.89665922719E+01  0.64954428577E+02  0.47000000000E+01 0. -1.
         11    1    6    6    0    0 -0.14995244142E+03 -0.14799975542E+03  0.70554165922E+02  0.22218810189E+03  0.00000000000E+00 0. -1.
        -12    1    6    6    0    0 -0.13483841138E+03 -0.45380424892E+02  0.32168270255E+02  0.14586150198E+03  0.00000000000E+00 0.  1.
         -5    1    5    5    0  502 -0.11903745318E+03 -0.15249535481E+03  0.15299994629E+03  0.24668972833E+03  0.47000000000E+01 0.  1.
</event>
<event>
12    1  0.9749377E-001  0.2180074E+03  0.7818608E-02  0.1135377E+00
         21   -1    0    0  501  502  0.00000000000E+00  0.00000000000E+00  0.16567691141E+04  0.16567691141E+04  0.00000000000E+00 0.  1.
         21   -1    0    0  502  503 -0.00000000000E+00 -0.00000000000E+00 -0.41839402708E+02  0.41839402708E+02  0.00000000000E+00 0. -1.
         -6    2    1    2    0  503 -0.11325183590E+03  0.14499839083E+03  0.10713210224E+04  0.10996021578E+04  0.16596885448E+03 0.  0.
        -24    2    3    3    0    0 -0.74847122555E+02  0.19089017585E+02  0.58786088641E+03  0.59851944466E+03  0.81722833577E+02 0.  0.
          6    2    1    2  501    0  0.11325183590E+03 -0.14499839083E+03  0.54360868897E+03  0.59900635902E+03  0.17160332089E+03 0.  0.
         24    2    5    5    0    0  0.80316665484E+02 -0.19356200367E+02  0.31688453185E+03  0.33767014091E+03  0.82340077034E+02 0.  0.
         14    1    6    6    0    0  0.26420711737E+02 -0.30947202304E+02  0.23786683579E+03  0.24132222216E+03  0.00000000000E+00 0. -1.
        -13    1    6    6    0    0  0.53895953747E+02  0.11591001937E+02  0.79017696066E+02  0.96347918752E+02  0.00000000000E+00 0.  1.
          5    1    5    5  501    0  0.32935170419E+02 -0.12564219046E+03  0.22672415711E+03  0.26133621811E+03  0.47000000000E+01 0. -1.
         11    1    4    4    0    0 -0.55323303951E+02  0.20328349643E+02  0.16508349491E+03  0.17528967468E+03  0.00000000000E+00 0. -1.
        -12    1    4    4    0    0 -0.19523818604E+02 -0.12393320579E+01  0.42277739150E+03  0.42322976998E+03  0.00000000000E+00 0.  1.
         -5    1    3    3    0  503 -0.38404713348E+02  0.12590937325E+03  0.48346013602E+03  0.50108271313E+03  0.47000000000E+01 0.  1.
</event>
<event>
12    1  0.9749377E-001  0.2826746E+03  0.7818608E-02  0.1094237E+00
         21   -1    0    0  501  502  0.00000000000E+00  0.00000000000E+00  0.12205507164E+03  0.12205507164E+03  0.00000000000E+00 0. -1.
         21   -1    0    0  502  503 -0.00000000000E+00 -0.00000000000E+00 -0.90035758939E+03  0.90035758939E+03  0.00000000000E+00 0.  1.
         -6    2    1    2    0  503  0.25420684872E+02 -0.24393884859E+03 -0.60204802790E+03  0.67487454841E+03  0.18122211543E+03 0.  0.
        -24    2    3    3    0    0  0.52948357719E+02 -0.17719900183E+03 -0.55055705409E+03  0.58607482825E+03  0.78534194194E+02 0.  0.
          6    2    1    2  501    0 -0.25420684872E+02  0.24393884859E+03 -0.17625448985E+03  0.34753811262E+03  0.17194394861E+03 0.  0.
         24    2    5    5    0    0 -0.76715583476E+02  0.20733083582E+03 -0.12519217292E+03  0.26629303012E+03  0.79796876496E+02 0.  0.
         14    1    6    6    0    0 -0.90495925602E+02  0.19861159813E+03 -0.11199067557E+03  0.24531202758E+03  0.00000000000E+00 0. -1.
        -13    1    6    6    0    0  0.13780342126E+02  0.87192376867E+01 -0.13201497350E+02  0.20981002531E+02  0.00000000000E+00 0.  1.
          5    1    5    5  501    0  0.51294898604E+02  0.36608012769E+02 -0.51062316929E+02  0.81245082509E+02  0.47000000000E+01 0. -1.
         13    1    4    4    0    0  0.14975093034E+02 -0.10088140298E+01 -0.94671504061E+02  0.95853872109E+02  0.00000000000E+00 0. -1.
        -14    1    4    4    0    0  0.37973264684E+02 -0.17619018780E+03 -0.45588555003E+03  0.49022095614E+03  0.00000000000E+00 0.  1.
         -5    1    3    3    0  503 -0.27527672847E+02 -0.66739846754E+02 -0.51490973806E+02  0.88799720160E+02  0.47000000000E+01 0.  1.
</event>
<event>
12    1  0.9749377E-001  0.2101535E+03  0.7818608E-02  0.1141445E+00
         21   -1    0    0  501  502  0.00000000000E+00  0.00000000000E+00  0.20368543513E+04  0.20368543513E+04  0.00000000000E+00 0. -1.
         21   -1    0    0  502  503 -0.00000000000E+00 -0.00000000000E+00 -0.50935524655E+02  0.50935524655E+02  0.00000000000E+00 0.  1.
         -6    2    1    2    0  503  0.17057600696E+03  0.72255186286E+01  0.16810872031E+04  0.16984916861E+04  0.17225400161E+03 0.  0.
        -24    2    3    3    0    0  0.54697910791E+02  0.24936901666E+02  0.35912903897E+03  0.37133800097E+03  0.72832230658E+02 0.  0.
          6    2    1    2  501    0 -0.17057600696E+03 -0.72255186286E+01  0.30483162357E+03  0.38929818987E+03  0.17170433786E+03 0.  0.
         24    2    5    5    0    0 -0.19827238680E+03 -0.78779605858E+01  0.27652044598E+03  0.34940924513E+03  0.79052273250E+02 0.  0.
         12    1    6    6    0    0 -0.13440727960E+03  0.12621533312E+02  0.23352366221E+03  0.26973676191E+03  0.00000000000E+00 0. -1.
        -11    1    6    6    0    0 -0.63865107201E+02 -0.20499493898E+02  0.42996783767E+02  0.79672483218E+02  0.00000000000E+00 0.  1.
          5    1    5    5  501    0  0.27696379836E+02  0.65244195724E+00  0.28311177589E+02  0.39888944747E+02  0.47000000000E+01 0. -1.
         13    1    4    4    0    0  0.39806185077E+02 -0.42672053312E+01  0.30807581158E+03  0.31066613445E+03  0.00000000000E+00 0. -1.
        -14    1    4    4    0    0  0.14891725714E+02  0.29204106997E+02  0.51053227386E+02  0.60671866518E+02  0.00000000000E+00 0.  1.
         -5    1    3    3    0  503  0.11587809617E+03 -0.17711383037E+02  0.13219581641E+04  0.13271536851E+04  0.47000000000E+01 0.  1.
</event>
<event>
12    1  0.9749377E-001  0.3298393E+03  0.7818608E-02  0.1071208E+00
         21   -1    0    0  503  502  0.00000000000E+00  0.00000000000E+00  0.41058669847E+03  0.41058669847E+03  0.00000000000E+00 0. -1.
         21   -1    0    0  501  503 -0.00000000000E+00 -0.00000000000E+00 -0.29360108854E+03  0.29360108854E+03  0.00000000000E+00 0.  1.
          6    2    1    2  501    0 -0.28622916764E+03 -0.89650598428E+02  0.96544356345E+02  0.35770277866E+03  0.16931065800E+03 0.  0.
         24    2    3    3    0    0 -0.27044568185E+03 -0.52960731943E+02  0.12097520987E+03  0.31064726537E+03  0.76948139188E+02 0.  0.
         -6    2    1    2    0  502  0.28622916764E+03  0.89650598428E+02  0.20441253585E+02  0.34648500835E+03  0.17224880249E+03 0.  0.
        -24    2    5    5    0    0  0.19846304973E+03  0.11958418436E+03  0.48964910294E+02  0.24935313917E+03  0.78047846318E+02 0.  0.
         12    1    4    4    0    0 -0.22113044701E+03 -0.66619713090E+02  0.77816645556E+02  0.24370533661E+03  0.00000000000E+00 0. -1.
        -11    1    4    4    0    0 -0.49315234839E+02  0.13658981147E+02  0.43158564317E+02  0.66941928767E+02  0.00000000000E+00 0.  1.
          5    1    3    3  501    0 -0.15783485792E+02 -0.36689866485E+02 -0.24430853527E+02  0.47055513285E+02  0.47000000000E+01 0. -1.
         13    1    6    6    0    0  0.10849695567E+03  0.20064789710E+02  0.22888438572E+02  0.11268569473E+03  0.00000000000E+00 0. -1.
        -14    1    6    6    0    0  0.89966094061E+02  0.99519394653E+02  0.26076471721E+02  0.13666744444E+03  0.00000000000E+00 0.  1.
         -5    1    5    5    0  502  0.87766117903E+02 -0.29933585935E+02 -0.28523656709E+02  0.97131869182E+02  0.47000000000E+01 0.  1.
</event>
<event>
12    1  0.9749377E-001  0.3120173E+03  0.7818608E-02  0.1079383E+00
         21   -1    0    0  501  502  0.00000000000E+00  0.00000000000E+00  0.11564715044E+03  0.11564715044E+03  0.00000000000E+00 0. -1.
         21   -1    0    0  502  503 -0.00000000000E+00 -0.00000000000E+00 -0.23139371463E+04  0.23139371463E+04  0.00000000000E+00 0. -1.
         -6    2    1    2    0  503 -0.11574472374E+03 -0.26810125947E+03 -0.18074840913E+03  0.38378483809E+03  0.17130583220E+03 0.  0.
        -24    2    3    3    0    0 -0.68845754902E+02 -0.14231691372E+03 -0.17396044885E+03  0.24928806743E+03  0.82996752363E+02 0.  0.
          6    2    1    2  501    0  0.11574472374E+03  0.26810125947E+03 -0.20175415867E+04  0.20457994586E+04  0.17189021039E+03 0.  0.
         24    2    5    5    0    0  0.40556866363E+02  0.21553426807E+03 -0.16743161944E+04  0.16904935870E+04  0.79586234836E+02 0.  0.
         12    1    6    6    0    0  0.16137253060E+02  0.60272037922E+02 -0.77830497969E+03  0.78080200493E+03  0.00000000000E+00 0. -1.
        -11    1    6    6    0    0  0.24419613303E+02  0.15526223015E+03 -0.89601121467E+03  0.90969158204E+03  0.00000000000E+00 0.  1.
          5    1    5    5  501    0  0.75187857374E+02  0.52566991395E+02 -0.34322539233E+03  0.35530587164E+03  0.47000000000E+01 0. -1.
         13    1    4    4    0    0  0.19264541438E+02 -0.26137928969E+02 -0.37191598021E+02  0.49371336330E+02  0.00000000000E+00 0. -1.
        -14    1    4    4    0    0 -0.88110296340E+02 -0.11617898475E+03 -0.13676885082E+03  0.19991673110E+03  0.00000000000E+00 0.  1.
         -5    1    3    3    0  503 -0.46898968834E+02 -0.12578434574E+03 -0.67879602805E+01  0.13449677065E+03  0.47000000000E+01 0.  1.
</event>
<event>
12    1  0.9749377E-001  0.4865270E+03  0.7818608E-02  0.1017357E+00
         21   -1    0    0  503  502  0.00000000000E+00  0.00000000000E+00  0.40501791343E+03  0.40501791343E+03  0.00000000000E+00 0. -1.
         21   -1    0    0  501  503 -0.00000000000E+00 -0.00000000000E+00 -0.10269971517E+04  0.10269971517E+04  0.00000000000E+00 0.  1.
          6    2    1    2  501    0  0.36631791438E+03 -0.29550796689E+03  0.13949214747E+03  0.52063691480E+03  0.17346747520E+03 0.  0.
         24    2    3    3    0    0  0.28737615608E+03 -0.19430343257E+03  0.15665748431E+03  0.39105721824E+03  0.89695605016E+02 0.  0.
         -6    2    1    2    0  502 -0.36631791438E+03  0.29550796689E+03 -0.76147138571E+03  0.91137815030E+03  0.17104879042E+03 0.  0.
        -24    2    5    5    0    0 -0.25188503959E+03  0.11850320940E+03 -0.46346925740E+03  0.54633989822E+03  0.78704815760E+02 0.  0.
         14    1    4    4    0    0  0.74256880978E+02 -0.93769277866E+02  0.77285306079E+02  0.14240709385E+03  0.00000000000E+00 0. -1.
        -13    1    4    4    0    0  0.21311927510E+03 -0.10053415470E+03  0.79372178226E+02  0.24865012439E+03  0.00000000000E+00 0.  1.
          5    1    3    3  501    0  0.78941758295E+02 -0.10120453432E+03 -0.17165336835E+02  0.12957969655E+03  0.47000000000E+01 0. -1.
         11    1    6    6    0    0 -0.10832228767E+03  0.45664384323E+02 -0.12531816601E+03  0.17182431939E+03  0.00000000000E+00 0. -1.
        -12    1    6    6    0    0 -0.14356275192E+03  0.72838825076E+02 -0.33815109139E+03  0.37451557883E+03  0.00000000000E+00 0.  1.
         -5    1    5    5    0  502 -0.11443287479E+03  0.17700475749E+03 -0.29800212831E+03  0.36503825208E+03  0.47000000000E+01 0.  1.
</event>
<event>
12    1  0.9749377E-001  0.4916212E+03  0.7818608E-02  0.1015989E+00
         21   -1    0    0  503  502  0.00000000000E+00  0.00000000000E+00  0.30831606490E+03  0.30831606490E+03  0.00000000000E+00 0.  1.
         21   -1    0    0  501  503 -0.00000000000E+00 -0.00000000000E+00 -0.90301474015E+03  0.90301474015E+03  0.00000000000E+00 0. -1.
          6    2    1    2  501    0 -0.32632268586E+03 -0.35588558699E+03 -0.44008569902E+03  0.67570773578E+03  0.17252384000E+03 0.  0.
         24    2    3    3    0    0 -0.14299005619E+03 -0.14436556258E+03 -0.27448153489E+03  0.35044107132E+03  0.78620987289E+02 0.  0.
         -6    2    1    2    0  502  0.32632268586E+03  0.35588558699E+03 -0.15461297624E+03  0.53562306927E+03  0.17275952529E+03 0.  0.
        -24    2    5    5    0    0  0.32539241661E+03  0.34882631768E+03 -0.17437758965E+03  0.51409567678E+03  0.79541161788E+02 0.  0.
         14    1    4    4    0    0 -0.15230169855E+03 -0.12987453973E+03 -0.24582944095E+03  0.31700996434E+03  0.00000000000E+00 0. -1.
        -13    1    4    4    0    0  0.93116423616E+01 -0.14491022845E+02 -0.28652093942E+02  0.33431106979E+02  0.00000000000E+00 0.  1.
          5    1    3    3  501    0 -0.18333262967E+03 -0.21152002441E+03 -0.16560416413E+03  0.32526666446E+03  0.47000000000E+01 0. -1.
         11    1    6    6    0    0  0.18140810365E+01  0.37403569376E+00  0.54115537204E+01  0.57197645385E+01  0.00000000000E+00 0. -1.
        -12    1    6    6    0    0  0.32357833557E+03  0.34845228199E+03 -0.17978914337E+03  0.50837591224E+03  0.00000000000E+00 0.  1.
         -5    1    5    5    0  502  0.93026925453E+00  0.70592693119E+01  0.19764613415E+02  0.21527392493E+02  0.47000000000E+01 0.  1.
</event>
<event>
12    1  0.9749377E-001  0.2901973E+03  0.7818608E-02  0.1090246E+00
         21   -1    0    0  501  502  0.00000000000E+00  0.00000000000E+00  0.14126922300E+04  0.14126922300E+04  0.00000000000E+00 0.  1.
         21   -1    0    0  502  503 -0.00000000000E+00 -0.00000000000E+00 -0.75079332742E+02  0.75079332742E+02  0.00000000000E+00 0. -1.
         -6    2    1    2    0  503 -0.45039724684E+02 -0.25603554099E+03  0.88486242645E+03  0.93811318281E+03  0.17173250993E+03 0.  0.
        -24    2    3    3    0    0 -0.96291981739E+02 -0.19888741545E+03  0.65775431476E+03  0.69833643977E+03  0.78769884824E+02 0.  0.
          6    2    1    2  501    0  0.45039724684E+02  0.25603554099E+03  0.45275047079E+03  0.54965837992E+03  0.17192606190E+03 0.  0.
         24    2    5    5    0    0 -0.31046576130E+02  0.86442511023E+02  0.22350084786E+03  0.25448317669E+03  0.79830198694E+02 0.  0.
         12    1    6    6    0    0 -0.28134193618E+01  0.47141006660E+02  0.18961460592E+03  0.19540698200E+03  0.00000000000E+00 0. -1.
        -11    1    6    6    0    0 -0.28233156768E+02  0.39301504362E+02  0.33886241945E+02  0.59076194693E+02  0.00000000000E+00 0.  1.
          5    1    5    5  501    0  0.76086300814E+02  0.16959302997E+03  0.22924962293E+03  0.29517520323E+03  0.47000000000E+01 0. -1.
         13    1    4    4    0    0 -0.33766337870E+02 -0.93283345674E+02  0.18510594834E+03  0.21001466679E+03  0.00000000000E+00 0. -1.
        -14    1    4    4    0    0 -0.62525643869E+02 -0.10560406978E+03  0.47264836642E+03  0.48832177299E+03  0.00000000000E+00 0.  1.
         -5    1    3    3    0  503  0.51252257056E+02 -0.57148125542E+02  0.22710811169E+03  0.23977674304E+03  0.47000000000E+01 0.  1.
</event>
<event>
12    1  0.9749377E-001  0.2330867E+03  0.7818608E-02  0.1124486E+00
         21   -1    0    0  503  502  0.00000000000E+00  0.00000000000E+00  0.25521165892E+03  0.25521165892E+03  0.00000000000E+00 0. -1.
         21   -1    0    0  501  503 -0.00000000000E+00 -0.00000000000E+00 -0.32743379635E+03  0.32743379635E+03  0.00000000000E+00 0.  1.
          6    2    1    2  501    0 -0.13156701029E+03  0.16086868249E+03  0.69028350513E+02  0.27848163340E+03  0.17204213368E+03 0.  0.
         24    2    3    3    0    0 -0.62198989509E+02  0.53498583522E+02  0.94036271719E+02  0.14814458347E+03  0.79832227069E+02 0.  0.
         -6    2    1    2    0  502  0.13156701029E+03 -0.16086868249E+03 -0.14125048794E+03  0.30416382187E+03  0.17139229559E+03 0.  0.
        -24    2    5    5    0    0 -0.89652433736E+00 -0.53671549141E+02 -0.34321549653E+02  0.10293335388E+03  0.80844713045E+02 0.  0.
         14    1    4    4    0    0 -0.48038837681E+02  0.39025877992E+02  0.10734823179E+03  0.12391284012E+03  0.00000000000E+00 0. -1.
        -13    1    4    4    0    0 -0.14160151828E+02  0.14472705529E+02 -0.13311960067E+02  0.24231743354E+02  0.00000000000E+00 0.  1.
          5    1    3    3  501    0 -0.69368020784E+02  0.10737009897E+03 -0.25007921206E+02  0.13033704993E+03  0.47000000000E+01 0. -1.
         11    1    6    6    0    0 -0.58906846970E+01 -0.69141258214E+02 -0.52054924379E+01  0.69586715005E+02  0.00000000000E+00 0. -1.
        -12    1    6    6    0    0  0.49941603596E+01  0.15469709073E+02 -0.29116057215E+02  0.33346638875E+02  0.00000000000E+00 0.  1.
         -5    1    5    5    0  502  0.13246353463E+03 -0.10719713335E+03 -0.10692893829E+03  0.20123046799E+03  0.47000000000E+01 0.  1.
</event>
<event>
12    1  0.9749377E-001  0.7996655E+03  0.7818608E-02  0.9560501E-01
         21   -1    0    0  503  502  0.00000000000E+00  0.00000000000E+00  0.69782222098E+03  0.69782222098E+03  0.00000000000E+00 0. -1.
         21   -1    0    0  501  503 -0.00000000000E+00 -0.00000000000E+00 -0.10565353017E+04  0.10565353017E+04  0.00000000000E+00 0.  1.
          6    2    1    2  501    0 -0.39592746929E+03 -0.68822484268E+03  0.10578244135E+03  0.81896199218E+03  0.17057791394E+03 0.  0.
         24    2    3    3    0    0 -0.35789430206E+03 -0.60904378854E+03  0.42912547341E+02  0.71083764379E+03  0.66528199246E+02 0.  0.
         -6    2    1    2    0  502  0.39592746929E+03  0.68822484268E+03 -0.46449552209E+03  0.93539553052E+03  0.16969594415E+03 0.  0.
        -24    2    5    5    0    0  0.19708050405E+03  0.46219087678E+03 -0.32577340724E+03  0.60388778631E+03  0.78044948175E+02 0.  0.
         12    1    4    4    0    0 -0.13058649775E+03 -0.26202646587E+03  0.43648643996E+02  0.29599984178E+03  0.00000000000E+00 0. -1.
        -11    1    4    4    0    0 -0.22730780431E+03 -0.34701732267E+03 -0.73609665536E+00  0.41483780201E+03  0.00000000000E+00 0.  1.
          5    1    3    3  501    0 -0.38033167228E+02 -0.79181054138E+02  0.62869894008E+02  0.10812434840E+03  0.47000000000E+01 0. -1.
         13    1    6    6    0    0  0.56244328616E+01  0.20867465170E+02 -0.36877267072E+02  0.42743633144E+02  0.00000000000E+00 0. -1.
        -14    1    6    6    0    0  0.19145607119E+03  0.44132341161E+03 -0.28889614017E+03  0.56114415317E+03  0.00000000000E+00 0.  1.
         -5    1    5    5    0  502  0.19884696523E+03  0.22603396590E+03 -0.13872211485E+03  0.33150774421E+03  0.47000000000E+01 0.  1.
</event>
<event>
12    1  0.9749377E-001  0.1049463E+04  0.7818608E-02  0.9255898E-01
         21   -1    0    0  503  502  0.00000000000E+00  0.00000000000E+00  0.44273612143E+03  0.44273612143E+03  0.00000000000E+00 0. -1.
         21   -1    0    0  501  503 -0.00000000000E+00 -0.00000000000E+00 -0.26178593605E+04  0.26178593605E+04  0.00000000000E+00 0.  1.
          6    2    1    2  501    0  0.11339687727E+02 -0.10436755610E+04 -0.13707653200E+04  0.17316159862E+04  0.17351972775E+03 0.  0.
         24    2    3    3    0    0 -0.41483122576E+02 -0.88976428590E+03 -0.11250478073E+04  0.14368650473E+04  0.73805566698E+02 0.  0.
         -6    2    1    2    0  502 -0.11339687727E+02  0.10436755610E+04 -0.80435791907E+03  0.13289794957E+04  0.17264869783E+03 0.  0.
        -24    2    5    5    0    0 -0.30500001429E+02  0.69657145514E+03 -0.45585463221E+03  0.83671431424E+03  0.78392319387E+02 0.  0.
         14    1    4    4    0    0 -0.14704075712E+02 -0.53356734419E+03 -0.72911608602E+03  0.90361528734E+03  0.00000000000E+00 0. -1.
        -13    1    4    4    0    0 -0.26779046864E+02 -0.35619694171E+03 -0.39593172126E+03  0.53324975999E+03  0.00000000000E+00 0.  1.
          5    1    3    3  501    0  0.52822810303E+02 -0.15391127514E+03 -0.24571751268E+03  0.29475093883E+03  0.47000000000E+01 0. -1.
         11    1    6    6    0    0 -0.86620915847E+01  0.41182319905E+03 -0.22412201769E+03  0.46893929023E+03  0.00000000000E+00 0. -1.
        -12    1    6    6    0    0 -0.21837909844E+02  0.28474825609E+03 -0.23173261452E+03  0.36777502401E+03  0.00000000000E+00 0.  1.
         -5    1    5    5    0  502  0.19160313702E+02  0.34710410590E+03 -0.34850328687E+03  0.49226518149E+03  0.47000000000E+01 0.  1.
</event>
<event>
12    1  0.9749377E-001  0.1197766E+03  0.7818608E-02  0.1243466E+00
         21   -1    0    0  501  502  0.00000000000E+00  0.00000000000E+00  0.32200621169E+03  0.32200621169E+03  0.00000000000E+00 0.  1.
         21   -1    0    0  502  503 -0.00000000000E+00 -0.00000000000E+00 -0.11416815233E+03  0.11416815233E+03  0.00000000000E+00 0.  1.
         -6    2    1    2    0  503 -0.27017836711E+02 -0.15858629046E+02  0.18983421809E+03  0.26110800561E+03  0.17651883928E+03 0.  0.
        -24    2    3    3    0    0 -0.30429576789E+02  0.61606616202E+02  0.12112654861E+03  0.15740005973E+03  0.73360777825E+02 0.  0.
          6    2    1    2  501    0  0.27017836711E+02  0.15858629046E+02  0.18003841269E+02  0.17506635840E+03  0.17129691162E+03 0.  0.
         24    2    5    5    0    0  0.39803102098E+00 -0.24114490132E+02 -0.42120528140E+02  0.97972298266E+02  0.85104437450E+02 0.  0.
         12    1    6    6    0    0  0.98707787815E+01 -0.29399755971E+02  0.18685218791E+02  0.36206564684E+02  0.00000000000E+00 0. -1.
        -11    1    6    6    0    0 -0.94727477605E+01  0.52852658393E+01 -0.60805746931E+02  0.61765733582E+02  0.00000000000E+00 0.  1.
          5    1    5    5  501    0  0.26619805690E+02  0.39973119178E+02  0.60124369409E+02  0.77094060139E+02  0.47000000000E+01 0. -1.
         13    1    4    4    0    0 -0.27746248954E+02  0.33399733949E+02  0.12566099553E+02  0.45202913809E+02  0.00000000000E+00 0. -1.
        -14    1    4    4    0    0 -0.26833278355E+01  0.28206882254E+02  0.10856044905E+03  0.11219714592E+03  0.00000000000E+00 0.  1.
         -5    1    3    3    0  503  0.34117400783E+01 -0.77465245249E+02  0.68707669482E+02  0.10370794587E+03  0.47000000000E+01 0.  1.
</event>
<event>
12    1  0.9749377E-001  0.5335324E+03  0.7818608E-02  0.1005379E+00
         21   -1    0    0  503  502  0.00000000000E+00  0.00000000000E+00  0.16882667030E+04  0.16882667030E+04  0.00000000000E+00 0. -1.
         21   -1    0    0  501  503 -0.00000000000E+00 -0.00000000000E+00 -0.21765084307E+03  0.21765084307E+03  0.00000000000E+00 0.  1.
          6    2    1    2  501    0  0.37815488322E+03  0.35186505542E+03  0.31634327527E+03  0.62970316923E+03  0.17217107947E+03 0.  0.
         24    2    3    3    0    0  0.12964487489E+03  0.18931648585E+03  0.18663367139E+03  0.30562612122E+03  0.76984889916E+02 0.  0.
         -6    2    1    2    0  502 -0.37815488322E+03 -0.35186505542E+03  0.11542725846E+04  0.12762143768E+04  0.17195290930E+03 0.  0.
        -24    2    5    5    0    0 -0.14591627717E+03 -0.18562415738E+03  0.42100485596E+03  0.48927444375E+03  0.79978152184E+02 0.  0.
         12    1    4    4    0    0  0.12955983913E+03  0.15680508944E+03  0.18169977899E+03  0.27274236501E+03  0.00000000000E+00 0. -1.
        -11    1    4    4    0    0  0.85035758597E-01  0.32511396418E+02  0.49338924002E+01  0.32883756208E+02  0.00000000000E+00 0.  1.
          5    1    3    3  501    0  0.24851000833E+03  0.16254856956E+03  0.12970960388E+03  0.32407704801E+03  0.47000000000E+01 0. -1.
         13    1    6    6    0    0 -0.10495208004E+03 -0.17831017895E+03  0.36404035911E+03  0.41873003485E+03  0.00000000000E+00 0. -1.
        -14    1    6    6    0    0 -0.40964197132E+02 -0.73139784267E+01  0.56964496845E+02  0.70544408906E+02  0.00000000000E+00 0.  1.
         -5    1    5    5    0  502 -0.23223860605E+03 -0.16624089804E+03  0.73326772866E+03  0.78693993304E+03  0.47000000000E+01 0.  1.
</event>
<event>
12    1  0.9749377E-001  0.2389997E+03  0.7818608E-02  0.1120461E+00
         21   -1    0    0  501  502  0.00000000000E+00  0.00000000000E+00  0.84802174624E+03  0.84802174624E+03  0.00000000000E+00 0.  1.
         21   -1    0    0  502  503 -0.00000000000E+00 -0.00000000000E+00 -0.10369017615E+03  0.10369017615E+03  0.00000000000E+00 0. -1.
         -6    2    1    2    0  503 -0.18650975229E+03  0.33478100448E+02  0.13059893249E+03  0.28649019622E+03  0.17062790059E+03 0.  0.
        -24    2    3    3    0    0 -0.14128294871E+03 -0.41587020090E+02  0.82831267853E+02  0.18656984861E+03  0.79100806818E+02 0.  0.
          6    2    1    2  501    0  0.18650975229E+03 -0.33478100448E+02  0.61373263761E+03  0.66522172617E+03  0.17304774946E+03 0.  0.
         24    2    5    5    0    0  0.65067464797E+02 -0.60287415978E+02  0.19596447181E+03  0.22930969497E+03  0.79451334125E+02 0.  0.
         14    1    6    6    0    0 -0.11192234222E+02  0.97293923017E+01  0.33882911423E+02  0.36986198344E+02  0.00000000000E+00 0. -1.
        -13    1    6    6    0    0  0.76259699019E+02 -0.70016808280E+02  0.16208156039E+03  0.19232349662E+03  0.00000000000E+00 0.  1.
          5    1    5    5  501    0  0.12144228749E+03  0.26809315530E+02  0.41776816580E+03  0.43591203120E+03  0.47000000000E+01 0. -1.
         11    1    4    4    0    0 -0.38164575556E+02 -0.14310565700E+02 -0.13405552144E+02  0.42907294792E+02  0.00000000000E+00 0. -1.
        -12    1    4    4    0    0 -0.10311837316E+03 -0.27276454389E+02  0.96236819997E+02  0.14366255382E+03  0.00000000000E+00 0.  1.
         -5    1    3    3    0  503 -0.45226803575E+02  0.75065120538E+02  0.47767664633E+02  0.99920347615E+02  0.47000000000E+01 0.  1.
</event>
<event>
12    1  0.9749377E-001  0.1580395E+03  0.7818608E-02  0.1190928E+00
         21   -1    0    0  501  502  0.00000000000E+00  0.00000000000E+00  0.50309071503E+03  0.50309071503E+03  0.00000000000E+00 0. -1.
         21   -1    0    0  502  503 -0.00000000000E+00 -0.00000000000E+00 -0.13959725245E+03  0.13959725245E+03  0.00000000000E+00 0. -1.
         -6    2    1    2    0  503  0.51232233242E+02  0.52272105736E+02  0.40847100541E+03  0.44949670912E+03  0.17274725608E+03 0.  0.
        -24    2    3    3    0    0 -0.43094458116E+01  0.47565459891E+02  0.10269113792E+03  0.13864232522E+03  0.79969870801E+02 0.  0.
          6    2    1    2  501    0 -0.51232233242E+02 -0.52272105736E+02 -0.44977542834E+02  0.19319125837E+03  0.17303978788E+03 0.  0.
         24    2    5    5    0    0  0.18696388449E+02 -0.67569226152E+02 -0.54277540538E+02  0.12085458729E+03  0.82125663464E+02 0.  0.
         14    1    6    6    0    0  0.93244324119E+01  0.12517465387E+02 -0.34447485839E+02  0.37818795065E+02  0.00000000000E+00 0. -1.
        -13    1    6    6    0    0  0.93719560374E+01 -0.80086691540E+02 -0.19830054699E+02  0.83035792229E+02  0.00000000000E+00 0.  1.
          5    1    5    5  501    0 -0.69928621691E+02  0.15297120417E+02  0.92999977038E+01  0.72336671073E+02  0.47000000000E+01 0. -1.
         13    1    4    4    0    0  0.81744916604E+01 -0.20965879427E+02  0.16959500350E+02  0.28178272945E+02  0.00000000000E+00 0. -1.
        -14    1    4    4    0    0 -0.12483937472E+02  0.68531339318E+02  0.85731637571E+02  0.11046405227E+03  0.00000000000E+00 0.  1.
         -5    1    3    3    0  503  0.55541679054E+02  0.47066458447E+01  0.30577986749E+03  0.31085438390E+03  0.47000000000E+01 0.  1.
</event>
<event>
12    1  0.9749377E-001  0.3415069E+03  0.7818608E-02  0.1066156E+00
         21   -1    0    0  501  502  0.00000000000E+00  0.00000000000E+00  0.82916437027E+03  0.82916437027E+03  0.00000000000E+00 0.  1.
         21   -1    0    0  502  503 -0.00000000000E+00 -0.00000000000E+00 -0.16486885413E+03  0.16486885413E+03  0.00000000000E+00 0. -1.
         -6    2    1    2    0  503  0.32021629568E+03  0.24398211034E+02  0.40806860504E+03  0.54684988035E+03  0.17143820024E+03 0.  0.
        -24    2    3    3    0    0  0.11770103461E+03 -0.41902897411E+02  0.13745237711E+03  0.20237419069E+03  0.80329139955E+02 0.  0.
          6    2    1    2  501    0 -0.32021629568E+03 -0.24398211034E+02  0.25622691111E+03  0.44718334405E+03  0.17659831397E+03 0.  0.
         24    2    5    5    0    0 -0.85523169594E+02 -0.34858365031E+02  0.13817683072E+03  0.18422291027E+03  0.79472800186E+02 0.  0.
         14    1    6    6    0    0 -0.84234443573E-01  0.99662542329E+00 -0.96803203786E+01  0.97318528713E+01  0.00000000000E+00 0. -1.
        -13    1    6    6    0    0 -0.85438935150E+02 -0.35854990454E+02  0.14785715110E+03  0.17449105740E+03  0.00000000000E+00 0.  1.
          5    1    5    5  501    0 -0.23469312609E+03  0.10460153996E+02  0.11805008039E+03  0.26296043378E+03  0.47000000000E+01 0. -1.
         13    1    4    4    0    0 -0.81843857991E+01 -0.65527733497E+01 -0.25689842685E+01  0.10794567599E+02  0.00000000000E+00 0. -1.
        -14    1    4    4    0    0  0.12588542040E+03 -0.35350124062E+02  0.14002136138E+03  0.19157962309E+03  0.00000000000E+00 0.  1.
         -5    1    3    3    0  503  0.20251526108E+03  0.66301108445E+02  0.27061622793E+03  0.34447568966E+03  0.47000000000E+01 0.  1.
</event>
<event>
12    1  0.9749377E-001  0.4001115E+03  0.7818608E-02  0.1043741E+00
         21   -1    0    0  503  502  0.00000000000E+00  0.00000000000E+00  0.41497951766E+03  0.41497951766E+03  0.00000000000E+00 0.  1.
         21   -1    0    0  501  503 -0.00000000000E+00 -0.00000000000E+00 -0.41829376812E+03  0.41829376812E+03  0.00000000000E+00 0. -1.
          6    2    1    2  501    0  0.59849846454E+02  0.36924069949E+03 -0.58745717571E+02  0.41529974699E+03  0.17059344138E+03 0.  0.
         24    2    3    3    0    0 -0.87122923592E+01  0.18766708701E+03  0.26245370248E+02  0.20336740252E+03  0.73311945562E+02 0.  0.
         -6    2    1    2    0  502 -0.59849846454E+02 -0.36924069949E+03  0.55431467115E+02  0.41797353878E+03  0.17806890042E+03 0.  0.
        -24    2    5    5    0    0 -0.61376923608E+02 -0.10140549596E+03 -0.90125615260E+01  0.14245012591E+03  0.78489558183E+02 0.  0.
         12    1    4    4    0    0 -0.36328804749E+02  0.66339836162E+02 -0.24326671713E+01  0.75674789633E+02  0.00000000000E+00 0. -1.
        -11    1    4    4    0    0  0.27616512390E+02  0.12132725085E+03  0.28678037419E+02  0.12769261288E+03  0.00000000000E+00 0.  1.
          5    1    3    3  501    0  0.68562138813E+02  0.18157361248E+03 -0.84991087819E+02  0.21193234448E+03  0.47000000000E+01 0. -1.
         13    1    6    6    0    0 -0.77258284660E+02 -0.77490090429E+02 -0.20858203706E+02  0.11139399142E+03  0.00000000000E+00 0. -1.
        -14    1    6    6    0    0  0.15881361051E+02 -0.23915405535E+02  0.11845642180E+02  0.31056134489E+02  0.00000000000E+00 0.  1.
         -5    1    5    5    0  502  0.15270771548E+01 -0.26783520352E+03  0.64444028640E+02  0.27552341287E+03  0.47000000000E+01 0.  1.
</event>
<event>
12    1  0.9749377E-001  0.1819836E+03  0.7818608E-02  0.1165897E+00
         21   -1    0    0  503  502  0.00000000000E+00  0.00000000000E+00  0.81721384231E+02  0.81721384231E+02  0.00000000000E+00 0. -1.
         21   -1    0    0  501  503 -0.00000000000E+00 -0.00000000000E+00 -0.64479354493E+03  0.64479354493E+03  0.00000000000E+00 0.  1.
          6    2    1    2  501    0 -0.24921924022E+02 -0.11892401778E+03 -0.16285699247E+03  0.27368211247E+03  0.18334523279E+03 0.  0.
         24    2    3    3    0    0  0.48512487477E+02 -0.89384698779E+02 -0.14291030492E+03  0.19191937949E+03  0.77888427609E+02 0.  0.
         -6    2    1    2    0  502  0.24921924022E+02  0.11892401778E+03 -0.40021516823E+03  0.45283281669E+03  0.17355504800E+03 0.  0.
        -24    2    5    5    0    0 -0.47873101294E+02  0.91061597581E+02 -0.29990050589E+03  0.32570865829E+03  0.74577263736E+02 0.  0.
         12    1    4    4    0    0  0.27465288620E+02 -0.30338736090E+02 -0.60269257082E+01  0.41365502777E+02  0.00000000000E+00 0. -1.
        -11    1    4    4    0    0  0.21047198857E+02 -0.59045962689E+02 -0.13688337921E+03  0.15055387671E+03  0.00000000000E+00 0.  1.
          5    1    3    3  501    0 -0.73434411499E+02 -0.29539319004E+02 -0.19946687547E+02  0.81762732975E+02  0.47000000000E+01 0. -1.
         13    1    6    6    0    0 -0.11933624570E+02  0.27122265439E+02 -0.18560325150E+02  0.34964472648E+02  0.00000000000E+00 0. -1.
        -14    1    6    6    0    0 -0.35939476724E+02  0.63939332143E+02 -0.28134018074E+03  0.29074418564E+03  0.00000000000E+00 0.  1.
         -5    1    5    5    0  502  0.72795025316E+02  0.27862420202E+02 -0.10031466234E+03  0.12712415841E+03  0.47000000000E+01 0.  1.
</event>
<event>
12    1  0.9749377E-001  0.5776398E+03  0.7818608E-02  0.9952914E-01
         21   -1    0    0  503  502  0.00000000000E+00  0.00000000000E+00  0.44806740462E+03  0.44806740462E+03  0.00000000000E+00 0.  1.
         21   -1    0    0  501  503 -0.00000000000E+00 -0.00000000000E+00 -0.76147111627E+03  0.76147111627E+03  0.00000000000E+00 0. -1.
          6    2    1    2  501    0  0.33157364727E+03  0.44908602231E+03 -0.15919114621E+03  0.60540863902E+03  0.17192574028E+03 0.  0.
         24    2    3    3    0    0  0.13677837529E+03  0.13453723180E+03 -0.94204122573E+02  0.22973385568E+03  0.84229668459E+02 0.  0.
         -6    2    1    2    0  502 -0.33157364727E+03 -0.44908602231E+03 -0.15421256544E+03  0.60412988187E+03  0.17196528669E+03 0.  0.
        -24    2    5    5    0    0 -0.32168900959E+03 -0.45992019675E+03 -0.15745058575E+03  0.58839265933E+03  0.80030171378E+02 0.  0.
         14    1    4    4    0    0  0.12755615002E+03  0.76127243333E+02 -0.80803350125E+02  0.16910088697E+03  0.00000000000E+00 0. -1.
        -13    1    4    4    0    0  0.92222252740E+01  0.58409988470E+02 -0.13400772448E+02  0.60632968707E+02  0.00000000000E+00 0.  1.
          5    1    3    3  501    0  0.19479527198E+03  0.31454879051E+03 -0.64987023640E+02  0.37567478334E+03  0.47000000000E+01 0. -1.
         13    1    6    6    0    0 -0.53688034712E+02 -0.99338061831E+02 -0.62991215133E+02  0.12929945392E+03  0.00000000000E+00 0. -1.
        -14    1    6    6    0    0 -0.26800097488E+03 -0.36058213491E+03 -0.94459370622E+02  0.45909320541E+03  0.00000000000E+00 0.  1.
         -5    1    5    5    0  502 -0.98846376796E+01  0.10834174433E+02  0.32380203139E+01  0.15737222539E+02  0.47000000000E+01 0.  1.
</event>
<event>
12    1  0.9749377E-001  0.2206233E+03  0.7818608E-02  0.1133419E+00
         21   -1    0    0  503  502  0.00000000000E+00  0.00000000000E+00  0.26182822109E+03  0.26182822109E+03  0.00000000000E+00 0.  1.
         21   -1    0    0  501  503 -0.00000000000E+00 -0.00000000000E+00 -0.23127929028E+03  0.23127929028E+03  0.00000000000E+00 0. -1.
          6    2    1    2  501    0 -0.17316915911E+03 -0.79176826756E+01  0.43833626913E+01  0.24440413900E+03  0.17223217448E+03 0.  0.
         24    2    3    3    0    0 -0.15170615683E+03 -0.44947449099E+02  0.46162751107E+02  0.18440854445E+03  0.82707197249E+02 0.  0.
         -6    2    1    2    0  502  0.17316915911E+03  0.79176826756E+01  0.26165568125E+02  0.24870337238E+03  0.17640431715E+03 0.  0.
        -24    2    5    5    0    0  0.17807382662E+02  0.31762268759E+02 -0.89115246261E+01  0.87587456645E+02  0.79159350025E+02 0.  0.
         12    1    4    4    0    0 -0.12211410220E+03 -0.28961270165E+02 -0.21754288580E+01  0.12552028368E+03  0.00000000000E+00 0. -1.
        -11    1    4    4    0    0 -0.29592054634E+02 -0.15986178933E+02  0.48338179965E+02  0.58888260771E+02  0.00000000000E+00 0.  1.
          5    1    3    3  501    0 -0.21463002276E+02  0.37029766423E+02 -0.41779388416E+02  0.59995594542E+02  0.47000000000E+01 0. -1.
         13    1    6    6    0    0 -0.14425181601E+02  0.44775641096E+02  0.98866657826E+01  0.48069637611E+02  0.00000000000E+00 0. -1.
        -14    1    6    6    0    0  0.32232564262E+02 -0.13013372337E+02 -0.18798190409E+02  0.39517819033E+02  0.00000000000E+00 0.  1.
         -5    1    5    5    0  502  0.15536177645E+03 -0.23844586084E+02  0.35077092751E+02  0.16111591573E+03  0.47000000000E+01 0.  1.
</event>
<event>
12    1  0.9749377E-001  0.3282650E+03  0.7818608E-02  0.1071907E+00
         21   -1    0    0  501  502  0.00000000000E+00  0.00000000000E+00  0.33454939675E+03  0.33454939675E+03  0.00000000000E+00 0.  1.
         21   -1    0    0  502  503 -0.00000000000E+00 -0.00000000000E+00 -0.35620601043E+03  0.35620601043E+03  0.00000000000E+00 0. -1.
         -6    2    1    2    0  503  0.54087596370E+02  0.28216165165E+03 -0.94583999433E+02  0.34791914381E+03  0.17193292861E+03 0.  0.
        -24    2    3    3    0    0  0.14625695802E+02  0.28116490784E+03 -0.68463628792E+02  0.30035236069E+03  0.79099024808E+02 0.  0.
          6    2    1    2  501    0 -0.54087596370E+02 -0.28216165165E+03  0.72927385755E+02  0.34283626337E+03  0.17227197725E+03 0.  0.
         24    2    5    5    0    0  0.29566224457E+02 -0.81478700738E+02  0.23752988833E+02  0.11987478724E+03  0.79327295644E+02 0.  0.
         14    1    6    6    0    0  0.26915678536E+02 -0.97303613693E+02  0.24221571334E+02  0.10382259632E+03  0.00000000000E+00 0. -1.
        -13    1    6    6    0    0  0.26505459210E+01  0.15824912955E+02 -0.46858250080E+00  0.16052190918E+02  0.00000000000E+00 0.  1.
          5    1    5    5  501    0 -0.83653820826E+02 -0.20068295091E+03  0.49174396922E+02  0.22296147613E+03  0.47000000000E+01 0. -1.
         11    1    4    4    0    0 -0.19398785765E+01  0.15985552603E+03  0.42404079059E+00  0.15986785837E+03  0.00000000000E+00 0. -1.
        -12    1    4    4    0    0  0.16565574378E+02  0.12130938181E+03 -0.68887669582E+02  0.14048450232E+03  0.00000000000E+00 0.  1.
         -5    1    3    3    0  503  0.39461900568E+02  0.99674381167E+00 -0.26120370641E+02  0.47566783127E+02  0.47000000000E+01 0.  1.
</event>
<event>
12    1  0.1381354E+000  0.6222965E+03  0.7818608E-02  0.9860198E-01
         21   -1    0    0  503  502  0.00000000000E+00  0.00000000000E+00  0.11494559679E+04  0.11494559679E+04  0.00000000000E+00 0. -1.
         21   -1    0    0  501  503 -0.00000000000E+00 -0.00000000000E+00 -0.42646285892E+03  0.42646285892E+03  0.00000000000E+00 0.  1.
          6    2    1    2  501    0  0.34924058625E+02 -0.60448713036E+03  0.70676102044E+03  0.94647278787E+03  0.17226496315E+03 0.  0.
         24    2    3    3    0    0  0.41602010375E+02 -0.61183347844E+03  0.69445848141E+03  0.92998017327E+03  0.80744087556E+02 0.  0.
         -6    2    1    2    0  502 -0.34924058625E+02  0.60448713036E+03  0.16232088522E+02  0.62944603893E+03  0.17121464480E+03 0.  0.
        -24    2    5    5    0    0  0.37280134641E+02  0.19722552161E+03  0.19593275513E+01  0.21556046877E+03  0.78579653341E+02 0.  0.
         12    1    4    4    0    0  0.64189259235E+02 -0.46256592067E+03  0.54168861193E+03  0.71520210029E+03  0.00000000000E+00 0. -1.
        -11    1    4    4    0    0 -0.22587248860E+02 -0.14926755777E+03  0.15276986947E+03  0.21477807298E+03  0.00000000000E+00 0.  1.
          5    1    3    3  501    0 -0.66779517505E+01  0.73463480798E+01  0.12302539036E+02  0.16492614602E+02  0.47000000000E+01 0. -1.
         13    1    6    6    0    0  0.24515213011E+02  0.17194232419E+03  0.29368462996E+02  0.17614671481E+03  0.00000000000E+00 0. -1.
        -14    1    6    6    0    0  0.12764921630E+02  0.25283197415E+02 -0.27409135444E+02  0.39413753964E+02  0.00000000000E+00 0.  1.
         -5    1    5    5    0  502 -0.72204193265E+02  0.40726160875E+03  0.14272760971E+02  0.41388557016E+03  0.47000000000E+01 0.  1.
</event>
<event>
12    1  0.9749377E-001  0.7481014E+03  0.7818608E-02  0.9638334E-01
         21   -1    0    0  503  502  0.00000000000E+00  0.00000000000E+00  0.85013900651E+03  0.85013900651E+03  0.00000000000E+00 0.  1.
         21   -1    0    0  501  503 -0.00000000000E+00 -0.00000000000E+00 -0.77046129362E+03  0.77046129362E+03  0.00000000000E+00 0. -1.
          6    2    1    2  501    0 -0.61122236547E+01  0.73178189272E+03  0.34034925657E+03  0.82507303353E+03  0.17136451332E+03 0.  0.
         24    2    3    3    0    0  0.38550940866E+02  0.65500049323E+03  0.31825713887E+03  0.73341970170E+03  0.78134699206E+02 0.  0.
         -6    2    1    2    0  502  0.61122236547E+01 -0.73178189272E+03 -0.26067154368E+03  0.79552726659E+03  0.17138226400E+03 0.  0.
        -24    2    5    5    0    0  0.49393810624E+02 -0.31342455616E+03 -0.14333661733E+03  0.35885149240E+03  0.86915515288E+02 0.  0.
         12    1    4    4    0    0  0.62663207198E+02  0.45081415847E+03  0.22161270013E+03  0.50623341640E+03  0.00000000000E+00 0. -1.
        -11    1    4    4    0    0 -0.24112266332E+02  0.20418633476E+03  0.96644438740E+02  0.22718628530E+03  0.00000000000E+00 0.  1.
          5    1    3    3  501    0 -0.44663164521E+02  0.76781399487E+02  0.22092117700E+02  0.91653331836E+02  0.47000000000E+01 0. -1.
         11    1    6    6    0    0  0.66223114903E+02 -0.28709135676E+03 -0.14322924523E+03  0.32759970202E+03  0.00000000000E+00 0. -1.
        -12    1    6    6    0    0 -0.16829304279E+02 -0.26333199396E+02 -0.10737209791E+00  0.31251790376E+02  0.00000000000E+00 0.  1.
         -5    1    5    5    0  502 -0.43281586969E+02 -0.41835733656E+03 -0.11733492635E+03  0.43667577419E+03  0.47000000000E+01 0.  1.
</event>
<event>
12    1  0.9749377E-001  0.3226742E+03  0.7818608E-02  0.1074425E+00
         21   -1    0    0  503  502  0.00000000000E+00  0.00000000000E+00  0.12221418147E+04  0.12221418147E+04  0.00000000000E+00 0. -1.
         21   -1    0    0  501  503 -0.00000000000E+00 -0.00000000000E+00 -0.49241347840E+03  0.49241347840E+03  0.00000000000E+00 0.  1.
          6    2    1    2  501    0  0.30000062663E+03 -0.50963135989E+01  0.11333694197E+04  0.11829225171E+04  0.15733115267E+03 0.  0.
         24    2    3    3    0    0  0.19755765724E+03  0.35012205927E+02  0.58522500912E+03  0.62382714049E+03  0.80106849975E+02 0.  0.
         -6    2    1    2    0  502 -0.30000062663E+03  0.50963135989E+01 -0.40364108341E+03  0.53163277598E+03  0.17228155994E+03 0.  0.
        -24    2    5    5    0    0 -0.10412277100E+03 -0.46417315599E+02 -0.20645011843E+03  0.24891709728E+03  0.79636369134E+02 0.  0.
         12    1    4    4    0    0  0.56978073478E+02  0.36343640978E+02  0.27584305166E+03  0.28400132085E+03  0.00000000000E+00 0. -1.
        -11    1    4    4    0    0  0.14057958376E+03 -0.13314350514E+01  0.30938195747E+03  0.33982581964E+03  0.00000000000E+00 0.  1.
          5    1    3    3  501    0  0.10244296939E+03 -0.40108519526E+02  0.54814441058E+03  0.55909537663E+03  0.47000000000E+01 0. -1.
         11    1    6    6    0    0  0.36082972812E+01  0.41196972092E+01 -0.59853807774E+02  0.60103826995E+02  0.00000000000E+00 0. -1.
        -12    1    6    6    0    0 -0.10773106828E+03 -0.50537012808E+02 -0.14659631066E+03  0.18881327028E+03  0.00000000000E+00 0.  1.
         -5    1    5    5    0  502 -0.19587785562E+03  0.51513629198E+02 -0.19719096497E+03  0.28271567870E+03  0.47000000000E+01 0.  1.
</event>
<event>
12    1  0.9749377E-001  0.5079469E+03  0.7818608E-02  0.1011725E+00
         21   -1    0    0  501  502  0.00000000000E+00  0.00000000000E+00  0.28120020763E+03  0.28120020763E+03  0.00000000000E+00 0. -1.
         21   -1    0    0  502  503 -0.00000000000E+00 -0.00000000000E+00 -0.99040075677E+03  0.99040075677E+03  0.00000000000E+00 0.  1.
         -6    2    1    2    0  503  0.15851737594E+03 -0.47038741168E+03 -0.41720372073E+03  0.67074760680E+03  0.17161390357E+03 0.  0.
        -24    2    3    3    0    0  0.14545748821E+03 -0.40263754699E+03 -0.41502155450E+03  0.60155615731E+03  0.79699715080E+02 0.  0.
          6    2    1    2  501    0 -0.15851737594E+03  0.47038741168E+03 -0.29199682841E+03  0.60085335759E+03  0.17137833582E+03 0.  0.
         24    2    5    5    0    0 -0.81141877255E+02  0.19643619206E+03 -0.63787548228E+02  0.23597282360E+03  0.80269174485E+02 0.  0.
         14    1    6    6    0    0  0.27114637105E+01  0.95295113850E+02 -0.34360406930E+02  0.10133680636E+03  0.00000000000E+00 0. -1.
        -13    1    6    6    0    0 -0.83853340965E+02  0.10114107821E+03 -0.29427141299E+02  0.13463601724E+03  0.00000000000E+00 0.  1.
          5    1    5    5  501    0 -0.77375498690E+02  0.27395121961E+03 -0.22820928018E+03  0.36488053399E+03  0.47000000000E+01 0. -1.
         13    1    4    4    0    0  0.65061736459E+02 -0.28824650526E+03 -0.28896418298E+03  0.41330300796E+03  0.00000000000E+00 0. -1.
        -14    1    4    4    0    0  0.80395751747E+02 -0.11439104173E+03 -0.12605737152E+03  0.18825314936E+03  0.00000000000E+00 0.  1.
         -5    1    3    3    0  503  0.13059887738E+02 -0.67749864687E+02 -0.21821662351E+01  0.69191449489E+02  0.47000000000E+01 0.  1.
</event>
<event>
12    1  0.9749377E-001  0.6692194E+03  0.7818608E-02  0.9771369E-01
         21   -1    0    0  503  502  0.00000000000E+00  0.00000000000E+00  0.24036476061E+03  0.24036476061E+03  0.00000000000E+00 0.  1.
         21   -1    0    0  501  503 -0.00000000000E+00 -0.00000000000E+00 -0.20608129367E+04  0.20608129367E+04  0.00000000000E+00 0. -1.
          6    2    1    2  501    0  0.11876252842E+02 -0.65372096240E+03 -0.59002551377E+03  0.89773504283E+03  0.17408606536E+03 0.  0.
         24    2    3    3    0    0 -0.35307242711E+02 -0.55536716000E+03 -0.44877547322E+03  0.71920376642E+03  0.78583385492E+02 0.  0.
         -6    2    1    2    0  502 -0.11876252842E+02  0.65372096240E+03 -0.12304226623E+04  0.14034426545E+04  0.16798575655E+03 0.  0.
        -24    2    5    5    0    0  0.35066403635E+02  0.26532077697E+03 -0.59136430418E+03  0.65412563736E+03  0.80894016084E+02 0.  0.
         14    1    4    4    0    0  0.11757602747E+02 -0.14936542704E+03 -0.86289279404E+02  0.17289913752E+03  0.00000000000E+00 0. -1.
        -13    1    4    4    0    0 -0.47064845459E+02 -0.40600173296E+03 -0.36248619382E+03  0.54630462890E+03  0.00000000000E+00 0.  1.
          5    1    3    3  501    0  0.47183495553E+02 -0.98353802401E+02 -0.14125004055E+03  0.17853127640E+03  0.47000000000E+01 0. -1.
         13    1    6    6    0    0 -0.20586460425E+02  0.14994792657E+03 -0.31003921630E+03  0.34501086748E+03  0.00000000000E+00 0. -1.
        -14    1    6    6    0    0  0.55652864060E+02  0.11537285040E+03 -0.28132508788E+03  0.30911476988E+03  0.00000000000E+00 0.  1.
         -5    1    5    5    0  502 -0.46942656477E+02  0.38840018543E+03 -0.63905835816E+03  0.74931701714E+03  0.47000000000E+01 0.  1.
</event>
<event>
12    1  0.1445866E+000  0.5874372E+03  0.7818608E-02  0.9931818E-01
         21   -1    0    0  501  502  0.00000000000E+00  0.00000000000E+00  0.31941690535E+03  0.31941690535E+03  0.00000000000E+00 0.  1.
         21   -1    0    0  502  503 -0.00000000000E+00 -0.00000000000E+00 -0.11286322575E+04  0.11286322575E+04  0.00000000000E+00 0. -1.
         -6    2    1    2    0  503 -0.22808499652E+03 -0.52712363529E+03 -0.44289597934E+03  0.74537871495E+03  0.17190255282E+03 0.  0.
        -24    2    3    3    0    0 -0.16470962772E+03 -0.22169530737E+03 -0.22029238648E+03  0.36213290555E+03  0.79582881128E+02 0.  0.
          6    2    1    2  501    0  0.22808499652E+03  0.52712363529E+03 -0.36631937278E+03  0.70267044786E+03  0.17226079913E+03 0.  0.
         24    2    5    5    0    0  0.93092086810E+02  0.30849558194E+03 -0.27210517542E+03  0.42895578556E+03  0.78269909696E+02 0.  0.
         14    1    6    6    0    0  0.93550989835E+02  0.30935219857E+03 -0.25460737996E+03  0.41143102507E+03  0.00000000000E+00 0. -1.
        -13    1    6    6    0    0 -0.45890302504E+00 -0.85661662601E+00 -0.17497795464E+02  0.17524760487E+02  0.00000000000E+00 0.  1.
          5    1    5    5  501    0  0.13499290971E+03  0.21862805334E+03 -0.94214197354E+02  0.27371466231E+03  0.47000000000E+01 0. -1.
         11    1    4    4    0    0 -0.18625021073E+02 -0.31617062084E+01  0.41971735969E+00  0.18896136080E+02  0.00000000000E+00 0. -1.
        -12    1    4    4    0    0 -0.14608460665E+03 -0.21853360116E+03 -0.22071210383E+03  0.34323676947E+03  0.00000000000E+00 0.  1.
         -5    1    3    3    0  503 -0.63375368795E+02 -0.30542832792E+03 -0.22260359287E+03  0.38324580940E+03  0.47000000000E+01 0.  1.
</event>
<event>
12    1  0.9749377E-001  0.1988001E+03  0.7818608E-02  0.1150755E+00
         21   -1    0    0  501  502  0.00000000000E+00  0.00000000000E+00  0.10927449233E+03  0.10927449233E+03  0.00000000000E+00 0. -1.
         21   -1    0    0  502  503 -0.00000000000E+00 -0.00000000000E+00 -0.51774556801E+03  0.51774556801E+03  0.00000000000E+00 0.  1.
         -6    2    1    2    0  503  0.11801038504E+02 -0.16034584243E+03 -0.23883773859E+03  0.33631380242E+03  0.17382017901E+03 0.  0.
        -24    2    3    3    0    0 -0.17935096352E+02 -0.13329907897E+03 -0.87490165926E+02  0.17964873650E+03  0.80801158761E+02 0.  0.
          6    2    1    2  501    0 -0.11801038504E+02  0.16034584243E+03 -0.16963333709E+03  0.29070625792E+03  0.17287164501E+03 0.  0.
         24    2    5    5    0    0 -0.53816256878E+02  0.33472477048E+02 -0.90231794571E+02  0.13517869004E+03  0.78197859715E+02 0.  0.
         14    1    6    6    0    0 -0.18071874977E+02  0.23871173762E+02  0.73366648788E+01  0.30826161835E+02  0.00000000000E+00 0. -1.
        -13    1    6    6    0    0 -0.35744381902E+02  0.96013032863E+01 -0.97568459450E+02  0.10435252820E+03  0.00000000000E+00 0.  1.
          5    1    5    5  501    0  0.42015218374E+02  0.12687336538E+03 -0.79401542517E+02  0.15552756789E+03  0.47000000000E+01 0. -1.
         11    1    4    4    0    0 -0.26239395270E+02 -0.36043043477E+01 -0.20140237704E+02  0.33273503704E+02  0.00000000000E+00 0. -1.
        -12    1    4    4    0    0  0.83042989183E+01 -0.12969477462E+03 -0.67349928222E+02  0.14637523280E+03  0.00000000000E+00 0.  1.
         -5    1    3    3    0  503  0.29736134856E+02 -0.27046763463E+02 -0.15134757266E+03  0.15666506592E+03  0.47000000000E+01 0.  1.
</event>
<event>
12    1  0.9749377E-001  0.3298420E+03  0.7818608E-02  0.1071207E+00
         21   -1    0    0  501  502  0.00000000000E+00  0.00000000000E+00  0.11736342860E+04  0.11736342860E+04  0.00000000000E+00 0. -1.
         21   -1    0    0  502  503 -0.00000000000E+00 -0.00000000000E+00 -0.17353782672E+03  0.17353782672E+03  0.00000000000E+00 0.  1.
         -6    2    1    2    0  503 -0.28941278484E+03 -0.11815596578E+03  0.82494248011E+02  0.36284365295E+03  0.16471072598E+03 0.  0.
        -24    2    3    3    0    0 -0.55015621256E+02 -0.41606289471E+02  0.15409557134E+02  0.10725740725E+03  0.80677723405E+02 0.  0.
          6    2    1    2  501    0  0.28941278484E+03  0.11815596578E+03  0.91760221126E+03  0.98432845976E+03  0.17084527008E+03 0.  0.
         24    2    5    5    0    0  0.11858141536E+03  0.31115764918E+01  0.28501474729E+03  0.31904088445E+03  0.80513637322E+02 0.  0.
         14    1    6    6    0    0  0.15328059278E+02 -0.25975066508E+02  0.10731642182E+03  0.11147406817E+03  0.00000000000E+00 0. -1.
        -13    1    6    6    0    0  0.10325335609E+03  0.29086643000E+02  0.17769832547E+03  0.20756681628E+03  0.00000000000E+00 0.  1.
          5    1    5    5  501    0  0.17083136948E+03  0.11504438929E+03  0.63258746396E+03  0.66528757532E+03  0.47000000000E+01 0. -1.
         11    1    4    4    0    0 -0.31902992241E+02 -0.29824512775E+02  0.48463911017E+02  0.65238433053E+02  0.00000000000E+00 0. -1.
        -12    1    4    4    0    0 -0.23112629015E+02 -0.11781776696E+02 -0.33054353883E+02  0.42018974199E+02  0.00000000000E+00 0.  1.
         -5    1    3    3    0  503 -0.23439716359E+03 -0.76549676309E+02  0.67084690877E+02  0.25558624570E+03  0.47000000000E+01 0.  1.
</event>
<event>
12    1  0.9749377E-001  0.2128474E+03  0.7818608E-02  0.1139331E+00
         21   -1    0    0  503  502  0.00000000000E+00  0.00000000000E+00  0.14283072905E+04  0.14283072905E+04  0.00000000000E+00 0. -1.
         21   -1    0    0  501  503 -0.00000000000E+00 -0.00000000000E+00 -0.38892081096E+02  0.38892081096E+02  0.00000000000E+00 0.  1.
          6    2    1    2  501    0 -0.31200256470E+02  0.15019096114E+03  0.54809263506E+03  0.59479198611E+03  0.17274602551E+03 0.  0.
         24    2    3    3    0    0 -0.85751892588E+02  0.11916843121E+03  0.38100770807E+03  0.41624859869E+03  0.80879665070E+02 0.  0.
         -6    2    1    2    0  502  0.31200256470E+02 -0.15019096114E+03  0.84132257438E+03  0.87240738552E+03  0.17245344685E+03 0.  0.
        -24    2    5    5    0    0  0.46221641452E+02 -0.16642596622E+03  0.81773042841E+03  0.83972869601E+03  0.81407536372E+02 0.  0.
         12    1    4    4    0    0 -0.21435774876E+02  0.51891611421E+02  0.24561516032E+03  0.25195046886E+03  0.00000000000E+00 0. -1.
        -11    1    4    4    0    0 -0.64316117712E+02  0.67276819792E+02  0.13539254775E+03  0.16429812983E+03  0.00000000000E+00 0.  1.
          5    1    3    3  501    0  0.54551636118E+02  0.31022529925E+02  0.16708492699E+03  0.17854338743E+03  0.47000000000E+01 0. -1.
         11    1    6    6    0    0  0.23516415851E+02 -0.16657524790E+03  0.72389761032E+03  0.74318778600E+03  0.00000000000E+00 0. -1.
        -12    1    6    6    0    0  0.22705225601E+02  0.14928168514E+00  0.93832818091E+02  0.96540910010E+02  0.00000000000E+00 0.  1.
         -5    1    5    5    0  502 -0.15021384981E+02  0.16235005078E+02  0.23592145968E+02  0.32678689509E+02  0.47000000000E+01 0.  1.
</event>
<event>
12    1  0.9749377E-001  0.4060077E+03  0.7818608E-02  0.1041719E+00
         21   -1    0    0  501  502  0.00000000000E+00  0.00000000000E+00  0.88684415273E+03  0.88684415273E+03  0.00000000000E+00 0.  1.
         21   -1    0    0  502  503 -0.00000000000E+00 -0.00000000000E+00 -0.32447671983E+03  0.32447671983E+03  0.00000000000E+00 0. -1.
         -6    2    1    2    0  503 -0.23324345922E+03 -0.32026254636E+03  0.63953196420E+03  0.77184167063E+03  0.17253353707E+03 0.  0.
        -24    2    3    3    0    0 -0.23057570319E+03 -0.30977956667E+03  0.64713604809E+03  0.75780878506E+03  0.79753088585E+02 0.  0.
          6    2    1    2  501    0  0.23324345922E+03  0.32026254636E+03 -0.77164531291E+02  0.43947920193E+03  0.17383036032E+03 0.  0.
         24    2    5    5    0    0  0.32686093024E+02  0.10563387352E+03 -0.59706382887E+00  0.13587849143E+03  0.78966524784E+02 0.  0.
         12    1    6    6    0    0  0.16816253317E+02  0.84594236646E+02 -0.34537817670E+02  0.92907653607E+02  0.00000000000E+00 0. -1.
        -11    1    6    6    0    0  0.15869839707E+02  0.21039636877E+02  0.33940753841E+02  0.42970837827E+02  0.00000000000E+00 0.  1.
          5    1    5    5  501    0  0.20055736620E+03  0.21462867284E+03 -0.76567467463E+02  0.30360071050E+03  0.47000000000E+01 0. -1.
         13    1    4    4    0    0 -0.48371782095E+02 -0.12632729446E+03  0.20459178655E+03  0.24526763698E+03  0.00000000000E+00 0. -1.
        -14    1    4    4    0    0 -0.18220392110E+03 -0.18345227221E+03  0.44254426154E+03  0.51254114807E+03  0.00000000000E+00 0.  1.
         -5    1    3    3    0  503 -0.26677560271E+01 -0.10482979694E+02 -0.76040838970E+01  0.14032885569E+02  0.47000000000E+01 0.  1.
</event>
<event>
12    1  0.9749377E-001  0.5056665E+03  0.7818608E-02  0.1012310E+00
         21   -1    0    0  503  502  0.00000000000E+00  0.00000000000E+00  0.23965952265E+03  0.23965952265E+03  0.00000000000E+00 0. -1.
         21   -1    0    0  501  503 -0.00000000000E+00 -0.00000000000E+00 -0.17040622545E+04  0.17040622545E+04  0.00000000000E+00 0.  1.
          6    2    1    2  501    0  0.43977767949E+03  0.22382564307E+03 -0.12915507044E+04  0.13933003663E+04  0.17227989660E+03 0.  0.
         24    2    3    3    0    0  0.36072188572E+03  0.12273976573E+03 -0.87973712958E+03  0.96192966314E+03  0.78650688059E+02 0.  0.
         -6    2    1    2    0  502 -0.43977767949E+03 -0.22382564307E+03 -0.17285202745E+03  0.55042141087E+03  0.17199877986E+03 0.  0.
        -24    2    5    5    0    0 -0.97716440878E+02 -0.55324625990E+02 -0.63235406850E+02  0.15363887946E+03  0.83647304460E+02 0.  0.
         12    1    4    4    0    0  0.32333965424E+03  0.86424345005E+02 -0.79304301140E+03  0.86077576485E+03  0.00000000000E+00 0. -1.
        -11    1    4    4    0    0  0.37382231478E+02  0.36315420721E+02 -0.86694118177E+02  0.10115389829E+03  0.00000000000E+00 0.  1.
          5    1    3    3  501    0  0.79055793770E+02  0.10108587734E+03 -0.41181357481E+03  0.43137070314E+03  0.47000000000E+01 0. -1.
         11    1    6    6    0    0 -0.46018017683E+02 -0.12626377478E+02 -0.71624576854E+02  0.86064878837E+02  0.00000000000E+00 0. -1.
        -12    1    6    6    0    0 -0.51698423195E+02 -0.42698248512E+02  0.83891700041E+01  0.67574000623E+02  0.00000000000E+00 0.  1.
         -5    1    5    5    0  502 -0.34206123861E+03 -0.16850101708E+03 -0.10961662060E+03  0.39678253141E+03  0.47000000000E+01 0.  1.
</event>
<event>
12    1  0.9749377E-001  0.2360795E+03  0.7818608E-02  0.1122432E+00
         21   -1    0    0  501  502  0.00000000000E+00  0.00000000000E+00  0.35025587080E+03  0.35025587080E+03  0.00000000000E+00 0. -1.
         21   -1    0    0  502  503 -0.00000000000E+00 -0.00000000000E+00 -0.17945865579E+03  0.17945865579E+03  0.00000000000E+00 0.  1.
         -6    2    1    2    0  503 -0.16916738265E+03 -0.74502573395E+02  0.94028914599E+02  0.26690510990E+03  0.16801388072E+03 0.  0.
        -24    2    3    3    0    0 -0.12543604582E+02 -0.10719692548E+02  0.40393480170E+02  0.89428030895E+02  0.78060781736E+02 0.  0.
          6    2    1    2  501    0  0.16916738265E+03  0.74502573395E+02  0.76768300407E+02  0.26280941670E+03  0.17031494580E+03 0.  0.
         24    2    5    5    0    0  0.18749165827E+03  0.89199797513E+02  0.52879355133E+02  0.22897808241E+03  0.80777535411E+02 0.  0.
         12    1    6    6    0    0  0.16361614267E+03  0.65257901398E+02  0.71812761025E+02  0.19022594062E+03  0.00000000000E+00 0. -1.
        -11    1    6    6    0    0  0.23875515591E+02  0.23941896115E+02 -0.18933405892E+02  0.38752141786E+02  0.00000000000E+00 0.  1.
          5    1    5    5  501    0 -0.18324275618E+02 -0.14697224118E+02  0.23888945274E+02  0.33831334293E+02  0.47000000000E+01 0. -1.
         13    1    4    4    0    0  0.53776937959E+01 -0.36925437005E+02  0.43751750694E+02  0.57503244929E+02  0.00000000000E+00 0. -1.
        -14    1    4    4    0    0 -0.17921298378E+02  0.26205744457E+02 -0.33582705234E+01  0.31924785966E+02  0.00000000000E+00 0.  1.
         -5    1    3    3    0  503 -0.15662377807E+03 -0.63782880847E+02  0.53635434429E+02  0.17747707900E+03  0.47000000000E+01 0.  1.
</event>
<event>
12    1  0.9749377E-001  0.3918569E+03  0.7818608E-02  0.1046636E+00
         21   -1    0    0  503  502  0.00000000000E+00  0.00000000000E+00  0.15632503004E+04  0.15632503004E+04  0.00000000000E+00 0. -1.
         21   -1    0    0  501  503 -0.00000000000E+00 -0.00000000000E+00 -0.26695810156E+03  0.26695810156E+03  0.00000000000E+00 0.  1.
          6    2    1    2  501    0  0.36553679191E+02 -0.35509218241E+03 -0.74750796582E+02  0.40285897975E+03  0.17111705498E+03 0.  0.
         24    2    3    3    0    0  0.54830480392E+02 -0.12903824790E+03 -0.71239040123E+02  0.17599151800E+03  0.78998497252E+02 0.  0.
         -6    2    1    2    0  502 -0.36553679191E+02  0.35509218241E+03  0.13710429954E+04  0.14273494222E+04  0.17361119874E+03 0.  0.
        -24    2    5    5    0    0  0.53159273062E-01  0.34920581113E+03  0.12654903787E+04  0.13153755195E+04  0.82475192638E+02 0.  0.
         12    1    4    4    0    0  0.60705143717E+02 -0.42481531178E+02 -0.35576954067E+02  0.82191937717E+02  0.00000000000E+00 0. -1.
        -11    1    4    4    0    0 -0.58746633249E+01 -0.86556716721E+02 -0.35662086056E+02  0.93799580279E+02  0.00000000000E+00 0.  1.
          5    1    3    3  501    0 -0.18276801201E+02 -0.22605393451E+03 -0.35117564592E+01  0.22686746175E+03  0.47000000000E+01 0. -1.
         13    1    6    6    0    0 -0.39651783277E+02  0.21770053223E+03  0.79989299527E+03  0.82993649729E+03  0.00000000000E+00 0. -1.
        -14    1    6    6    0    0  0.39704942550E+02  0.13150527890E+03  0.46559738339E+03  0.48543902218E+03  0.00000000000E+00 0.  1.
         -5    1    5    5    0  502 -0.36606838464E+02  0.58863712790E+01  0.10555261675E+03  0.11197390273E+03  0.47000000000E+01 0.  1.
</event>
<event>
12    1  0.9749377E-001  0.3045957E+03  0.7818608E-02  0.1082966E+00
         21   -1    0    0  503  502  0.00000000000E+00  0.00000000000E+00  0.12925081585E+04  0.12925081585E+04  0.00000000000E+00 0.  1.
         21   -1    0    0  501  503 -0.00000000000E+00 -0.00000000000E+00 -0.10747451312E+03  0.10747451312E+03  0.00000000000E+00 0. -1.
          6    2    1    2  501    0  0.27782177093E+03  0.69979952390E+02  0.90283279440E+03  0.96277211530E+03  0.17245567899E+03 0.  0.
         24    2    3    3    0    0  0.17601795313E+03  0.10033739790E+03  0.48870186233E+03  0.53520678612E+03  0.81036290793E+02 0.  0.
         -6    2    1    2    0  502 -0.27782177093E+03 -0.69979952390E+02  0.28220085095E+03  0.43721055629E+03  0.17156229222E+03 0.  0.
        -24    2    5    5    0    0 -0.23830681999E+03 -0.53979384918E+02  0.29732381156E+03  0.39173261168E+03  0.73137375423E+02 0.  0.
         12    1    4    4    0    0  0.16603605445E+03  0.10483122067E+03  0.48564638167E+03  0.52384154497E+03  0.00000000000E+00 0. -1.
        -11    1    4    4    0    0  0.99818986868E+01 -0.44938227681E+01  0.30554806567E+01  0.11365241155E+02  0.00000000000E+00 0.  1.
          5    1    3    3  501    0  0.10180381780E+03 -0.30357445512E+02  0.41413093207E+03  0.42756532918E+03  0.47000000000E+01 0. -1.
         13    1    6    6    0    0 -0.17925623330E+02 -0.24432859831E+02  0.55410548879E+02  0.63155534503E+02  0.00000000000E+00 0. -1.
        -14    1    6    6    0    0 -0.22038119666E+03 -0.29546525087E+02  0.24191326269E+03  0.32857707718E+03  0.00000000000E+00 0.  1.
         -5    1    5    5    0  502 -0.39514950946E+02 -0.16000567472E+02 -0.15122960614E+02  0.45477944605E+02  0.47000000000E+01 0.  1.
</event>
<event>
12    1  0.1617265E+000  0.1102301E+04  0.7818608E-02  0.9202953E-01
         21   -1    0    0  503  502  0.00000000000E+00  0.00000000000E+00  0.93400657539E+03  0.93400657539E+03  0.00000000000E+00 0.  1.
         21   -1    0    0  501  503 -0.00000000000E+00 -0.00000000000E+00 -0.14129576681E+04  0.14129576681E+04  0.00000000000E+00 0. -1.
          6    2    1    2  501    0 -0.51443111976E+02 -0.10960864645E+04  0.61566561917E+02  0.11125054531E+04  0.17270208553E+03 0.  0.
         24    2    3    3    0    0 -0.84016314977E+02 -0.73176337191E+03 -0.37469796385E+01  0.74091390582E+03  0.80018762353E+02 0.  0.
         -6    2    1    2    0  502  0.51443111976E+02  0.10960864645E+04 -0.54051765460E+03  0.12344587903E+04  0.16636477594E+03 0.  0.
        -24    2    5    5    0    0  0.27315297517E+02  0.29650678585E+03 -0.12056919037E+03  0.33097186927E+03  0.79643261133E+02 0.  0.
         14    1    4    4    0    0 -0.50878256289E+02 -0.65783552843E+03 -0.69247211705E+01  0.65983644276E+03  0.00000000000E+00 0. -1.
        -13    1    4    4    0    0 -0.33138058688E+02 -0.73927843478E+02  0.31777415321E+01  0.81077463059E+02  0.00000000000E+00 0.  1.
          5    1    3    3  501    0  0.32573203001E+02 -0.36432309257E+03  0.65313541555E+02  0.37159154733E+03  0.47000000000E+01 0. -1.
         11    1    6    6    0    0  0.10461726073E+02  0.17983218722E+03 -0.30691375770E+02  0.18273210944E+03  0.00000000000E+00 0. -1.
        -12    1    6    6    0    0  0.16853571443E+02  0.11667459863E+03 -0.89877814603E+02  0.14823975983E+03  0.00000000000E+00 0.  1.
         -5    1    5    5    0  502  0.24127814459E+02  0.79957967863E+03 -0.41994846423E+03  0.90348692105E+03  0.47000000000E+01 0.  1.
</event>
<event>
12    1  0.9749377E-001  0.2234506E+03  0.7818608E-02  0.1131336E+00
         21   -1    0    0  503  502  0.00000000000E+00  0.00000000000E+00  0.53357847088E+03  0.53357847088E+03  0.00000000000E+00 0. -1.
         21   -1    0    0  501  503 -0.00000000000E+00 -0.00000000000E+00 -0.10190160913E+03  0.10190160913E+03  0.00000000000E+00 0.  1.
          6    2    1    2  501    0 -0.10813716488E+03  0.11478040040E+03  0.22024494884E+03  0.32123205270E+03  0.17266733174E+03 0.  0.
         24    2    3    3    0    0 -0.50325756969E+02  0.13742102525E+03  0.18753033535E+03  0.25089648053E+03  0.79775919105E+02 0.  0.
         -6    2    1    2    0  502  0.10813716488E+03 -0.11478040040E+03  0.21143191291E+03  0.31424802731E+03  0.17082207739E+03 0.  0.
        -24    2    5    5    0    0  0.11650709124E+03 -0.13623662104E+03  0.21425035194E+03  0.29057401899E+03  0.79973295437E+02 0.  0.
         12    1    4    4    0    0  0.27200627888E+01  0.10080864927E+03  0.12977845937E+03  0.16435398086E+03  0.00000000000E+00 0. -1.
        -11    1    4    4    0    0 -0.53045819758E+02  0.36612375976E+02  0.57751875979E+02  0.86542499661E+02  0.00000000000E+00 0.  1.
          5    1    3    3  501    0 -0.57811407909E+02 -0.22640624847E+02  0.32714613491E+02  0.70335572179E+02  0.47000000000E+01 0. -1.
         13    1    6    6    0    0  0.82771310537E+02 -0.13921738564E+03  0.16934839603E+03  0.23433192175E+03  0.00000000000E+00 0. -1.
        -14    1    6    6    0    0  0.33735780704E+02  0.29807646025E+01  0.44901955904E+02  0.56242097235E+02  0.00000000000E+00 0.  1.
         -5    1    5    5    0  502 -0.83699263630E+01  0.21456220637E+02 -0.28184390271E+01  0.23674008319E+02  0.47000000000E+01 0.  1.
</event>
<event>
12    1  0.9749377E-001  0.7981902E+03  0.7818608E-02  0.9562640E-01
         21   -1    0    0  501  502  0.00000000000E+00  0.00000000000E+00  0.59632134491E+03  0.59632134491E+03  0.00000000000E+00 0.  1.
         21   -1    0    0  502  503 -0.00000000000E+00 -0.00000000000E+00 -0.11439569634E+04  0.11439569634E+04  0.00000000000E+00 0. -1.
         -6    2    1    2    0  503  0.31877338659E+03 -0.72156295917E+03 -0.95611061488E+02  0.81327271700E+03  0.17320929853E+03 0.  0.
        -24    2    3    3    0    0  0.15138021120E+03 -0.31874518968E+03 -0.10474574409E+03  0.37693779631E+03  0.81215559465E+02 0.  0.
          6    2    1    2  501    0 -0.31877338659E+03  0.72156295917E+03 -0.45202455699E+03  0.92700559129E+03  0.18095189998E+03 0.  0.
         24    2    5    5    0    0 -0.33042728938E+03  0.69765420767E+03 -0.45510646862E+03  0.89982048456E+03  0.81556235800E+02 0.  0.
         14    1    6    6    0    0 -0.24326310665E+03  0.43907647485E+03 -0.26869636420E+03  0.56935298889E+03  0.00000000000E+00 0. -1.
        -13    1    6    6    0    0 -0.87164182733E+02  0.25857773282E+03 -0.18641010442E+03  0.33046749567E+03  0.00000000000E+00 0.  1.
          5    1    5    5  501    0  0.11653902790E+02  0.23908751497E+02  0.30819116318E+01  0.27185106726E+02  0.47000000000E+01 0. -1.
         13    1    4    4    0    0  0.12392659058E+03 -0.30124395153E+03 -0.78361572612E+02  0.33503172126E+03  0.00000000000E+00 0. -1.
        -14    1    4    4    0    0  0.27453620625E+02 -0.17501238143E+02 -0.26384171476E+02  0.41906075053E+02  0.00000000000E+00 0.  1.
         -5    1    3    3    0  503  0.16739317539E+03 -0.40281776950E+03  0.91346825991E+01  0.43633492069E+03  0.47000000000E+01 0.  1.
</event>
<event>
12    1  0.9749377E-001  0.3269393E+03  0.7818608E-02  0.1072499E+00
         21   -1    0    0  501  502  0.00000000000E+00  0.00000000000E+00  0.36644770122E+03  0.36644770122E+03  0.00000000000E+00 0.  1.
         21   -1    0    0  502  503 -0.00000000000E+00 -0.00000000000E+00 -0.39622938815E+03  0.39622938815E+03  0.00000000000E+00 0. -1.
         -6    2    1    2    0  503 -0.27436735170E+03  0.13276964009E+03  0.13494305100E+03  0.37655819450E+03  0.17516057153E+03 0.  0.
        -24    2    3    3    0    0 -0.12337913881E+03  0.97492444744E+02  0.97997320049E+01  0.17724722833E+03  0.81199486006E+02 0.  0.
          6    2    1    2  501    0  0.27436735170E+03 -0.13276964009E+03 -0.16472473794E+03  0.38611889487E+03  0.17043573768E+03 0.  0.
         24    2    5    5    0    0  0.15056166675E+03 -0.30866473945E+02 -0.14155065905E+03  0.22403487089E+03  0.80829942408E+02 0.  0.
         12    1    6    6    0    0 -0.54983798255E+01  0.78566227207E+01  0.33013579609E+00  0.95951910312E+01  0.00000000000E+00 0. -1.
        -11    1    6    6    0    0  0.15606004658E+03 -0.38723096665E+02 -0.14188079485E+03  0.21443967986E+03  0.00000000000E+00 0.  1.
          5    1    5    5  501    0  0.12380568495E+03 -0.10190316615E+03 -0.23174078885E+02  0.16208402398E+03  0.47000000000E+01 0. -1.
         11    1    4    4    0    0  0.56722347545E+01  0.11651038112E+02 -0.15499085931E+02  0.20202539466E+02  0.00000000000E+00 0. -1.
        -12    1    4    4    0    0 -0.12905137356E+03  0.85841406632E+02  0.25298817936E+02  0.15704468886E+03  0.00000000000E+00 0.  1.
         -5    1    3    3    0  503 -0.15098821290E+03  0.35277195348E+02  0.12514331900E+03  0.19931096617E+03  0.47000000000E+01 0.  1.
</event>
<event>
12    1  0.9749377E-001  0.2199698E+03  0.7818608E-02  0.1133906E+00
         21   -1    0    0  503  502  0.00000000000E+00  0.00000000000E+00  0.91336001417E+02  0.91336001417E+02  0.00000000000E+00 0.  1.
         21   -1    0    0  501  503 -0.00000000000E+00 -0.00000000000E+00 -0.77584962199E+03  0.77584962199E+03  0.00000000000E+00 0. -1.
          6    2    1    2  501    0  0.57363733374E+02 -0.18114483431E+03 -0.21349711419E+03  0.33093087161E+03  0.16682378463E+03 0.  0.
         24    2    3    3    0    0  0.90004368568E+02 -0.10976208670E+03 -0.96040338846E+02  0.18958345637E+03  0.81053304725E+02 0.  0.
         -6    2    1    2    0  502 -0.57363733374E+02  0.18114483431E+03 -0.47101650639E+03  0.53625475180E+03  0.17207138236E+03 0.  0.
        -24    2    5    5    0    0 -0.13354210566E+02  0.96613154151E+02 -0.39407253688E+03  0.41367862242E+03  0.79526107864E+02 0.  0.
         12    1    4    4    0    0  0.68282195369E+02 -0.12058678425E+03 -0.75628483303E+02  0.15787114438E+03  0.00000000000E+00 0. -1.
        -11    1    4    4    0    0  0.21722173198E+02  0.10824697549E+02 -0.20411855543E+02  0.31712311997E+02  0.00000000000E+00 0.  1.
          5    1    3    3  501    0 -0.32640635194E+02 -0.71382747608E+02 -0.11745677534E+03  0.14134741524E+03  0.47000000000E+01 0. -1.
         13    1    6    6    0    0 -0.15568871559E+02  0.15739088999E+02 -0.16699478428E+02  0.27730511425E+02  0.00000000000E+00 0. -1.
        -14    1    6    6    0    0  0.22146609930E+01  0.80874065152E+02 -0.37737305845E+03  0.38594811100E+03  0.00000000000E+00 0.  1.
         -5    1    5    5    0  502 -0.44009522808E+02  0.84531680158E+02 -0.76943969511E+02  0.12257612937E+03  0.47000000000E+01 0.  1.
</event>
<event>
12    1  0.9749377E-001  0.4599613E+03  0.7818608E-02  0.1024792E+00
         21   -1    0    0  503  502  0.00000000000E+00  0.00000000000E+00  0.28464958288E+03  0.28464958288E+03  0.00000000000E+00 0.  1.
         21   -1    0    0  501  503 -0.00000000000E+00 -0.00000000000E+00 -0.78819144429E+03  0.78819144429E+03  0.00000000000E+00 0. -1.
          6    2    1    2  501    0  0.23100083559E+03  0.37430854263E+03 -0.21120772497E+03  0.51745455592E+03  0.17228535409E+03 0.  0.
         24    2    3    3    0    0  0.41324613890E+02  0.11816468775E+03 -0.27813621266E+02  0.14970160795E+03  0.77242195405E+02 0.  0.
         -6    2    1    2    0  502 -0.23100083559E+03 -0.37430854263E+03 -0.29233413644E+03  0.55538647124E+03  0.17183309920E+03 0.  0.
        -24    2    5    5    0    0 -0.70288226418E+02 -0.76534739574E+02 -0.11301799567E+03  0.17240585963E+03  0.78439224587E+02 0.  0.
         12    1    4    4    0    0  0.49676130109E+02  0.11494118657E+03 -0.51369685238E+01  0.12532191635E+03  0.00000000000E+00 0. -1.
        -11    1    4    4    0    0 -0.83515162188E+01  0.32235011850E+01 -0.22676652742E+02  0.24379691603E+02  0.00000000000E+00 0.  1.
          5    1    3    3  501    0  0.18967622170E+03  0.25614385487E+03 -0.18339410370E+03  0.36775294797E+03  0.47000000000E+01 0. -1.
         11    1    6    6    0    0 -0.75437085280E+02 -0.29074429940E+02 -0.83771841569E+02  0.11642077887E+03  0.00000000000E+00 0. -1.
        -12    1    6    6    0    0  0.51488588617E+01 -0.47460309634E+02 -0.29246154101E+02  0.55985080761E+02  0.00000000000E+00 0.  1.
         -5    1    5    5    0  502 -0.16071260917E+03 -0.29777380305E+03 -0.17931614077E+03  0.38298061162E+03  0.47000000000E+01 0.  1.
</event>
<event>
12    1  0.9749377E-001  0.3627139E+03  0.7818608E-02  0.1057514E+00
         21   -1    0    0  503  502  0.00000000000E+00  0.00000000000E+00  0.84388640280E+02  0.84388640280E+02  0.00000000000E+00 0.  1.
         21   -1    0    0  501  503 -0.00000000000E+00 -0.00000000000E+00 -0.16784873313E+04  0.16784873313E+04  0.00000000000E+00 0. -1.
          6    2    1    2  501    0 -0.32262487780E+03  0.97033342040E+02 -0.85959451617E+03  0.93909342479E+03  0.17173073985E+03 0.  0.
         24    2    3    3    0    0 -0.24998511678E+03  0.11477096571E+03 -0.77466712323E+03  0.82584188950E+03  0.78998363601E+02 0.  0.
         -6    2    1    2    0  502  0.32262487780E+03 -0.97033342040E+02 -0.73450417484E+03  0.82378254678E+03  0.16005942735E+03 0.  0.
        -24    2    5    5    0    0  0.66206104623E+02 -0.32840344816E+02 -0.20512316668E+03  0.23205822758E+03  0.79459240768E+02 0.  0.
         14    1    4    4    0    0 -0.15716522959E+03  0.10658203988E+03 -0.45962350262E+03  0.49730715336E+03  0.00000000000E+00 0. -1.
        -13    1    4    4    0    0 -0.92819887183E+02  0.81889258284E+01 -0.31504362061E+03  0.32853473614E+03  0.00000000000E+00 0.  1.
          5    1    3    3  501    0 -0.72639761022E+02 -0.17737623669E+02 -0.84927392938E+02  0.11325153529E+03  0.47000000000E+01 0. -1.
         11    1    6    6    0    0  0.77790859642E+02 -0.11313020269E+02 -0.18266623416E+03  0.19886265455E+03  0.00000000000E+00 0. -1.
        -12    1    6    6    0    0 -0.11584755018E+02 -0.21527324547E+02 -0.22456932518E+02  0.33195573035E+02  0.00000000000E+00 0.  1.
         -5    1    5    5    0  502  0.25641877317E+03 -0.64192997224E+02 -0.52938100816E+03  0.59172431920E+03  0.47000000000E+01 0.  1.
</event>
<event>
12    1  0.9749377E-001  0.5989440E+03  0.7818608E-02  0.9907599E-01
         21   -1    0    0  501  502  0.00000000000E+00  0.00000000000E+00  0.12215809043E+04  0.12215809043E+04  0.00000000000E+00 0. -1.
         21   -1    0    0  502  503 -0.00000000000E+00 -0.00000000000E+00 -0.30907026018E+03  0.30907026018E+03  0.00000000000E+00 0.  1.
         -6    2    1    2    0  503 -0.31126603221E+03  0.49367547232E+03  0.56448373809E+03  0.82985010441E+03  0.17148554003E+03 0.  0.
        -24    2    3    3    0    0 -0.12073693275E+03  0.31742117408E+03  0.33239179120E+03  0.48163224559E+03  0.78432827636E+02 0.  0.
          6    2    1    2  501    0  0.31126603221E+03 -0.49367547232E+03  0.34802690605E+03  0.70080106009E+03  0.17145665257E+03 0.  0.
         24    2    5    5    0    0  0.16450670868E+03 -0.18123923397E+03  0.19695863550E+03  0.32397429028E+03  0.79098163922E+02 0.  0.
         14    1    6    6    0    0  0.87978483794E+02 -0.49951602651E+02  0.51120842036E+02  0.11335217999E+03  0.00000000000E+00 0. -1.
        -13    1    6    6    0    0  0.76528224883E+02 -0.13128763132E+03  0.14583779346E+03  0.21062211029E+03  0.00000000000E+00 0.  1.
          5    1    5    5  501    0  0.14675932353E+03 -0.31243623835E+03  0.15106827055E+03  0.37682676980E+03  0.47000000000E+01 0. -1.
         13    1    4    4    0    0 -0.11083072104E+03  0.27763222318E+03  0.25037501365E+03  0.38993685070E+03  0.00000000000E+00 0. -1.
        -14    1    4    4    0    0 -0.99062117076E+01  0.39788950901E+02  0.82016777553E+02  0.91695394892E+02  0.00000000000E+00 0.  1.
         -5    1    3    3    0  503 -0.19052909946E+03  0.17625429824E+03  0.23209194689E+03  0.34821785882E+03  0.47000000000E+01 0.  1.
</event>
<event>
12    1  0.9749377E-001  0.2241744E+03  0.7818608E-02  0.1130809E+00
         21   -1    0    0  501  502  0.00000000000E+00  0.00000000000E+00  0.16752802489E+03  0.16752802489E+03  0.00000000000E+00 0. -1.
         21   -1    0    0  502  503 -0.00000000000E+00 -0.00000000000E+00 -0.48006412255E+03  0.48006412255E+03  0.00000000000E+00 0.  1.
         -6    2    1    2    0  503  0.12521865143E+03  0.11948587092E+03  0.96765163104E+01  0.24324335573E+03  0.17063736731E+03 0.  0.
        -24    2    3    3    0    0  0.15635940168E+03  0.99330485933E+02  0.24610017244E+02  0.20298065189E+03  0.79250767595E+02 0.  0.
          6    2    1    2  501    0 -0.12521865143E+03 -0.11948587092E+03 -0.32221261397E+03  0.40434879171E+03  0.17239603457E+03 0.  0.
         24    2    5    5    0    0 -0.13281724029E+03 -0.14603691646E+03 -0.30179999366E+03  0.36968668503E+03  0.81349914703E+02 0.  0.
         14    1    6    6    0    0 -0.21823615366E+02 -0.30212215098E+02 -0.12733968089E+03  0.13268173370E+03  0.00000000000E+00 0. -1.
        -13    1    6    6    0    0 -0.11099362493E+03 -0.11582470136E+03 -0.17446031278E+03  0.23700495133E+03  0.00000000000E+00 0.  1.
          5    1    5    5  501    0  0.75985888585E+01  0.26551045538E+02 -0.20412620305E+02  0.34662106681E+02  0.47000000000E+01 0. -1.
         11    1    4    4    0    0  0.60342452123E+02  0.37215994960E+02  0.48833002912E+02  0.86086607451E+02  0.00000000000E+00 0. -1.
        -12    1    4    4    0    0  0.96016949558E+02  0.62114490973E+02 -0.24222985668E+02  0.11689404444E+03  0.00000000000E+00 0.  1.
         -5    1    3    3    0  503 -0.31140750247E+02  0.20155384989E+02 -0.14933500934E+02  0.40262703835E+02  0.47000000000E+01 0.  1.
</event>
<event>
12    1  0.9749377E-001  0.5008855E+03  0.7818608E-02  0.1013548E+00
         21   -1    0    0  501  502  0.00000000000E+00  0.00000000000E+00  0.69235626387E+03  0.69235626387E+03  0.00000000000E+00 0.  1.
         21   -1    0    0  502  503 -0.00000000000E+00 -0.00000000000E+00 -0.40041993376E+03  0.40041993376E+03  0.00000000000E+00 0. -1.
         -6    2    1    2    0  503 -0.48880127205E+03 -0.72457215903E+02  0.20257572787E+03  0.56079419135E+03  0.17110367569E+03 0.  0.
        -24    2    3    3    0    0 -0.41191224002E+03 -0.67281762022E+02  0.10749561144E+03  0.43831551112E+03  0.79791301725E+02 0.  0.
          6    2    1    2  501    0  0.48880127205E+03  0.72457215903E+02  0.89360602237E+02  0.53198200628E+03  0.17562120055E+03 0.  0.
         24    2    5    5    0    0  0.34428460268E+03  0.23847884131E+02  0.12454065316E+03  0.37543277810E+03  0.79616501845E+02 0.  0.
         14    1    6    6    0    0  0.23565406282E+02  0.22840966407E+02  0.51975151028E+01  0.33227282208E+02  0.00000000000E+00 0. -1.
        -13    1    6    6    0    0  0.32071919639E+03  0.10069177240E+01  0.11934313805E+03  0.34220549589E+03  0.00000000000E+00 0.  1.
          5    1    5    5  501    0  0.14451666937E+03  0.48609331773E+02 -0.35180050919E+02  0.15654922818E+03  0.47000000000E+01 0. -1.
         13    1    4    4    0    0 -0.42496813929E+02 -0.16516112153E+02 -0.11280624939E+02  0.46968219615E+02  0.00000000000E+00 0. -1.
        -14    1    4    4    0    0 -0.36941542609E+03 -0.50765649869E+02  0.11877623638E+03  0.39134729150E+03  0.00000000000E+00 0.  1.
         -5    1    3    3    0  503 -0.76889032029E+02 -0.51754538818E+01  0.95080116435E+02  0.12247868023E+03  0.47000000000E+01 0.  1.
</event>
<event>
12    1  0.9749377E-001  0.9983374E+03  0.7818608E-02  0.9310370E-01
         21   -1    0    0  503  502  0.00000000000E+00  0.00000000000E+00  0.17633393803E+04  0.17633393803E+04  0.00000000000E+00 0. -1.
         21   -1    0    0  501  503 -0.00000000000E+00 -0.00000000000E+00 -0.74650720677E+03  0.74650720677E+03  0.00000000000E+00 0.  1.
          6    2    1    2  501    0  0.92335536138E+03 -0.37467592068E+03  0.11012190424E+04  0.14949845135E+04  0.17125462683E+03 0.  0.
         24    2    3    3    0    0  0.78593995950E+03 -0.30810446859E+03  0.10031646808E+04  0.13134590367E+04  0.78773603495E+02 0.  0.
         -6    2    1    2    0  502 -0.92335536138E+03  0.37467592068E+03 -0.84386868904E+02  0.10148620736E+04  0.17279096003E+03 0.  0.
        -24    2    5    5    0    0 -0.45460560649E+03  0.19794323486E+03  0.21767758463E+02  0.50275693805E+03  0.80267812796E+02 0.  0.
         14    1    4    4    0    0  0.14947655938E+03 -0.61108613894E+02  0.14656489993E+03  0.21807974318E+03  0.00000000000E+00 0. -1.
        -13    1    4    4    0    0  0.63646340012E+03 -0.24699585469E+03  0.85659978091E+03  0.10953792935E+04  0.00000000000E+00 0.  1.
          5    1    3    3  501    0  0.13741540187E+03 -0.66571452095E+02  0.98054361601E+02  0.18152547682E+03  0.47000000000E+01 0. -1.
         13    1    6    6    0    0 -0.36891959855E+03  0.18278156279E+03 -0.48973104240E+01  0.41174598181E+03  0.00000000000E+00 0. -1.
        -14    1    6    6    0    0 -0.85686007939E+02  0.15161672072E+02  0.26665068886E+02  0.91010956237E+02  0.00000000000E+00 0.  1.
         -5    1    5    5    0  502 -0.46874975489E+03  0.17673268582E+03 -0.10615462737E+03  0.51210513555E+03  0.47000000000E+01 0.  1.
</event>
<event>
12    1  0.9749377E-001  0.6356712E+03  0.7818608E-02  0.9834044E-01
         21   -1    0    0  503  502  0.00000000000E+00  0.00000000000E+00  0.59867698924E+03  0.59867698924E+03  0.00000000000E+00 0.  1.
         21   -1    0    0  501  503 -0.00000000000E+00 -0.00000000000E+00 -0.89926740050E+03  0.89926740050E+03  0.00000000000E+00 0. -1.
          6    2    1    2  501    0 -0.76172421341E+02  0.61935443918E+03 -0.50313851321E+03  0.81974893679E+03  0.17157446428E+03 0.  0.
         24    2    3    3    0    0 -0.66311397991E+02  0.49479834440E+03 -0.32155308576E+03  0.59927939696E+03  0.80726733745E+02 0.  0.
         -6    2    1    2    0  502  0.76172421341E+02 -0.61935443918E+03  0.20254810195E+03  0.67819545295E+03  0.17181728578E+03 0.  0.
        -24    2    5    5    0    0  0.93412881100E+02 -0.24460606155E+03  0.81259823089E+02  0.28390302774E+03  0.73754176885E+02 0.  0.
         14    1    4    4    0    0 -0.98294128264E+00  0.27127477708E+03 -0.14953088359E+03  0.30975870610E+03  0.00000000000E+00 0. -1.
        -13    1    4    4    0    0 -0.65328456709E+02  0.22352356731E+03 -0.17202220217E+03  0.28952069087E+03  0.00000000000E+00 0.  1.
          5    1    3    3  501    0 -0.98610233500E+01  0.12455609478E+03 -0.18158542746E+03  0.22046953983E+03  0.47000000000E+01 0. -1.
         11    1    6    6    0    0  0.44924528634E+02 -0.18380021425E+03  0.32148229282E+02  0.19192248612E+03  0.00000000000E+00 0. -1.
        -12    1    6    6    0    0  0.48488352466E+02 -0.60805847302E+02  0.49111593807E+02  0.91980541623E+02  0.00000000000E+00 0.  1.
         -5    1    5    5    0  502 -0.17240459759E+02 -0.37474837763E+03  0.12128827887E+03  0.39429242521E+03  0.47000000000E+01 0.  1.
</event>
<event>
12    1  0.9749377E-001  0.3489290E+03  0.7818608E-02  0.1063055E+00
         21   -1    0    0  501  502  0.00000000000E+00  0.00000000000E+00  0.98837638417E+02  0.98837638417E+02  0.00000000000E+00 0. -1.
         21   -1    0    0  502  503 -0.00000000000E+00 -0.00000000000E+00 -0.14465464748E+04  0.14465464748E+04  0.00000000000E+00 0.  1.
         -6    2    1    2    0  503  0.20428773074E+03 -0.26731945515E+03 -0.68104460925E+03  0.77912221194E+03  0.17325268632E+03 0.  0.
        -24    2    3    3    0    0  0.18011927812E+03 -0.27403325442E+03 -0.67171517109E+03  0.75195021130E+03  0.81796517792E+02 0.  0.
          6    2    1    2  501    0 -0.20428773074E+03  0.26731945515E+03 -0.66666422710E+03  0.76626190125E+03  0.17182241289E+03 0.  0.
         24    2    5    5    0    0 -0.75579690411E+02  0.12534964302E+03 -0.19368976128E+03  0.25592071878E+03  0.80962139715E+02 0.  0.
         14    1    6    6    0    0 -0.78125430344E+02  0.11740953466E+03 -0.20051691581E+03  0.24514407033E+03  0.00000000000E+00 0. -1.
        -13    1    6    6    0    0  0.25457399333E+01  0.79401083669E+01  0.68271545309E+01  0.10776648444E+02  0.00000000000E+00 0.  1.
          5    1    5    5  501    0 -0.12870804033E+03  0.14196981213E+03 -0.47297446583E+03  0.51034118247E+03  0.47000000000E+01 0. -1.
         13    1    4    4    0    0  0.83511713154E+02 -0.16945573285E+03 -0.30747638424E+03  0.36087557204E+03  0.00000000000E+00 0. -1.
        -14    1    4    4    0    0  0.96607564969E+02 -0.10457752157E+03 -0.36423878685E+03  0.39107463926E+03  0.00000000000E+00 0.  1.
         -5    1    3    3    0  503  0.24168452617E+02  0.67137992717E+01 -0.93294381660E+01  0.27172000645E+02  0.47000000000E+01 0.  1.
</event>
<event>
12    1  0.9749377E-001  0.6039821E+03  0.7818608E-02  0.9897179E-01
         21   -1    0    0  501  502  0.00000000000E+00  0.00000000000E+00  0.10967349394E+04  0.10967349394E+04  0.00000000000E+00 0.  1.
         21   -1    0    0  502  503 -0.00000000000E+00 -0.00000000000E+00 -0.35076222217E+03  0.35076222217E+03  0.00000000000E+00 0. -1.
         -6    2    1    2    0  503  0.33524000713E+03  0.49178505363E+03  0.35699525198E+03  0.71661127100E+03  0.17845924587E+03 0.  0.
        -24    2    3    3    0    0  0.14253859436E+03  0.32751847555E+03  0.18207542124E+03  0.40881851549E+03  0.79971975585E+02 0.  0.
          6    2    1    2  501    0 -0.33524000713E+03 -0.49178505363E+03  0.38897746529E+03  0.73088589060E+03  0.16926994779E+03 0.  0.
         24    2    5    5    0    0 -0.28448925929E+03 -0.42481036137E+03  0.38780068694E+03  0.64671509629E+03  0.80330947911E+02 0.  0.
         14    1    6    6    0    0 -0.23008984588E+03 -0.31891367876E+03  0.25666831214E+03  0.46960184639E+03  0.00000000000E+00 0. -1.
        -13    1    6    6    0    0 -0.54399413413E+02 -0.10589668261E+03  0.13113237480E+03  0.17711324989E+03  0.00000000000E+00 0.  1.
          5    1    5    5  501    0 -0.50750747838E+02 -0.66974692255E+02  0.11767783555E+01  0.84170794318E+02  0.47000000000E+01 0. -1.
         11    1    4    4    0    0  0.68680530587E+02  0.19179897303E+03  0.14459469746E+03  0.24982291302E+03  0.00000000000E+00 0. -1.
        -12    1    4    4    0    0  0.73858063769E+02  0.13571950253E+03  0.37480723773E+02  0.15899560247E+03  0.00000000000E+00 0.  1.
         -5    1    3    3    0  503  0.19270141278E+03  0.16426657807E+03  0.17491983075E+03  0.30779275551E+03  0.47000000000E+01 0.  1.
</event>
<event>
12    1  0.9749377E-001  0.1854430E+03  0.7818608E-02  0.1162637E+00
         21   -1    0    0  501  502  0.00000000000E+00  0.00000000000E+00  0.34683091346E+03  0.34683091346E+03  0.00000000000E+00 0.  1.
         21   -1    0    0  502  503 -0.00000000000E+00 -0.00000000000E+00 -0.71777487031E+03  0.71777487031E+03  0.00000000000E+00 0.  1.
         -6    2    1    2    0  503 -0.76576914276E+01 -0.10081383191E+03  0.30228007560E+03  0.36239147020E+03  0.17243046315E+03 0.  0.
        -24    2    3    3    0    0 -0.35976089400E+02 -0.13135704262E+03  0.24389569632E+03  0.29051904762E+03  0.79795079368E+02 0.  0.
          6    2    1    2  501    0  0.76576914276E+01  0.10081383191E+03 -0.67322403245E+03  0.70221431357E+03  0.17219836053E+03 0.  0.
         24    2    5    5    0    0 -0.10647839142E+02  0.13493399539E+03 -0.59148026008E+03  0.61164162273E+03  0.77045551441E+02 0.  0.
         12    1    6    6    0    0 -0.72260884895E+01  0.11524311340E+03 -0.57267227657E+03  0.58419750761E+03  0.00000000000E+00 0. -1.
        -11    1    6    6    0    0 -0.34217506523E+01  0.19690881988E+02 -0.18807983507E+02  0.27444115118E+02  0.00000000000E+00 0.  1.
          5    1    5    5  501    0  0.18305530569E+02 -0.34120163478E+02 -0.81743772369E+02  0.90572690842E+02  0.47000000000E+01 0. -1.
         13    1    4    4    0    0 -0.57944277649E+02 -0.81212362637E+02  0.12751006436E+03  0.16190059812E+03  0.00000000000E+00 0. -1.
        -14    1    4    4    0    0  0.21968188249E+02 -0.50144679979E+02  0.11638563196E+03  0.12861844950E+03  0.00000000000E+00 0.  1.
         -5    1    3    3    0  503  0.28318397972E+02  0.30543210701E+02  0.58384379275E+02  0.71872422576E+02  0.47000000000E+01 0.  1.
</event>
<event>
12    1  0.9749377E-001  0.6440340E+03  0.7818608E-02  0.9818039E-01
         21   -1    0    0  503  502  0.00000000000E+00  0.00000000000E+00  0.26957702739E+03  0.26957702739E+03  0.00000000000E+00 0. -1.
         21   -1    0    0  501  503 -0.00000000000E+00 -0.00000000000E+00 -0.19036730857E+04  0.19036730857E+04  0.00000000000E+00 0.  1.
          6    2    1    2  501    0  0.24674453662E+03  0.58339683228E+03 -0.12512706552E+04  0.14132606345E+04  0.17433484476E+03 0.  0.
         24    2    3    3    0    0  0.45891385871E+02  0.17942567280E+03 -0.32075370186E+03  0.37913367112E+03  0.80992666120E+02 0.  0.
         -6    2    1    2    0  502 -0.24674453662E+03 -0.58339683228E+03 -0.38282540304E+03  0.75998947857E+03  0.17260935103E+03 0.  0.
        -24    2    5    5    0    0 -0.13299397575E+03 -0.33824991119E+03 -0.14148325090E+03  0.39763008872E+03  0.77406570527E+02 0.  0.
         14    1    4    4    0    0 -0.19178362434E+02  0.63552462646E+02 -0.78345136469E+02  0.10268731909E+03  0.00000000000E+00 0. -1.
        -13    1    4    4    0    0  0.65069748305E+02  0.11587321015E+03 -0.24240856539E+03  0.27644635203E+03  0.00000000000E+00 0.  1.
          5    1    3    3  501    0  0.20085315075E+03  0.40397115948E+03 -0.93051695339E+03  0.10341269634E+04  0.47000000000E+01 0. -1.
         11    1    6    6    0    0 -0.12469265922E+03 -0.25699428204E+03 -0.83967435798E+02  0.29773285096E+03  0.00000000000E+00 0. -1.
        -12    1    6    6    0    0 -0.83013165283E+01 -0.81255629150E+02 -0.57515815104E+02  0.99897237758E+02  0.00000000000E+00 0.  1.
         -5    1    5    5    0  502 -0.11375056088E+03 -0.24514692108E+03 -0.24134215214E+03  0.36235938986E+03  0.47000000000E+01 0.  1.
</event>
<event>
12    1  0.1060284E+000  0.6476184E+03  0.7818608E-02  0.9811258E-01
         21   -1    0    0  503  502  0.00000000000E+00  0.00000000000E+00  0.15072821328E+04  0.15072821328E+04  0.00000000000E+00 0. -1.
         21   -1    0    0  501  503 -0.00000000000E+00 -0.00000000000E+00 -0.45815360051E+03  0.45815360051E+03  0.00000000000E+00 0.  1.
          6    2    1    2  501    0 -0.46734485410E+03  0.43691146955E+03  0.11171835579E+04  0.12992708772E+04  0.17522233120E+03 0.  0.
         24    2    3    3    0    0 -0.45318403787E+03  0.44551776164E+03  0.11069854730E+04  0.12792536866E+04  0.84919428566E+02 0.  0.
         -6    2    1    2    0  502  0.46734485410E+03 -0.43691146955E+03 -0.68055025628E+02  0.66616485611E+03  0.17274629988E+03 0.  0.
        -24    2    5    5    0    0  0.34135399551E+03 -0.34009729137E+03  0.10915050843E+02  0.48866825185E+03  0.80553114055E+02 0.  0.
         14    1    4    4    0    0 -0.10051999901E+03  0.95989547687E+02  0.31775127538E+03  0.34682003470E+03  0.00000000000E+00 0. -1.
        -13    1    4    4    0    0 -0.35266403886E+03  0.34952821395E+03  0.78923419758E+03  0.93243365195E+03  0.00000000000E+00 0.  1.
          5    1    3    3  501    0 -0.14160816237E+02 -0.86062920938E+01  0.10198084943E+02  0.20017190527E+02  0.47000000000E+01 0. -1.
         13    1    6    6    0    0  0.23907908798E+03 -0.21135149769E+03 -0.25957534392E+02  0.32015942822E+03  0.00000000000E+00 0. -1.
        -14    1    6    6    0    0  0.10227490754E+03 -0.12874579367E+03  0.36872585236E+02  0.16850882363E+03  0.00000000000E+00 0.  1.
         -5    1    5    5    0  502  0.12599085859E+03 -0.96814178182E+02 -0.78970076472E+02  0.17749660426E+03  0.47000000000E+01 0.  1.
</event>
<event>
12    1  0.9749377E-001  0.4113331E+03  0.7818608E-02  0.1039925E+00
         21   -1    0    0  501  502  0.00000000000E+00  0.00000000000E+00  0.90270738321E+03  0.90270738321E+03  0.00000000000E+00 0.  1.
         21   -1    0    0  502  503 -0.00000000000E+00 -0.00000000000E+00 -0.22373485372E+03  0.22373485372E+03  0.00000000000E+00 0. -1.
         -6    2    1    2    0  503  0.30074706725E+03  0.24996338224E+03  0.51511784460E+03  0.66882401263E+03  0.17043671884E+03 0.  0.
        -24    2    3    3    0    0  0.12758053750E+03  0.51934225949E+02  0.24683692763E+03  0.29305954628E+03  0.77339973153E+02 0.  0.
          6    2    1    2  501    0 -0.30074706725E+03 -0.24996338224E+03  0.16385468489E+03  0.45761822430E+03  0.17214990716E+03 0.  0.
         24    2    5    5    0    0 -0.22901900030E+03 -0.11720046788E+03  0.62812955403E+02  0.27595252001E+03  0.77580111935E+02 0.  0.
         12    1    6    6    0    0 -0.21011807357E+03 -0.11088953750E+03  0.78900283262E+02  0.25034246357E+03  0.00000000000E+00 0. -1.
        -11    1    6    6    0    0 -0.18900926725E+02 -0.63109303762E+01 -0.16087327859E+02  0.25610056441E+02  0.00000000000E+00 0.  1.
          5    1    5    5  501    0 -0.71728066956E+02 -0.13276291436E+03  0.10104172949E+03  0.18166570429E+03  0.47000000000E+01 0. -1.
         11    1    4    4    0    0  0.11382438329E+02  0.30979897914E+02  0.23777797574E+02  0.40677974808E+02  0.00000000000E+00 0. -1.
        -12    1    4    4    0    0  0.11619809917E+03  0.20954328036E+02  0.22305913006E+03  0.25238157147E+03  0.00000000000E+00 0.  1.
         -5    1    3    3    0  503  0.17316652975E+03  0.19802915629E+03  0.26828091697E+03  0.37576446635E+03  0.47000000000E+01 0.  1.
</event>
<event>
12    1  0.9749377E-001  0.2356414E+03  0.7818608E-02  0.1122731E+00
         21   -1    0    0  501  502  0.00000000000E+00  0.00000000000E+00  0.17794056287E+03  0.17794056287E+03  0.00000000000E+00 0. -1.
         21   -1    0    0  502  503 -0.00000000000E+00 -0.00000000000E+00 -0.38810598918E+03  0.38810598918E+03  0.00000000000E+00 0.  1.
         -6    2    1    2    0  503  0.14176428610E+03  0.12565790632E+03 -0.50720767704E+02  0.26492405379E+03  0.17811551242E+03 0.  0.
        -24    2    3    3    0    0  0.37268353792E+01  0.18829087786E+02 -0.20366478093E+01  0.83653626520E+02  0.81396298730E+02 0.  0.
          6    2    1    2  501    0 -0.14176428610E+03 -0.12565790632E+03 -0.15944465861E+03  0.30112249826E+03  0.17136259091E+03 0.  0.
         24    2    5    5    0    0 -0.36880629792E+01 -0.54576643552E+02 -0.33221670114E+02  0.10094277368E+03  0.78061209075E+02 0.  0.
         14    1    6    6    0    0 -0.18558301817E+02 -0.32954466323E+02  0.19129010781E+02  0.42383091799E+02  0.00000000000E+00 0. -1.
        -13    1    6    6    0    0  0.14870238838E+02 -0.21622177228E+02 -0.52350680896E+02  0.58559681876E+02  0.00000000000E+00 0.  1.
          5    1    5    5  501    0 -0.13807622312E+03 -0.71081262773E+02 -0.12622298850E+03  0.20017972458E+03  0.47000000000E+01 0. -1.
         13    1    4    4    0    0  0.31471423205E+02  0.33409085017E+02  0.14607157692E+02  0.48166238135E+02  0.00000000000E+00 0. -1.
        -14    1    4    4    0    0 -0.27744587826E+02 -0.14579997231E+02 -0.16643805502E+02  0.35487388386E+02  0.00000000000E+00 0.  1.
         -5    1    3    3    0  503  0.13803745072E+03  0.10682881854E+03 -0.48684119894E+02  0.18127042727E+03  0.47000000000E+01 0.  1.
</event>
<event>
12    1  0.9749377E-001  0.4129651E+03  0.7818608E-02  0.1039381E+00
         21   -1    0    0  503  502  0.00000000000E+00  0.00000000000E+00  0.20735404282E+03  0.20735404282E+03  0.00000000000E+00 0.  1.
         21   -1    0    0  501  503 -0.00000000000E+00 -0.00000000000E+00 -0.10323206002E+04  0.10323206002E+04  0.00000000000E+00 0. -1.
          6    2    1    2  501    0  0.36287270157E+03 -0.16192831948E+03 -0.19413605939E+03  0.47469783708E+03  0.17248724236E+03 0.  0.
         24    2    3    3    0    0  0.99549911574E+02 -0.25945610735E+02 -0.87461919570E+01  0.12509566066E+03  0.70633340796E+02 0.  0.
         -6    2    1    2    0  502 -0.36287270157E+03  0.16192831948E+03 -0.63083049797E+03  0.76497680592E+03  0.17130387686E+03 0.  0.
        -24    2    5    5    0    0 -0.22688983433E+03  0.59213066162E+02 -0.45460148032E+03  0.51978194441E+03  0.92334065763E+02 0.  0.
         14    1    4    4    0    0  0.79281159368E+02 -0.48020101303E+02 -0.16484221573E+02  0.94144367440E+02  0.00000000000E+00 0. -1.
        -13    1    4    4    0    0  0.20268752207E+02  0.22074490568E+02  0.77380296162E+01  0.30951293223E+02  0.00000000000E+00 0.  1.
          5    1    3    3  501    0  0.26332279000E+03 -0.13598270874E+03 -0.18538986743E+03  0.34960217641E+03  0.47000000000E+01 0. -1.
         13    1    6    6    0    0 -0.94053392562E+02  0.93976942316E+01 -0.98768159635E+02  0.13670957050E+03  0.00000000000E+00 0. -1.
        -14    1    6    6    0    0 -0.13283644176E+03  0.49815371930E+02 -0.35583332069E+03  0.38307237391E+03  0.00000000000E+00 0.  1.
         -5    1    5    5    0  502 -0.13598286725E+03  0.10271525331E+03 -0.17622901765E+03  0.24519486151E+03  0.47000000000E+01 0.  1.
</event>
<event>
12    1  0.9749377E-001  0.4682646E+03  0.7818608E-02  0.1022411E+00
         21   -1    0    0  503  502  0.00000000000E+00  0.00000000000E+00  0.92662264681E+03  0.92662264681E+03  0.00000000000E+00 0.  1.
         21   -1    0    0  501  503 -0.00000000000E+00 -0.00000000000E+00 -0.27213012073E+03  0.27213012073E+03  0.00000000000E+00 0. -1.
          6    2    1    2  501    0  0.44961951150E+03  0.43123937940E+02  0.16664534695E+03  0.51100118941E+03  0.17127219498E+03 0.  0.
         24    2    3    3    0    0  0.21134460372E+03  0.10378146416E+02  0.14937949366E+02  0.22659928537E+03  0.79685923192E+02 0.  0.
         -6    2    1    2    0  502 -0.44961951150E+03 -0.43123937940E+02  0.48784717913E+03  0.68775157814E+03  0.17603972251E+03 0.  0.
        -24    2    5    5    0    0 -0.15446254680E+03 -0.68789434202E+02  0.22275685073E+03  0.29016973283E+03  0.77376964785E+02 0.  0.
         14    1    4    4    0    0  0.20758409700E+03  0.52945041362E+01 -0.29019437538E+01  0.20767188153E+03  0.00000000000E+00 0. -1.
        -13    1    4    4    0    0  0.37605067210E+01  0.50836422798E+01  0.17839893120E+02  0.18927403841E+02  0.00000000000E+00 0.  1.
          5    1    3    3  501    0  0.23827490778E+03  0.32745791524E+02  0.15170739758E+03  0.28440190404E+03  0.47000000000E+01 0. -1.
         11    1    6    6    0    0 -0.18852668594E+02  0.16860783978E+02  0.35898516403E+02  0.43913695238E+02  0.00000000000E+00 0. -1.
        -12    1    6    6    0    0 -0.13560987820E+03 -0.85650218180E+02  0.18685833433E+03  0.24625603759E+03  0.00000000000E+00 0.  1.
         -5    1    5    5    0  502 -0.29515696470E+03  0.25665496262E+02  0.26509032840E+03  0.39758184531E+03  0.47000000000E+01 0.  1.
</event>
<event>
12    1  0.9749377E-001  0.4194967E+03  0.7818608E-02  0.1037230E+00
         21   -1    0    0  501  502  0.00000000000E+00  0.00000000000E+00  0.21466585890E+03  0.21466585890E+03  0.00000000000E+00 0.  1.
         21   -1    0    0  502  503 -0.00000000000E+00 -0.00000000000E+00 -0.10012145015E+04  0.10012145015E+04  0.00000000000E+00 0. -1.
         -6    2    1    2    0  503  0.11961872332E+03 -0.38023159973E+03 -0.17733815128E+03  0.46795196179E+03  0.16924984561E+03 0.  0.
        -24    2    3    3    0    0  0.15176222856E+03 -0.30919885369E+03 -0.15749598959E+03  0.38736252501E+03  0.81295964889E+02 0.  0.
          6    2    1    2  501    0 -0.11961872332E+03  0.38023159973E+03 -0.60921049131E+03  0.74792839860E+03  0.17139065990E+03 0.  0.
         24    2    5    5    0    0 -0.35210642001E+02  0.18087691625E+03 -0.39511973193E+03  0.44342231119E+03  0.80916595054E+02 0.  0.
         14    1    6    6    0    0 -0.21888524471E+02  0.40873901295E+01 -0.64992324242E+02  0.68700920459E+02  0.00000000000E+00 0. -1.
        -13    1    6    6    0    0 -0.13322117530E+02  0.17678952612E+03 -0.33012740769E+03  0.37472139073E+03  0.00000000000E+00 0.  1.
          5    1    5    5  501    0 -0.84408081322E+02  0.19935468348E+03 -0.21409075938E+03  0.30450608741E+03  0.47000000000E+01 0. -1.
         13    1    4    4    0    0  0.12366750495E+03 -0.26467897762E+03 -0.16281541797E+03  0.33445100284E+03  0.00000000000E+00 0. -1.
        -14    1    4    4    0    0  0.28094723614E+02 -0.44519876072E+02  0.53194283797E+01  0.52911522173E+02  0.00000000000E+00 0.  1.
         -5    1    3    3    0  503 -0.32143505240E+02 -0.71032746042E+02 -0.19842161690E+02  0.80589436777E+02  0.47000000000E+01 0.  1.
</event>
<event>
12    1  0.9749377E-001  0.4391481E+03  0.7818608E-02  0.1031009E+00
         21   -1    0    0  503  502  0.00000000000E+00  0.00000000000E+00  0.15436714256E+04  0.15436714256E+04  0.00000000000E+00 0.  1.
         21   -1    0    0  501  503 -0.00000000000E+00 -0.00000000000E+00 -0.29279774530E+03  0.29279774530E+03  0.00000000000E+00 0. -1.
          6    2    1    2  501    0  0.41175792032E+03  0.10641657291E+03  0.12966329245E+04  0.13753130390E+04  0.17134743226E+03 0.  0.
         24    2    3    3    0    0  0.19812976497E+03  0.11799473682E+03  0.68731874587E+03  0.72951361128E+03  0.81270467704E+02 0.  0.
         -6    2    1    2    0  502 -0.41175792032E+03 -0.10641657291E+03 -0.45759244164E+02  0.46115613188E+03  0.17234267494E+03 0.  0.
        -24    2    5    5    0    0 -0.24688539730E+03 -0.90022555960E+02 -0.91380047565E+02  0.28924027938E+03  0.79076963393E+02 0.  0.
         14    1    4    4    0    0  0.17709140430E+03  0.11753028562E+03  0.53378259002E+03  0.57454206715E+03  0.00000000000E+00 0. -1.
        -13    1    4    4    0    0  0.21038360669E+02  0.46445120530E+00  0.15353615585E+03  0.15497154412E+03  0.00000000000E+00 0.  1.
          5    1    3    3  501    0  0.21362815535E+03 -0.11578163910E+02  0.60931417858E+03  0.64579942773E+03  0.47000000000E+01 0. -1.
         13    1    6    6    0    0 -0.43086406993E+02 -0.30026999721E+02 -0.50575815745E+02  0.72910714700E+02  0.00000000000E+00 0. -1.
        -14    1    6    6    0    0 -0.20379899031E+03 -0.59995556239E+02 -0.40804231820E+02  0.21632956468E+03  0.00000000000E+00 0.  1.
         -5    1    5    5    0  502 -0.16487252302E+03 -0.16394016953E+02  0.45620803401E+02  0.17191585250E+03  0.47000000000E+01 0.  1.
</event>
<event>
12    1  0.9749377E-001  0.5756589E+03  0.7818608E-02  0.9957234E-01
         21   -1    0    0  503  502  0.00000000000E+00  0.00000000000E+00  0.69059981631E+03  0.69059981631E+03  0.00000000000E+00 0. -1.
         21   -1    0    0  501  503 -0.00000000000E+00 -0.00000000000E+00 -0.50660376924E+03  0.50660376924E+03  0.00000000000E+00 0.  1.
          6    2    1    2  501    0 -0.27819303055E+03 -0.49253771076E+03  0.65017575938E+02  0.59470545752E+03  0.17164654747E+03 0.  0.
         24    2    3    3    0    0 -0.10069038964E+03 -0.22602049944E+03  0.84768139502E+02  0.27384600819E+03  0.81130623062E+02 0.  0.
         -6    2    1    2    0  502  0.27819303055E+03  0.49253771076E+03  0.11897847113E+03  0.60249812803E+03  0.16989219793E+03 0.  0.
        -24    2    5    5    0    0  0.11817488714E+03  0.16725299795E+03  0.55042080029E+01  0.22261071181E+03  0.87099732684E+02 0.  0.
         14    1    4    4    0    0 -0.11047636210E+02 -0.25851250271E+02  0.41764051694E+02  0.50344547076E+02  0.00000000000E+00 0. -1.
        -13    1    4    4    0    0 -0.89642753427E+02 -0.20016924917E+03  0.43004087808E+02  0.22350146112E+03  0.00000000000E+00 0.  1.
          5    1    3    3  501    0 -0.17750264091E+03 -0.26651721132E+03 -0.19750563564E+02  0.32085944933E+03  0.47000000000E+01 0. -1.
         11    1    6    6    0    0  0.12784861196E+03  0.12897552411E+03 -0.52896370687E+01  0.18168085661E+03  0.00000000000E+00 0. -1.
        -12    1    6    6    0    0 -0.96737248150E+01  0.38277473839E+02  0.10793845072E+02  0.40929855201E+02  0.00000000000E+00 0.  1.
         -5    1    5    5    0  502  0.16001814340E+03  0.32528471281E+03  0.11347426313E+03  0.37988741621E+03  0.47000000000E+01 0.  1.
</event>
<event>
12    1  0.9749377E-001  0.2003477E+03  0.7818608E-02  0.1149446E+00
         21   -1    0    0  501  502  0.00000000000E+00  0.00000000000E+00  0.18388719938E+04  0.18388719938E+04  0.00000000000E+00 0. -1.
         21   -1    0    0  502  503 -0.00000000000E+00 -0.00000000000E+00 -0.74741383091E+02  0.74741383091E+02  0.00000000000E+00 0. -1.
         -6    2    1    2    0  503 -0.13440131734E+03 -0.11887396836E+03  0.15909138947E+04  0.16100529558E+04  0.17049564714E+03 0.  0.
        -24    2    3    3    0    0 -0.72983801633E+02 -0.70569093413E+02  0.13532812127E+04  0.13598593233E+04  0.86837240542E+02 0.  0.
          6    2    1    2  501    0  0.13440131734E+03  0.11887396836E+03  0.17321671593E+03  0.30356042101E+03  0.17306115701E+03 0.  0.
         24    2    5    5    0    0  0.13762507555E+03  0.13966163807E+03  0.11240165646E+03  0.23903847678E+03  0.77841033119E+02 0.  0.
         12    1    6    6    0    0  0.22624948701E+02  0.43499353720E+02 -0.40728728289E+01  0.49200308646E+02  0.00000000000E+00 0. -1.
        -11    1    6    6    0    0  0.11500012685E+03  0.96162284349E+02  0.11647452929E+03  0.18983816813E+03  0.00000000000E+00 0.  1.
          5    1    5    5  501    0 -0.32237582093E+01 -0.20787669704E+02  0.60815059467E+02  0.64521944226E+02  0.47000000000E+01 0. -1.
         11    1    4    4    0    0 -0.10314352120E+02 -0.14753866085E+02  0.80423725209E+03  0.80443869876E+03  0.00000000000E+00 0. -1.
        -12    1    4    4    0    0 -0.62669449513E+02 -0.55815227328E+02  0.54904396060E+03  0.55542062455E+03  0.00000000000E+00 0.  1.
         -5    1    3    3    0  503 -0.61417515709E+02 -0.48304874952E+02  0.23763268205E+03  0.25019363253E+03  0.47000000000E+01 0.  1.
</event>
<event>
12    1  0.9749377E-001  0.2012694E+03  0.7818608E-02  0.1148672E+00
         21   -1    0    0  503  502  0.00000000000E+00  0.00000000000E+00  0.53538586520E+03  0.53538586520E+03  0.00000000000E+00 0. -1.
         21   -1    0    0  501  503 -0.00000000000E+00 -0.00000000000E+00 -0.10647958363E+03  0.10647958363E+03  0.00000000000E+00 0. -1.
          6    2    1    2  501    0 -0.12871456409E+03 -0.61639970081E+02  0.33263915371E+03  0.40071059350E+03  0.17191058210E+03 0.  0.
         24    2    3    3    0    0 -0.15045518245E+03 -0.84764549266E+02  0.27149518193E+03  0.33165933765E+03  0.80414499320E+02 0.  0.
         -6    2    1    2    0  502  0.12871456409E+03  0.61639970081E+02  0.96267127857E+02  0.24115485533E+03  0.16888273868E+03 0.  0.
        -24    2    5    5    0    0  0.12990018808E+03  0.30647883158E+02  0.17499929913E+02  0.15637115037E+03  0.79575985795E+02 0.  0.
         12    1    4    4    0    0 -0.13900683052E+03 -0.41442287468E+02  0.21842569032E+03  0.26220248724E+03  0.00000000000E+00 0. -1.
        -11    1    4    4    0    0 -0.11448351925E+02 -0.43322261798E+02  0.53069491607E+02  0.69456850407E+02  0.00000000000E+00 0.  1.
          5    1    3    3  501    0  0.21740618353E+02  0.23124579185E+02  0.61143971785E+02  0.69051255850E+02  0.47000000000E+01 0. -1.
         13    1    6    6    0    0 -0.80182232258E+00 -0.11779067460E+02  0.14795729322E+02  0.18928892082E+02  0.00000000000E+00 0. -1.
        -14    1    6    6    0    0  0.13070201040E+03  0.42426950619E+02  0.27042005911E+01  0.13744225829E+03  0.00000000000E+00 0.  1.
         -5    1    5    5    0  502 -0.11856239852E+01  0.30992086923E+02  0.78767197944E+02  0.84783704967E+02  0.47000000000E+01 0.  1.
</event>
<event>
12    1  0.9749377E-001  0.3488677E+03  0.7818608E-02  0.1063081E+00
         21   -1    0    0  501  502  0.00000000000E+00  0.00000000000E+00  0.15323899177E+04  0.15323899177E+04  0.00000000000E+00 0. -1.
         21   -1    0    0  502  503 -0.00000000000E+00 -0.00000000000E+00 -0.12659062722E+03  0.12659062722E+03  0.00000000000E+00 0.  1.
         -6    2    1    2    0  503 -0.84777266873E+02 -0.31136534402E+03  0.11653346125E+04  0.12214111977E+04  0.17235136326E+03 0.  0.
        -24    2    3    3    0    0 -0.10259456762E+03 -0.22698003478E+03  0.67917951289E+03  0.72764282339E+03  0.78317853716E+02 0.  0.
          6    2    1    2  501    0  0.84777266873E+02  0.31136534402E+03  0.24046467801E+03  0.43756934721E+03  0.17177924732E+03 0.  0.
         24    2    5    5    0    0  0.57340802812E+02  0.31788889480E+03  0.23762054436E+03  0.40883791197E+03  0.79646707773E+02 0.  0.
         12    1    6    6    0    0  0.57531184482E+02  0.31894380443E+03  0.22120137190E+03  0.39238378471E+03  0.00000000000E+00 0. -1.
        -11    1    6    6    0    0 -0.19038166998E+00 -0.10549096368E+01  0.16419172460E+02  0.16454127257E+02  0.00000000000E+00 0.  1.
          5    1    5    5  501    0  0.27436464061E+02 -0.65235507719E+01  0.28441336484E+01  0.28731435242E+02  0.47000000000E+01 0. -1.
         11    1    4    4    0    0 -0.65836884075E+00  0.45680131082E+01  0.39217677662E+02  0.39488307567E+02  0.00000000000E+00 0. -1.
        -12    1    4    4    0    0 -0.10193619878E+03 -0.23154804789E+03  0.63996183523E+03  0.68815451583E+03  0.00000000000E+00 0.  1.
         -5    1    3    3    0  503  0.17817300750E+02 -0.84385309245E+02  0.48615509960E+03  0.49376837433E+03  0.47000000000E+01 0.  1.
</event>
<event>
12    1  0.9749377E-001  0.2431094E+03  0.7818608E-02  0.1117739E+00
         21   -1    0    0  501  502  0.00000000000E+00  0.00000000000E+00  0.75744104670E+02  0.75744104670E+02  0.00000000000E+00 0.  1.
         21   -1    0    0  502  503 -0.00000000000E+00 -0.00000000000E+00 -0.10332752840E+04  0.10332752840E+04  0.00000000000E+00 0. -1.
         -6    2    1    2    0  503 -0.44580898542E+01  0.20942667057E+03 -0.33983251218E+03  0.43469328757E+03  0.17202532667E+03 0.  0.
        -24    2    3    3    0    0  0.63435305003E+02  0.11201082847E+03 -0.21011641805E+03  0.25877366265E+03  0.79021742144E+02 0.  0.
          6    2    1    2  501    0  0.44580898542E+01 -0.20942667057E+03 -0.61769866710E+03  0.67432610105E+03  0.17112756152E+03 0.  0.
         24    2    5    5    0    0 -0.22221954640E+02 -0.12359500203E+03 -0.21501154567E+03  0.26170289780E+03  0.80553722125E+02 0.  0.
         12    1    6    6    0    0 -0.33598173513E+02 -0.19398739526E+02 -0.93507437122E+02  0.10123630355E+03  0.00000000000E+00 0. -1.
        -11    1    6    6    0    0  0.11376218873E+02 -0.10419626251E+03 -0.12150410855E+03  0.16046659425E+03  0.00000000000E+00 0.  1.
          5    1    5    5  501    0  0.26680044495E+02 -0.85831668531E+02 -0.40268712143E+03  0.41262320325E+03  0.47000000000E+01 0. -1.
         13    1    4    4    0    0  0.43832742152E+02  0.10349699089E+03 -0.20908107611E+03  0.23737698455E+03  0.00000000000E+00 0. -1.
        -14    1    4    4    0    0  0.19602562851E+02  0.85138375796E+01 -0.10353419409E+01  0.21396678097E+02  0.00000000000E+00 0.  1.
         -5    1    3    3    0  503 -0.67893394857E+02  0.97415842096E+02 -0.12971609413E+03  0.17591962492E+03  0.47000000000E+01 0.  1.
</event>
<event>
12    1  0.9749377E-001  0.1367297E+03  0.7818608E-02  0.1217798E+00
         21   -1    0    0  501  502  0.00000000000E+00  0.00000000000E+00  0.11986506827E+04  0.11986506827E+04  0.00000000000E+00 0. -1.
         21   -1    0    0  502  503 -0.00000000000E+00 -0.00000000000E+00 -0.29670466490E+02  0.29670466490E+02  0.00000000000E+00 0.  1.
         -6    2    1    2    0  503  0.14117777959E+02  0.78064596413E+02  0.65070826758E+03  0.67585018184E+03  0.16449567145E+03 0.  0.
        -24    2    3    3    0    0 -0.70529254892E+00  0.34732966697E+02  0.60356576616E+03  0.60995739776E+03  0.80929083716E+02 0.  0.
          6    2    1    2  501    0 -0.14117777959E+02 -0.78064596413E+02  0.51827194863E+03  0.55247096736E+03  0.17414064478E+03 0.  0.
         24    2    5    5    0    0 -0.63895979832E+02 -0.17340444759E+02  0.20801708008E+03  0.23239993549E+03  0.79719741282E+02 0.  0.
         12    1    6    6    0    0 -0.38912095424E+02 -0.48715550751E+02  0.10906301846E+03  0.12562682059E+03  0.00000000000E+00 0. -1.
        -11    1    6    6    0    0 -0.24983884409E+02  0.31375105992E+02  0.98954061619E+02  0.10677311491E+03  0.00000000000E+00 0.  1.
          5    1    5    5  501    0  0.49778201874E+02 -0.60724151654E+02  0.31025486856E+03  0.32007103186E+03  0.47000000000E+01 0. -1.
         11    1    4    4    0    0 -0.87240804566E+00  0.40513626965E+02  0.60275747565E+03  0.60411810891E+03  0.00000000000E+00 0. -1.
        -12    1    4    4    0    0  0.16711549674E+00 -0.57806602685E+01  0.80829051255E+00  0.58392888506E+01  0.00000000000E+00 0.  1.
         -5    1    3    3    0  503  0.14823070508E+02  0.43331629717E+02  0.47142501424E+02  0.65892784079E+02  0.47000000000E+01 0.  1.
</event>
<event>
12    1  0.9749377E-001  0.6532943E+03  0.7818608E-02  0.9800617E-01
         21   -1    0    0  501  502  0.00000000000E+00  0.00000000000E+00  0.63288358028E+03  0.63288358028E+03  0.00000000000E+00 0.  1.
         21   -1    0    0  502  503 -0.00000000000E+00 -0.00000000000E+00 -0.72719827775E+03  0.72719827775E+03  0.00000000000E+00 0. -1.
         -6    2    1    2    0  503  0.64042196810E+03 -0.68151557118E+02  0.81179192270E+02  0.67111086390E+03  0.17033730778E+03 0.  0.
        -24    2    3    3    0    0  0.40564506895E+03 -0.86115245091E+02  0.17542647921E+01  0.42256852230E+03  0.81223895487E+02 0.  0.
          6    2    1    2  501    0 -0.64042196810E+03  0.68151557118E+02 -0.17549388974E+03  0.68897099413E+03  0.17058133970E+03 0.  0.
         24    2    5    5    0    0 -0.62679745168E+03  0.60874858009E+02 -0.14030729487E+03  0.65025711734E+03  0.81039421768E+02 0.  0.
         12    1    6    6    0    0 -0.11136869245E+03 -0.12432805854E+02 -0.41789803754E+01  0.11213841535E+03  0.00000000000E+00 0. -1.
        -11    1    6    6    0    0 -0.51542875923E+03  0.73307663863E+02 -0.13612831449E+03  0.53811870199E+03  0.00000000000E+00 0.  1.
          5    1    5    5  501    0 -0.13624516417E+02  0.72766991087E+01 -0.35186594875E+02  0.38713876794E+02  0.47000000000E+01 0. -1.
         11    1    4    4    0    0  0.18623226938E+03  0.86066590138E+00 -0.72325125597E+01  0.18637464458E+03  0.00000000000E+00 0. -1.
        -12    1    4    4    0    0  0.21941279957E+03 -0.86975910992E+02  0.89867773519E+01  0.23619387772E+03  0.00000000000E+00 0.  1.
         -5    1    3    3    0  503  0.23477689915E+03  0.17963687973E+02  0.79424927477E+02  0.24854234159E+03  0.47000000000E+01 0.  1.
</event>
<event>
12    1  0.9749377E-001  0.3920259E+03  0.7818608E-02  0.1046576E+00
         21   -1    0    0  501  502  0.00000000000E+00  0.00000000000E+00  0.88016203721E+03  0.88016203721E+03  0.00000000000E+00 0.  1.
         21   -1    0    0  502  503 -0.00000000000E+00 -0.00000000000E+00 -0.18406557838E+03  0.18406557838E+03  0.00000000000E+00 0. -1.
         -6    2    1    2    0  503 -0.95366630026E+01 -0.36401950288E+03  0.36565710164E+03  0.54417132491E+03  0.17267358934E+03 0.  0.
        -24    2    3    3    0    0 -0.39028349335E+02 -0.35778328855E+03  0.32226482024E+03  0.49112766348E+03  0.88428919817E+02 0.  0.
          6    2    1    2  501    0  0.95366630026E+01  0.36401950288E+03  0.33043935719E+03  0.52005629069E+03  0.16931399908E+03 0.  0.
         24    2    5    5    0    0  0.61960168845E+02  0.15685864642E+03  0.13684439899E+03  0.23167296549E+03  0.80636690916E+02 0.  0.
         12    1    6    6    0    0  0.46544051371E+02  0.91633853008E+02  0.32750740738E+02  0.10786900738E+03  0.00000000000E+00 0. -1.
        -11    1    6    6    0    0  0.15416117474E+02  0.65224793416E+02  0.10409365825E+03  0.12380395810E+03  0.00000000000E+00 0.  1.
          5    1    5    5  501    0 -0.52423505843E+02  0.20716085645E+03  0.19359495820E+03  0.28838332520E+03  0.47000000000E+01 0. -1.
         11    1    4    4    0    0 -0.16834866032E+02 -0.34282562866E+03  0.29118699235E+03  0.45011408431E+03  0.00000000000E+00 0. -1.
        -12    1    4    4    0    0 -0.22193483303E+02 -0.14957659890E+02  0.31077827890E+02  0.41013579177E+02  0.00000000000E+00 0.  1.
         -5    1    3    3    0  503  0.29491686332E+02 -0.62362143282E+01  0.43392281404E+02  0.53043661424E+02  0.47000000000E+01 0.  1.
</event>
<event>
12    1  0.9749377E-001  0.2162929E+03  0.7818608E-02  0.1136677E+00
         21   -1    0    0  501  502  0.00000000000E+00  0.00000000000E+00  0.85597177991E+03  0.85597177991E+03  0.00000000000E+00 0. -1.
         21   -1    0    0  502  503 -0.00000000000E+00 -0.00000000000E+00 -0.64550260039E+02  0.64550260039E+02  0.00000000000E+00 0. -1.
         -6    2    1    2    0  503  0.33927622237E+02  0.15086241432E+03  0.33765020046E+03  0.40945045557E+03  0.17242814762E+03 0.  0.
        -24    2    3    3    0    0 -0.42752371114E+02  0.72289949695E+02  0.12691713856E+03  0.17178689725E+03  0.79681716491E+02 0.  0.
          6    2    1    2  501    0 -0.33927622237E+02 -0.15086241432E+03  0.45377131941E+03  0.51107158438E+03  0.17713046727E+03 0.  0.
         24    2    5    5    0    0 -0.77473318607E+02 -0.12528066100E+03  0.22604396968E+03  0.27776386999E+03  0.66026753133E+02 0.  0.
         14    1    6    6    0    0 -0.58355279006E+00 -0.50165927385E+02  0.45958738559E+02  0.68037978028E+02  0.00000000000E+00 0. -1.
        -13    1    6    6    0    0 -0.76889765817E+02 -0.75114733617E+02  0.18008523112E+03  0.20972589197E+03  0.00000000000E+00 0.  1.
          5    1    5    5  501    0  0.43545696370E+02 -0.25581753314E+02  0.22772734973E+03  0.23330771438E+03  0.47000000000E+01 0. -1.
         13    1    4    4    0    0 -0.25937114818E+02  0.87731426758E+02  0.11155076184E+03  0.14426749334E+03  0.00000000000E+00 0. -1.
        -14    1    4    4    0    0 -0.16815256296E+02 -0.15441477063E+02  0.15366376718E+02  0.27519403911E+02  0.00000000000E+00 0.  1.
         -5    1    3    3    0  503  0.76679993350E+02  0.78572464621E+02  0.21073306190E+03  0.23766355832E+03  0.47000000000E+01 0.  1.
</event>
<event>
12    1  0.9749377E-001  0.3303686E+03  0.7818608E-02  0.1070974E+00
         21   -1    0    0  503  502  0.00000000000E+00  0.00000000000E+00  0.24398009647E+03  0.24398009647E+03  0.00000000000E+00 0.  1.
         21   -1    0    0  501  503 -0.00000000000E+00 -0.00000000000E+00 -0.49876820088E+03  0.49876820088E+03  0.00000000000E+00 0. -1.
          6    2    1    2  501    0 -0.31367843019E+02  0.30073990562E+03 -0.16148189831E+03  0.38190328787E+03  0.16836058149E+03 0.  0.
         24    2    3    3    0    0 -0.61168174089E+02  0.29087483251E+03 -0.12314524078E+03  0.33213212444E+03  0.82445642971E+02 0.  0.
         -6    2    1    2    0  502  0.31367843019E+02 -0.30073990562E+03 -0.93306206106E+02  0.36084500947E+03  0.17342041505E+03 0.  0.
        -24    2    5    5    0    0  0.62774211575E+02 -0.15398784435E+03 -0.45595930658E-01  0.18409049360E+03  0.78971196694E+02 0.  0.
         14    1    4    4    0    0 -0.29214918521E+02  0.10783917550E+03 -0.47789581808E+01  0.11182860849E+03  0.00000000000E+00 0. -1.
        -13    1    4    4    0    0 -0.31953255568E+02  0.18303565701E+03 -0.11836628260E+03  0.22030351594E+03  0.00000000000E+00 0.  1.
          5    1    3    3  501    0  0.29800331070E+02  0.98650731067E+01 -0.38336657529E+02  0.49771163436E+02  0.47000000000E+01 0. -1.
         13    1    6    6    0    0  0.30538419354E+02 -0.14453285729E+03  0.12451018873E+02  0.14824766360E+03  0.00000000000E+00 0. -1.
        -14    1    6    6    0    0  0.32235792221E+02 -0.94549870624E+01 -0.12496614804E+02  0.35842829995E+02  0.00000000000E+00 0.  1.
         -5    1    5    5    0  502 -0.31406368556E+02 -0.14675206127E+03 -0.93260610176E+02  0.17675451588E+03  0.47000000000E+01 0.  1.
</event>
<event>
12    1  0.9749377E-001  0.4678253E+03  0.7818608E-02  0.1022536E+00
         21   -1    0    0  501  502  0.00000000000E+00  0.00000000000E+00  0.34005433607E+03  0.34005433607E+03  0.00000000000E+00 0. -1.
         21   -1    0    0  502  503 -0.00000000000E+00 -0.00000000000E+00 -0.72484370949E+03  0.72484370949E+03  0.00000000000E+00 0.  1.
         -6    2    1    2    0  503 -0.30578264668E+03  0.33507050496E+03 -0.75665831213E+02  0.48972287942E+03  0.16830897277E+03 0.  0.
        -24    2    3    3    0    0 -0.26591523757E+03  0.29001540053E+03 -0.11462210148E+03  0.41789632627E+03  0.81726784165E+02 0.  0.
          6    2    1    2  501    0  0.30578264668E+03 -0.33507050496E+03 -0.30912354221E+03  0.57517516614E+03  0.17173769851E+03 0.  0.
         24    2    5    5    0    0  0.30080492733E+03 -0.27493998723E+03 -0.22679579924E+03  0.47299687043E+03  0.78829588326E+02 0.  0.
         14    1    6    6    0    0  0.11716232696E+03 -0.15204089951E+03 -0.12954113777E+03  0.23156932516E+03  0.00000000000E+00 0. -1.
        -13    1    6    6    0    0  0.18364260037E+03 -0.12289908772E+03 -0.97254661470E+02  0.24142754526E+03  0.00000000000E+00 0.  1.
          5    1    5    5  501    0  0.49777193475E+01 -0.60130517728E+02 -0.82327742968E+02  0.10217829571E+03  0.47000000000E+01 0. -1.
         11    1    4    4    0    0 -0.17871122435E+03  0.13486033974E+03 -0.63340046035E+02  0.23267353604E+03  0.00000000000E+00 0. -1.
        -12    1    4    4    0    0 -0.87204013219E+02  0.15515506079E+03 -0.51282055444E+02  0.18522279023E+03  0.00000000000E+00 0.  1.
         -5    1    3    3    0  503 -0.39867409107E+02  0.45055104432E+02  0.38956270266E+02  0.71826553149E+02  0.47000000000E+01 0.  1.
</event>
<event>
12    1  0.9749377E-001  0.2325889E+03  0.7818608E-02  0.1124831E+00
         21   -1    0    0  501  502  0.00000000000E+00  0.00000000000E+00  0.37307451077E+03  0.37307451077E+03  0.00000000000E+00 0. -1.
         21   -1    0    0  502  503 -0.00000000000E+00 -0.00000000000E+00 -0.35161628991E+03  0.35161628991E+03  0.00000000000E+00 0. -1.
         -6    2    1    2    0  503  0.72585546402E+01 -0.19022343333E+03 -0.24460435196E+03  0.35505200694E+03  0.17318486491E+03 0.  0.
        -24    2    3    3    0    0  0.23463799412E+01 -0.20416397474E+03 -0.25503424126E+03  0.33636134762E+03  0.80050345889E+02 0.  0.
          6    2    1    2  501    0 -0.72585546402E+01  0.19022343333E+03  0.26606257281E+03  0.36963879374E+03  0.17206366258E+03 0.  0.
         24    2    5    5    0    0  0.43914180818E+02  0.42262676706E+02  0.10051476950E+03  0.14173706155E+03  0.79193349523E+02 0.  0.
         14    1    6    6    0    0  0.48651976185E+02  0.20054507601E+02  0.17168900948E+02  0.55353131995E+02  0.00000000000E+00 0. -1.
        -13    1    6    6    0    0 -0.47377953673E+01  0.22208169104E+02  0.83345868553E+02  0.86383929551E+02  0.00000000000E+00 0.  1.
          5    1    5    5  501    0 -0.51172735458E+02  0.14796075662E+03  0.16554780331E+03  0.22790173219E+03  0.47000000000E+01 0. -1.
         11    1    4    4    0    0  0.38653813449E+02 -0.91277257806E+02 -0.96069941494E+02  0.13804017077E+03  0.00000000000E+00 0. -1.
        -12    1    4    4    0    0 -0.36307433508E+02 -0.11288671693E+03 -0.15896429976E+03  0.19832117685E+03  0.00000000000E+00 0.  1.
         -5    1    3    3    0  503  0.49121746990E+01  0.13940541409E+02  0.10429889301E+02  0.18690659322E+02  0.47000000000E+01 0.  1.
</event>
<event>
12    1  0.9749377E-001  0.3364047E+03  0.7818608E-02  0.1068338E+00
         21   -1    0    0  501  502  0.00000000000E+00  0.00000000000E+00  0.83297558502E+03  0.83297558502E+03  0.00000000000E+00 0.  1.
         21   -1    0    0  502  503 -0.00000000000E+00 -0.00000000000E+00 -0.19199200064E+03  0.19199200064E+03  0.00000000000E+00 0. -1.
         -6    2    1    2    0  503 -0.30457431846E+03 -0.50350505896E+02  0.80578378870E+02  0.36270878015E+03  0.17252273807E+03 0.  0.
        -24    2    3    3    0    0 -0.29449730050E+03 -0.17018159588E+02  0.38651481253E+02  0.30800460897E+03  0.79715897930E+02 0.  0.
          6    2    1    2  501    0  0.30457431846E+03  0.50350505896E+02  0.56040520551E+03  0.66225880550E+03  0.17097380558E+03 0.  0.
         24    2    5    5    0    0  0.10882177066E+03 -0.24149804015E+02  0.28589545667E+03  0.31693714624E+03  0.79294083761E+02 0.  0.
         12    1    6    6    0    0  0.26680875083E+02  0.16475307474E+02  0.14857437688E+03  0.15184745739E+03  0.00000000000E+00 0. -1.
        -11    1    6    6    0    0  0.82140895573E+02 -0.40625111489E+02  0.13732107980E+03  0.16508968885E+03  0.00000000000E+00 0.  1.
          5    1    5    5  501    0  0.19575254780E+03  0.74500309912E+02  0.27450974884E+03  0.34532165926E+03  0.47000000000E+01 0. -1.
         11    1    4    4    0    0 -0.15938624776E+03 -0.48191072294E+02  0.13270664736E+02  0.16704031240E+03  0.00000000000E+00 0. -1.
        -12    1    4    4    0    0 -0.13511105274E+03  0.31172912706E+02  0.25380816517E+02  0.14096429657E+03  0.00000000000E+00 0.  1.
         -5    1    3    3    0  503 -0.10077017954E+02 -0.33332346308E+02  0.41926897616E+02  0.54704171185E+02  0.47000000000E+01 0.  1.
</event>
<event>
12    1  0.9749377E-001  0.4516882E+03  0.7818608E-02  0.1027220E+00
         21   -1    0    0  501  502  0.00000000000E+00  0.00000000000E+00  0.43934476618E+03  0.43934476618E+03  0.00000000000E+00 0.  1.
         21   -1    0    0  502  503 -0.00000000000E+00 -0.00000000000E+00 -0.51190257824E+03  0.51190257824E+03  0.00000000000E+00 0. -1.
         -6    2    1    2    0  503 -0.73675941515E+02  0.42717068101E+03 -0.12200856666E+03  0.48189809231E+03  0.17157140191E+03 0.  0.
        -24    2    3    3    0    0  0.82780429234E+00  0.13243759340E+03 -0.53459679467E+02  0.17022608360E+03  0.92620628396E+02 0.  0.
          6    2    1    2  501    0  0.73675941515E+02 -0.42717068101E+03  0.49450754599E+02  0.46934925212E+03  0.17303296870E+03 0.  0.
         24    2    5    5    0    0  0.47517905607E+02 -0.11834275986E+03 -0.18247421600E+02  0.15207325115E+03  0.80810551023E+02 0.  0.
         14    1    6    6    0    0  0.65816802459E+02 -0.87487099824E+02 -0.31352569862E+02  0.11388076114E+03  0.00000000000E+00 0. -1.
        -13    1    6    6    0    0 -0.18298896851E+02 -0.30855660036E+02  0.13105148262E+02  0.38192490011E+02  0.00000000000E+00 0.  1.
          5    1    5    5  501    0  0.26158035908E+02 -0.30882792115E+03  0.67698176198E+02  0.31727600096E+03  0.47000000000E+01 0. -1.
         11    1    4    4    0    0 -0.27206132285E+02  0.80787529364E+02 -0.68736025624E+02  0.10950543253E+03  0.00000000000E+00 0. -1.
        -12    1    4    4    0    0  0.28033936578E+02  0.51650064037E+02  0.15276346157E+02  0.60720651075E+02  0.00000000000E+00 0.  1.
         -5    1    3    3    0  503 -0.74503745808E+02  0.29473308761E+03 -0.68548887196E+02  0.31167200870E+03  0.47000000000E+01 0.  1.
</event>
<event>
12    1  0.9749377E-001  0.4767430E+03  0.7818608E-02  0.1020034E+00
         21   -1    0    0  501  502  0.00000000000E+00  0.00000000000E+00  0.62161414042E+03  0.62161414042E+03  0.00000000000E+00 0.  1.
         21   -1    0    0  502  503 -0.00000000000E+00 -0.00000000000E+00 -0.42718746015E+03  0.42718746015E+03  0.00000000000E+00 0. -1.
         -6    2    1    2    0  503 -0.42458233222E+03  0.17021418639E+03 -0.65312584593E+02  0.49433704089E+03  0.17567114222E+03 0.  0.
        -24    2    3    3    0    0 -0.16117576768E+03  0.11375401177E+03 -0.72727826972E+02  0.22480439838E+03  0.79561783745E+02 0.  0.
          6    2    1    2  501    0  0.42458233222E+03 -0.17021418639E+03  0.25973926487E+03  0.55446455967E+03  0.17528102047E+03 0.  0.
         24    2    5    5    0    0  0.12708201405E+03 -0.71594775143E+02  0.14264533471E+03  0.21985238705E+03  0.81925151541E+02 0.  0.
         12    1    6    6    0    0  0.47480711541E+02 -0.61428801130E+02  0.33936035767E+02  0.84732343886E+02  0.00000000000E+00 0. -1.
        -11    1    6    6    0    0  0.79601302510E+02 -0.10165974013E+02  0.10870929894E+03  0.13512004316E+03  0.00000000000E+00 0.  1.
          5    1    5    5  501    0  0.29750031817E+03 -0.98619411246E+02  0.11709393016E+03  0.33461217262E+03  0.47000000000E+01 0. -1.
         13    1    4    4    0    0  0.25994402698E+01 -0.81461629503E+01 -0.31402166881E+01  0.91092272657E+01  0.00000000000E+00 0. -1.
        -14    1    4    4    0    0 -0.16377520795E+03  0.12190017472E+03 -0.69587610284E+02  0.21569517111E+03  0.00000000000E+00 0.  1.
         -5    1    3    3    0  503 -0.26340656454E+03  0.56460174617E+02  0.74152423786E+01  0.26953264251E+03  0.47000000000E+01 0.  1.
</event>
<event>
12    1  0.9749377E-001  0.4745483E+03  0.7818608E-02  0.1020644E+00
         21   -1    0    0  503  502  0.00000000000E+00  0.00000000000E+00  0.16490767591E+03  0.16490767591E+03  0.00000000000E+00 0. -1.
         21   -1    0    0  501  503 -0.00000000000E+00 -0.00000000000E+00 -0.18532697410E+04  0.18532697410E+04  0.00000000000E+00 0.  1.
          6    2    1    2  501    0 -0.45423916889E+03  0.42742086244E+02 -0.13187300851E+04  0.14065336639E+04  0.17643072780E+03 0.  0.
         24    2    3    3    0    0 -0.27385725024E+03 -0.27795391244E+02 -0.66528301098E+03  0.72497050392E+03  0.84913895009E+02 0.  0.
         -6    2    1    2    0  502  0.45423916889E+03 -0.42742086244E+02 -0.36963197994E+03  0.61164375301E+03  0.17123133917E+03 0.  0.
        -24    2    5    5    0    0  0.10700647385E+03  0.13770736429E+02 -0.12626874136E+03  0.18384473533E+03  0.78835734524E+02 0.  0.
         14    1    4    4    0    0 -0.34964618238E+02 -0.34409551960E+02 -0.10988910139E+03  0.12034183146E+03  0.00000000000E+00 0. -1.
        -13    1    4    4    0    0 -0.23889263200E+03  0.66141607160E+01 -0.55539390960E+03  0.60462867246E+03  0.00000000000E+00 0.  1.
          5    1    3    3  501    0 -0.18038191865E+03  0.70537477488E+02 -0.65344707417E+03  0.68156315998E+03  0.47000000000E+01 0. -1.
         11    1    6    6    0    0  0.11063229145E+03  0.11556157519E+02 -0.79114898560E+02  0.13649987496E+03  0.00000000000E+00 0. -1.
        -12    1    6    6    0    0 -0.36258176085E+01  0.22145789104E+01 -0.47153842803E+02  0.47344860378E+02  0.00000000000E+00 0.  1.
         -5    1    5    5    0  502  0.34723269505E+03 -0.56512822673E+02 -0.24336323857E+03  0.42779901768E+03  0.47000000000E+01 0.  1.
</event>
<event>
12    1  0.9749377E-001  0.3854792E+03  0.7818608E-02  0.1048927E+00
         21   -1    0    0  501  502  0.00000000000E+00  0.00000000000E+00  0.22984428579E+03  0.22984428579E+03  0.00000000000E+00 0. -1.
         21   -1    0    0  502  503 -0.00000000000E+00 -0.00000000000E+00 -0.74666691617E+03  0.74666691617E+03  0.00000000000E+00 0.  1.
         -6    2    1    2    0  503  0.34347209776E+03  0.90388786450E+02 -0.40652042914E+03  0.56599632005E+03  0.17014629100E+03 0.  0.
        -24    2    3    3    0    0  0.63490223129E+02  0.28383931137E+02 -0.14184276213E+03  0.17572614489E+03  0.76965270402E+02 0.  0.
          6    2    1    2  501    0 -0.34347209776E+03 -0.90388786450E+02 -0.11030220124E+03  0.41051488191E+03  0.17381794502E+03 0.  0.
         24    2    5    5    0    0 -0.23747611069E+03 -0.12172475180E+03 -0.11074836012E+03  0.29988314569E+03  0.80329841608E+02 0.  0.
         14    1    6    6    0    0 -0.74663489183E+02 -0.17866442623E+02  0.97275425911E+00  0.76777552968E+02  0.00000000000E+00 0. -1.
        -13    1    6    6    0    0 -0.16281262150E+03 -0.10385830918E+03 -0.11172111438E+03  0.22310559272E+03  0.00000000000E+00 0.  1.
          5    1    5    5  501    0 -0.10599598707E+03  0.31335965348E+02  0.44615888344E+00  0.11063173621E+03  0.47000000000E+01 0. -1.
         13    1    4    4    0    0  0.33315929359E+02 -0.25447477961E+02 -0.53664744053E+02  0.68098678679E+02  0.00000000000E+00 0. -1.
        -14    1    4    4    0    0  0.30174293771E+02  0.53831409098E+02 -0.88178018080E+02  0.10762746621E+03  0.00000000000E+00 0.  1.
         -5    1    3    3    0  503  0.27998187463E+03  0.62004855312E+02 -0.26467766701E+03  0.39027017516E+03  0.47000000000E+01 0.  1.
</event>
<event>
12    1  0.9749377E-001  0.3636648E+03  0.7818608E-02  0.1057142E+00
         21   -1    0    0  503  502  0.00000000000E+00  0.00000000000E+00  0.66733839330E+03  0.66733839330E+03  0.00000000000E+00 0.  1.
         21   -1    0    0  501  503 -0.00000000000E+00 -0.00000000000E+00 -0.28465963869E+03  0.28465963869E+03  0.00000000000E+00 0. -1.
          6    2    1    2  501    0 -0.21213030466E+03 -0.29033409006E+03  0.38438935156E+03  0.55354646985E+03  0.17136327108E+03 0.  0.
         24    2    3    3    0    0 -0.10780084579E+03 -0.14609954394E+03  0.11143403968E+03  0.22764014501E+03  0.80227123387E+02 0.  0.
         -6    2    1    2    0  502  0.21213030466E+03  0.29033409006E+03 -0.17105969506E+01  0.39845156215E+03  0.17166121062E+03 0.  0.
        -24    2    5    5    0    0  0.20447831261E+03  0.26720803372E+03  0.42068817506E+02  0.34813163971E+03  0.78831082370E+02 0.  0.
         14    1    4    4    0    0 -0.59248321317E+02 -0.40823623338E+02  0.82192807701E+01  0.72418839936E+02  0.00000000000E+00 0. -1.
        -13    1    4    4    0    0 -0.48552524474E+02 -0.10527592060E+03  0.10321475891E+03  0.15522130507E+03  0.00000000000E+00 0.  1.
          5    1    3    3  501    0 -0.10432945887E+03 -0.14423454612E+03  0.27295531189E+03  0.32590632484E+03  0.47000000000E+01 0. -1.
         11    1    6    6    0    0  0.67112956104E+02  0.93930581002E+02  0.52380508644E+02  0.12677074036E+03  0.00000000000E+00 0. -1.
        -12    1    6    6    0    0  0.13736535651E+03  0.17327745272E+03 -0.10311691138E+02  0.22136089935E+03  0.00000000000E+00 0.  1.
         -5    1    5    5    0  502  0.76519920465E+01  0.23126056343E+02 -0.43779414457E+02  0.50319922441E+02  0.47000000000E+01 0.  1.
</event>
<event>
12    1  0.9749377E-001  0.6781942E+03  0.7818608E-02  0.9755267E-01
         21   -1    0    0  501  502  0.00000000000E+00  0.00000000000E+00  0.27045302992E+04  0.27045302992E+04  0.00000000000E+00 0. -1.
         21   -1    0    0  502  503 -0.00000000000E+00 -0.00000000000E+00 -0.18594230955E+03  0.18594230955E+03  0.00000000000E+00 0.  1.
         -6    2    1    2    0  503  0.53279877822E+03 -0.40311154490E+03  0.15939889463E+04  0.17368128264E+04  0.17130259043E+03 0.  0.
        -24    2    3    3    0    0  0.37180804476E+03 -0.34836606042E+03  0.11138109432E+04  0.12273934619E+04  0.79496911172E+02 0.  0.
          6    2    1    2  501    0 -0.53279877822E+03  0.40311154490E+03  0.92459904335E+03  0.11536597823E+04  0.17226156457E+03 0.  0.
         24    2    5    5    0    0 -0.14028983133E+03  0.14258938545E+03  0.23605842040E+03  0.31936645954E+03  0.79109974206E+02 0.  0.
         14    1    6    6    0    0 -0.63399302105E+02  0.69610488982E+02  0.17036554001E+03  0.19465227691E+03  0.00000000000E+00 0. -1.
        -13    1    6    6    0    0 -0.76890529230E+02  0.72978896467E+02  0.65692880388E+02  0.12471418263E+03  0.00000000000E+00 0.  1.
          5    1    5    5  501    0 -0.39250894689E+03  0.26052215945E+03  0.68854062295E+03  0.83429332276E+03  0.47000000000E+01 0. -1.
         13    1    4    4    0    0  0.14792464493E+03 -0.90141309241E+02  0.34529455301E+03  0.38631008859E+03  0.00000000000E+00 0. -1.
        -14    1    4    4    0    0  0.22388339983E+03 -0.25822475117E+03  0.76851639016E+03  0.84108337326E+03  0.00000000000E+00 0.  1.
         -5    1    3    3    0  503  0.16099073347E+03 -0.54745484481E+02  0.48017800312E+03  0.50941936458E+03  0.47000000000E+01 0.  1.
</event>
<event>
12    1  0.9749377E-001  0.2156934E+03  0.7818608E-02  0.1137135E+00
         21   -1    0    0  503  502  0.00000000000E+00  0.00000000000E+00  0.28236713388E+03  0.28236713388E+03  0.00000000000E+00 0. -1.
         21   -1    0    0  501  503 -0.00000000000E+00 -0.00000000000E+00 -0.37717157828E+03  0.37717157828E+03  0.00000000000E+00 0.  1.
          6    2    1    2  501    0  0.17767209238E+03 -0.45189301153E+02  0.16420578551E+03  0.29961980887E+03  0.17087727913E+03 0.  0.
         24    2    3    3    0    0  0.11939452224E+03 -0.66884469900E+01  0.28487767262E+02  0.14691073438E+03  0.80445159766E+02 0.  0.
         -6    2    1    2    0  502 -0.17767209238E+03  0.45189301153E+02 -0.25901022991E+03  0.35991890328E+03  0.16984072654E+03 0.  0.
        -24    2    5    5    0    0 -0.16113412391E+03 -0.82795154856E+01 -0.24042121918E+03  0.30075759774E+03  0.81363466613E+02 0.  0.
         14    1    4    4    0    0  0.12563956580E+03  0.91906037401E+01  0.30816141858E+02  0.12968963833E+03  0.00000000000E+00 0. -1.
        -13    1    4    4    0    0 -0.62450435569E+01 -0.15879050730E+02 -0.23283745959E+01  0.17221096056E+02  0.00000000000E+00 0.  1.
          5    1    3    3  501    0  0.58277570145E+02 -0.38500854163E+02  0.13571801825E+03  0.15270907449E+03  0.47000000000E+01 0. -1.
         13    1    6    6    0    0 -0.58503173553E+02 -0.10921109910E+02 -0.30045975689E+02  0.66668227909E+02  0.00000000000E+00 0. -1.
        -14    1    6    6    0    0 -0.10263095036E+03  0.26415944244E+01 -0.21037524349E+03  0.23408936983E+03  0.00000000000E+00 0.  1.
         -5    1    5    5    0  502 -0.16537968473E+02  0.53468816639E+02 -0.18589010728E+02  0.59161305545E+02  0.47000000000E+01 0.  1.
</event>
<event>
12    1  0.9749377E-001  0.8767014E+03  0.7818608E-02  0.9455184E-01
         21   -1    0    0  501  502  0.00000000000E+00  0.00000000000E+00  0.12491015890E+04  0.12491015890E+04  0.00000000000E+00 0. -1.
         21   -1    0    0  502  503 -0.00000000000E+00 -0.00000000000E+00 -0.87416935944E+03  0.87416935944E+03  0.00000000000E+00 0.  1.
         -6    2    1    2    0  503 -0.28721135675E+03 -0.81221640645E+03 -0.38713517338E+03  0.96003357989E+03  0.17206097091E+03 0.  0.
        -24    2    3    3    0    0 -0.12585114445E+03 -0.55250244893E+03 -0.23470041275E+03  0.61835111898E+03  0.78589795623E+02 0.  0.
          6    2    1    2  501    0  0.28721135675E+03  0.81221640645E+03  0.76206740298E+03  0.11632373686E+04  0.17374865360E+03 0.  0.
         24    2    5    5    0    0  0.26448754744E+03  0.55160652002E+03  0.54826152784E+03  0.82534844207E+03  0.79912028120E+02 0.  0.
         14    1    6    6    0    0  0.22250796983E+03  0.40727087802E+03  0.44512188064E+03  0.64304965077E+03  0.00000000000E+00 0. -1.
        -13    1    6    6    0    0  0.41979577606E+02  0.14433564199E+03  0.10313964720E+03  0.18229879130E+03  0.00000000000E+00 0.  1.
          5    1    5    5  501    0  0.22723809312E+02  0.26060988643E+03  0.21380587513E+03  0.33788892651E+03  0.47000000000E+01 0. -1.
         11    1    4    4    0    0 -0.23125620930E+02 -0.26951073456E+03 -0.97953413512E+02  0.28769028764E+03  0.00000000000E+00 0. -1.
        -12    1    4    4    0    0 -0.10272552352E+03 -0.28299171437E+03 -0.13674699923E+03  0.33066083134E+03  0.00000000000E+00 0.  1.
         -5    1    3    3    0  503 -0.16136021230E+03 -0.25971395752E+03 -0.15243476063E+03  0.34168246091E+03  0.47000000000E+01 0.  1.
</event>
<event>
12    1  0.9749377E-001  0.5173598E+03  0.7818608E-02  0.1009345E+00
         21   -1    0    0  501  502  0.00000000000E+00  0.00000000000E+00  0.17663399273E+03  0.17663399273E+03  0.00000000000E+00 0. -1.
         21   -1    0    0  502  503 -0.00000000000E+00 -0.00000000000E+00 -0.15626592783E+04  0.15626592783E+04  0.00000000000E+00 0.  1.
         -6    2    1    2    0  503 -0.36766071005E+03 -0.33385175850E+03 -0.70610158068E+03  0.88016322864E+03  0.17168713534E+03 0.  0.
        -24    2    3    3    0    0 -0.19506833642E+03 -0.26235903585E+03 -0.43640750209E+03  0.55205299891E+03  0.86180543970E+02 0.  0.
          6    2    1    2  501    0  0.36766071005E+03  0.33385175850E+03 -0.67992370493E+03  0.85913004243E+03  0.17081215094E+03 0.  0.
         24    2    5    5    0    0  0.21255196056E+03  0.11902773933E+03 -0.38518948755E+03  0.46277359644E+03  0.80265319873E+02 0.  0.
         12    1    6    6    0    0  0.19216269459E+03  0.13051330206E+03 -0.35953919163E+03  0.42805216216E+03  0.00000000000E+00 0. -1.
        -11    1    6    6    0    0  0.20389265967E+02 -0.11485562731E+02 -0.25650295918E+02  0.34721434283E+02  0.00000000000E+00 0.  1.
          5    1    5    5  501    0  0.15510874949E+03  0.21482401917E+03 -0.29473421738E+03  0.39635644599E+03  0.47000000000E+01 0. -1.
         13    1    4    4    0    0 -0.16036268197E+03 -0.20784518637E+03 -0.39829707534E+03  0.47702869043E+03  0.00000000000E+00 0. -1.
        -14    1    4    4    0    0 -0.34705654455E+02 -0.54513849482E+02 -0.38110426747E+02  0.75024308483E+02  0.00000000000E+00 0.  1.
         -5    1    3    3    0  503 -0.17259237363E+03 -0.71492722651E+02 -0.26969407859E+03  0.32811022973E+03  0.47000000000E+01 0.  1.
</event>
<event>
12    1  0.9749377E-001  0.4152399E+03  0.7818608E-02  0.1038627E+00
         21   -1    0    0  503  502  0.00000000000E+00  0.00000000000E+00  0.10227187961E+04  0.10227187961E+04  0.00000000000E+00 0.  1.
         21   -1    0    0  501  503 -0.00000000000E+00 -0.00000000000E+00 -0.90046367363E+03  0.90046367363E+03  0.00000000000E+00 0. -1.
          6    2    1    2  501    0 -0.21644020150E+03 -0.33398819272E+03  0.91886173759E+03  0.10163056258E+04  0.17371171122E+03 0.  0.
         24    2    3    3    0    0 -0.12793003427E+03 -0.15958372033E+03  0.63049753151E+03  0.66784189023E+03  0.81563445492E+02 0.  0.
         -6    2    1    2    0  502  0.21644020150E+03  0.33398819272E+03 -0.79660661515E+03  0.90687684385E+03  0.17160721693E+03 0.  0.
        -24    2    5    5    0    0  0.12131134585E+03  0.27722822988E+03 -0.66539053301E+03  0.73508935079E+03  0.77716524294E+02 0.  0.
         14    1    4    4    0    0 -0.13828445940E+03 -0.13682459933E+03  0.54079583372E+03  0.57472053771E+03  0.00000000000E+00 0. -1.
        -13    1    4    4    0    0  0.10354425138E+02 -0.22759121002E+02  0.89701697792E+02  0.93121352522E+02  0.00000000000E+00 0.  1.
          5    1    3    3  501    0 -0.88510167232E+02 -0.17440447238E+03  0.28836420608E+03  0.34846373562E+03  0.47000000000E+01 0. -1.
         13    1    6    6    0    0  0.58127695737E+02  0.93017804188E+02 -0.16493185584E+03  0.19807487973E+03  0.00000000000E+00 0. -1.
        -14    1    6    6    0    0  0.63183650109E+02  0.18421042569E+03 -0.50045867717E+03  0.53701447106E+03  0.00000000000E+00 0.  1.
         -5    1    5    5    0  502  0.95128855652E+02  0.56759962839E+02 -0.13121608214E+03  0.17178749306E+03  0.47000000000E+01 0.  1.
</event>
<event>
12    1  0.9749377E-001  0.3457833E+03  0.7818608E-02  0.1064359E+00
         21   -1    0    0  503  502  0.00000000000E+00  0.00000000000E+00  0.10449151813E+04  0.10449151813E+04  0.00000000000E+00 0.  1.
         21   -1    0    0  501  503 -0.00000000000E+00 -0.00000000000E+00 -0.12734105754E+03  0.12734105754E+03  0.00000000000E+00 0. -1.
          6    2    1    2  501    0 -0.31453435161E+03 -0.36959036133E+02  0.36938800149E+03  0.51592887330E+03  0.17157295232E+03 0.  0.
         24    2    3    3    0    0 -0.28716702834E+03  0.10589710521E+02  0.34384357715E+03  0.45522910966E+03  0.80175386504E+02 0.  0.
         -6    2    1    2    0  502  0.31453435161E+03  0.36959036133E+02  0.54818612232E+03  0.65632736558E+03  0.17308887143E+03 0.  0.
        -24    2    5    5    0    0  0.28989054968E+03  0.14345525469E+00  0.52863315863E+03  0.60767438666E+03  0.76017053513E+02 0.  0.
         14    1    4    4    0    0 -0.16486132236E+03  0.43709099191E+02  0.21614543820E+03  0.27533360024E+03  0.00000000000E+00 0. -1.
        -13    1    4    4    0    0 -0.12230570598E+03 -0.33119388670E+02  0.12769813894E+03  0.17989550942E+03  0.00000000000E+00 0.  1.
          5    1    3    3  501    0 -0.27367323270E+02 -0.47548746654E+02  0.25544424340E+02  0.60699763642E+02  0.47000000000E+01 0. -1.
         11    1    6    6    0    0  0.18607374280E+03  0.25508974779E+02  0.38776490384E+03  0.43085469268E+03  0.00000000000E+00 0. -1.
        -12    1    6    6    0    0  0.10381680688E+03 -0.25365519524E+02  0.14086825479E+03  0.17681969398E+03  0.00000000000E+00 0.  1.
         -5    1    5    5    0  502  0.24643801933E+02  0.36815580878E+02  0.19552963688E+02  0.48652978924E+02  0.47000000000E+01 0.  1.
</event>
<event>
12    1  0.9749377E-001  0.3841497E+03  0.7818608E-02  0.1049411E+00
         21   -1    0    0  503  502  0.00000000000E+00  0.00000000000E+00  0.14159952962E+03  0.14159952962E+03  0.00000000000E+00 0.  1.
         21   -1    0    0  501  503 -0.00000000000E+00 -0.00000000000E+00 -0.14315300671E+04  0.14315300671E+04  0.00000000000E+00 0. -1.
          6    2    1    2  501    0 -0.18638227912E+03 -0.30371152050E+03 -0.10190927124E+04  0.10932575306E+04  0.17228763735E+03 0.  0.
         24    2    3    3    0    0 -0.31448588902E+02 -0.17141059283E+03 -0.48015828351E+03  0.51708013385E+03  0.80307425055E+02 0.  0.
         -6    2    1    2    0  502  0.18638227912E+03  0.30371152050E+03 -0.27083782501E+03  0.47987206610E+03  0.17304632536E+03 0.  0.
        -24    2    5    5    0    0  0.59180870854E+02  0.21608059538E+03 -0.13053806383E+03  0.27114858806E+03  0.79297991920E+02 0.  0.
         14    1    4    4    0    0 -0.92178177510E+00 -0.10850807701E+03 -0.37814209631E+03  0.39340347921E+03  0.00000000000E+00 0. -1.
        -13    1    4    4    0    0 -0.30526807127E+02 -0.62902515827E+02 -0.10201618721E+03  0.12367665464E+03  0.00000000000E+00 0.  1.
          5    1    3    3  501    0 -0.15493369022E+03 -0.13230092766E+03 -0.53893442893E+03  0.57617739674E+03  0.47000000000E+01 0. -1.
         13    1    6    6    0    0  0.48962539473E+02  0.71825051033E+02 -0.20190662183E+02  0.89240299568E+02  0.00000000000E+00 0. -1.
        -14    1    6    6    0    0  0.10218331381E+02  0.14425554434E+03 -0.11034740165E+03  0.18190828849E+03  0.00000000000E+00 0.  1.
         -5    1    5    5    0  502  0.12720140826E+03  0.87630925120E+02 -0.14029976118E+03  0.20872347805E+03  0.47000000000E+01 0.  1.
</event>
<event>
12    1  0.9749377E-001  0.3969619E+03  0.7818608E-02  0.1044837E+00
         21   -1    0    0  501  502  0.00000000000E+00  0.00000000000E+00  0.73492049832E+02  0.73492049832E+02  0.00000000000E+00 0.  1.
         21   -1    0    0  502  503 -0.00000000000E+00 -0.00000000000E+00 -0.22309644741E+04  0.22309644741E+04  0.00000000000E+00 0. -1.
         -6    2    1    2    0  503 -0.16930040878E+03  0.32501754113E+03 -0.10402335865E+04  0.11163835834E+04  0.17299526118E+03 0.  0.
        -24    2    3    3    0    0 -0.49855226386E+02  0.19957070134E+03 -0.44908129737E+03  0.50035827538E+03  0.79814683211E+02 0.  0.
          6    2    1    2  501    0  0.16930040878E+03 -0.32501754113E+03 -0.11172388378E+04  0.11880729406E+04  0.17028112317E+03 0.  0.
         24    2    5    5    0    0  0.15678130992E+03 -0.15887263909E+03 -0.67167133169E+03  0.71234891465E+03  0.80484183536E+02 0.  0.
         12    1    6    6    0    0  0.12705101753E+03 -0.78504729543E+02 -0.37811350613E+03  0.40654000680E+03  0.00000000000E+00 0. -1.
        -11    1    6    6    0    0  0.29730292392E+02 -0.80367909545E+02 -0.29355782556E+03  0.30580890785E+03  0.00000000000E+00 0.  1.
          5    1    5    5  501    0  0.12519098862E+02 -0.16614490204E+03 -0.44556750615E+03  0.47572402594E+03  0.47000000000E+01 0. -1.
         11    1    4    4    0    0 -0.68844928613E+02  0.13391425778E+03 -0.33652622659E+03  0.36867676062E+03  0.00000000000E+00 0. -1.
        -12    1    4    4    0    0  0.18989702227E+02  0.65656443560E+02 -0.11255507078E+03  0.13168151476E+03  0.00000000000E+00 0.  1.
         -5    1    3    3    0  503 -0.11944518239E+03  0.12544683979E+03 -0.59115228909E+03  0.61602530801E+03  0.47000000000E+01 0.  1.
</event>
<event>
12    1  0.1037590E+000  0.7210673E+03  0.7818608E-02  0.9681868E-01
         21   -1    0    0  503  502  0.00000000000E+00  0.00000000000E+00  0.53359238403E+03  0.53359238403E+03  0.00000000000E+00 0.  1.
         21   -1    0    0  501  503 -0.00000000000E+00 -0.00000000000E+00 -0.99134463229E+03  0.99134463229E+03  0.00000000000E+00 0. -1.
          6    2    1    2  501    0  0.70471410747E+03  0.18282855988E+02 -0.28461481771E+03  0.77885923042E+03  0.16929226283E+03 0.  0.
         24    2    3    3    0    0  0.53264441722E+03 -0.46460516971E+02 -0.22274957063E+03  0.58482551829E+03  0.80838485865E+02 0.  0.
         -6    2    1    2    0  502 -0.70471410747E+03 -0.18282855988E+02 -0.17313743054E+03  0.74607778590E+03  0.17233472277E+03 0.  0.
        -24    2    5    5    0    0 -0.32720782325E+03 -0.53881989841E+02 -0.36117842561E+02  0.34287219263E+03  0.79300778692E+02 0.  0.
         14    1    4    4    0    0  0.10821863669E+03 -0.34544086187E+02 -0.70836566550E+02  0.13387451728E+03  0.00000000000E+00 0. -1.
        -13    1    4    4    0    0  0.42442578053E+03 -0.11916430784E+02 -0.15191300408E+03  0.45095100101E+03  0.00000000000E+00 0.  1.
          5    1    3    3  501    0  0.17206969025E+03  0.64743372959E+02 -0.61865247083E+02  0.19403371213E+03  0.47000000000E+01 0. -1.
         11    1    6    6    0    0 -0.26084537471E+03 -0.95537616941E+01 -0.23514249163E+02  0.26207728590E+03  0.00000000000E+00 0. -1.
        -12    1    6    6    0    0 -0.66362448538E+02 -0.44328228147E+02 -0.12603593399E+02  0.80794906728E+02  0.00000000000E+00 0.  1.
         -5    1    5    5    0  502 -0.37750628422E+03  0.35599133853E+02 -0.13701958798E+03  0.40320559328E+03  0.47000000000E+01 0.  1.
</event>
<event>
12    1  0.9749377E-001  0.4152002E+03  0.7818608E-02  0.1038640E+00
         21   -1    0    0  501  502  0.00000000000E+00  0.00000000000E+00  0.69043705357E+03  0.69043705357E+03  0.00000000000E+00 0.  1.
         21   -1    0    0  502  503 -0.00000000000E+00 -0.00000000000E+00 -0.43107992539E+03  0.43107992539E+03  0.00000000000E+00 0. -1.
         -6    2    1    2    0  503 -0.33739013204E+03 -0.20713677871E+03  0.47389507641E+03  0.64077142155E+03  0.17109566020E+03 0.  0.
        -24    2    3    3    0    0 -0.29775897762E+03 -0.15293783876E+03  0.30827352863E+03  0.46199575044E+03  0.79731510021E+02 0.  0.
          6    2    1    2  501    0  0.33739013204E+03  0.20713677871E+03 -0.21453794823E+03  0.48074555741E+03  0.16838056137E+03 0.  0.
         24    2    5    5    0    0  0.27571502303E+03  0.22584677320E+03 -0.19038715198E+03  0.41175835624E+03  0.79196827006E+02 0.  0.
         12    1    6    6    0    0  0.26989538004E+03  0.19750667444E+03 -0.18541805308E+03  0.38240326492E+03  0.00000000000E+00 0. -1.
        -11    1    6    6    0    0  0.58196429835E+01  0.28340098764E+02 -0.49690988974E+01  0.29355091317E+02  0.00000000000E+00 0.  1.
          5    1    5    5  501    0  0.61675109012E+02 -0.18709994491E+02 -0.24150796256E+02  0.68987201170E+02  0.47000000000E+01 0. -1.
         13    1    4    4    0    0 -0.13615784945E+03 -0.61290827541E+02  0.86020044924E+02  0.17232229582E+03  0.00000000000E+00 0. -1.
        -14    1    4    4    0    0 -0.16160112817E+03 -0.91647011222E+02  0.22225348370E+03  0.28967345462E+03  0.00000000000E+00 0.  1.
         -5    1    3    3    0  503 -0.39631154415E+02 -0.54198939945E+02  0.16562154778E+03  0.17877567111E+03  0.47000000000E+01 0.  1.
</event>
<event>
12    1  0.9749377E-001  0.4721223E+03  0.7818608E-02  0.1021323E+00
         21   -1    0    0  501  502  0.00000000000E+00  0.00000000000E+00  0.12128126223E+04  0.12128126223E+04  0.00000000000E+00 0. -1.
         21   -1    0    0  502  503 -0.00000000000E+00 -0.00000000000E+00 -0.19784965226E+03  0.19784965226E+03  0.00000000000E+00 0.  1.
         -6    2    1    2    0  503  0.45050400881E+03  0.70757362488E+02  0.44080208154E+03  0.65727567292E+03  0.17246555838E+03 0.  0.
        -24    2    3    3    0    0  0.27012027831E+03  0.13976659068E+02  0.34302524247E+03  0.44433263179E+03  0.81270283302E+02 0.  0.
          6    2    1    2  501    0 -0.45050400881E+03 -0.70757362488E+02  0.57416088851E+03  0.75338660166E+03  0.17311897459E+03 0.  0.
         24    2    5    5    0    0 -0.36898098181E+03 -0.10611352796E+03  0.41083259932E+03  0.56739121887E+03  0.75778128980E+02 0.  0.
         14    1    6    6    0    0 -0.33156733024E+03 -0.93706381201E+02  0.39688025130E+03  0.52557750545E+03  0.00000000000E+00 0. -1.
        -13    1    6    6    0    0 -0.37413651577E+02 -0.12407146760E+02  0.13952348016E+02  0.41813713423E+02  0.00000000000E+00 0.  1.
          5    1    5    5  501    0 -0.81523026992E+02  0.35356165474E+02  0.16332828919E+03  0.18599538279E+03  0.47000000000E+01 0. -1.
         11    1    4    4    0    0  0.19523699780E+03  0.46152402472E+02  0.23439351810E+03  0.30852528404E+03  0.00000000000E+00 0. -1.
        -12    1    4    4    0    0  0.74883280514E+02 -0.32175743403E+02  0.10863172437E+03  0.13580734775E+03  0.00000000000E+00 0.  1.
         -5    1    3    3    0  503  0.18038373049E+03  0.56780703419E+02  0.97776839075E+02  0.21294304113E+03  0.47000000000E+01 0.  1.
</event>
<event>
12    1  0.9749377E-001  0.4326008E+03  0.7818608E-02  0.1033042E+00
         21   -1    0    0  503  502  0.00000000000E+00  0.00000000000E+00  0.10799283655E+03  0.10799283655E+03  0.00000000000E+00 0. -1.
         21   -1    0    0  501  503 -0.00000000000E+00 -0.00000000000E+00 -0.20967283144E+04  0.20967283144E+04  0.00000000000E+00 0.  1.
          6    2    1    2  501    0 -0.65125110036E+02  0.40555421135E+03 -0.60455498801E+03  0.75072031352E+03  0.17140232583E+03 0.  0.
         24    2    3    3    0    0  0.26384507006E+02  0.18582044986E+03 -0.23554701614E+03  0.31157807090E+03  0.79831796021E+02 0.  0.
         -6    2    1    2    0  502  0.65125110036E+02 -0.40555421135E+03 -0.13841804898E+04  0.14540008374E+04  0.17160218091E+03 0.  0.
        -24    2    5    5    0    0  0.14529837474E+02 -0.95284474368E+02 -0.29429320614E+03  0.31967126783E+03  0.79315705035E+02 0.  0.
         12    1    4    4    0    0 -0.36455418236E+01  0.26075474192E+02 -0.11715364657E+01  0.26355129050E+02  0.00000000000E+00 0. -1.
        -11    1    4    4    0    0  0.30030048830E+02  0.15974497566E+03 -0.23437547968E+03  0.28522294185E+03  0.00000000000E+00 0.  1.
          5    1    3    3  501    0 -0.91509617043E+02  0.21973376150E+03 -0.36900797186E+03  0.43914224262E+03  0.47000000000E+01 0. -1.
         13    1    6    6    0    0  0.14896923225E+02 -0.10905984501E+03 -0.24710679994E+03  0.27051384196E+03  0.00000000000E+00 0. -1.
        -14    1    6    6    0    0 -0.36708575113E+00  0.13775370644E+02 -0.47186406202E+02  0.49157425874E+02  0.00000000000E+00 0.  1.
         -5    1    5    5    0  502  0.50595272562E+02 -0.31026973699E+03 -0.10898872837E+04  0.11343295696E+04  0.47000000000E+01 0.  1.
</event>
<event>
12    1  0.9749377E-001  0.2309114E+03  0.7818608E-02  0.1126000E+00
         21   -1    0    0  501  502  0.00000000000E+00  0.00000000000E+00  0.18982203181E+03  0.18982203181E+03  0.00000000000E+00 0.  1.
         21   -1    0    0  502  503 -0.00000000000E+00 -0.00000000000E+00 -0.52734377984E+03  0.52734377984E+03  0.00000000000E+00 0. -1.
         -6    2    1    2    0  503 -0.13194679382E+03  0.13303549891E+03 -0.38274170369E+03  0.45934486268E+03  0.17145871443E+03 0.  0.
        -24    2    3    3    0    0 -0.99553491984E+02  0.41028741322E+02 -0.30920986853E+03  0.33710088439E+03  0.80199800977E+02 0.  0.
          6    2    1    2  501    0  0.13194679382E+03 -0.13303549891E+03  0.45219955656E+02  0.25782094898E+03  0.17122615739E+03 0.  0.
         24    2    5    5    0    0  0.14739814007E+03 -0.99001837274E+02  0.72744368009E+02  0.21116564381E+03  0.88156738639E+02 0.  0.
         12    1    6    6    0    0  0.14346391656E+03 -0.61885771067E+02  0.75911510275E+02  0.17370751685E+03  0.00000000000E+00 0. -1.
        -11    1    6    6    0    0  0.39342235052E+01 -0.37116066206E+02 -0.31671422665E+01  0.37458126960E+02  0.00000000000E+00 0.  1.
          5    1    5    5  501    0 -0.15451346254E+02 -0.34033661640E+02 -0.27524412353E+02  0.46655305176E+02  0.47000000000E+01 0. -1.
         13    1    4    4    0    0  0.44550155319E+01  0.27716436384E+02 -0.47630351320E+02  0.55287416074E+02  0.00000000000E+00 0. -1.
        -14    1    4    4    0    0 -0.10400850752E+03  0.13312304938E+02 -0.26157951721E+03  0.28181346832E+03  0.00000000000E+00 0.  1.
         -5    1    3    3    0  503 -0.32393301831E+02  0.92006757591E+02 -0.73531835153E+02  0.12224397829E+03  0.47000000000E+01 0.  1.
</event>
<event>
12    1  0.9749377E-001  0.2700183E+03  0.7818608E-02  0.1101269E+00
         21   -1    0    0  503  502  0.00000000000E+00  0.00000000000E+00  0.54263746331E+02  0.54263746331E+02  0.00000000000E+00 0.  1.
         21   -1    0    0  501  503 -0.00000000000E+00 -0.00000000000E+00 -0.14950208375E+04  0.14950208375E+04  0.00000000000E+00 0. -1.
          6    2    1    2  501    0  0.17069801217E+03 -0.13349473340E+03 -0.53656057231E+03  0.60357005446E+03  0.17158352974E+03 0.  0.
         24    2    3    3    0    0  0.15819904117E+03 -0.16365447374E+03 -0.46250285494E+03  0.52249928466E+03  0.85363272216E+02 0.  0.
         -6    2    1    2    0  502 -0.17069801217E+03  0.13349473340E+03 -0.90419651890E+03  0.94571452941E+03  0.17275986554E+03 0.  0.
        -24    2    5    5    0    0 -0.44486606396E+02  0.12081298032E+03 -0.49929084510E+03  0.52137876556E+03  0.77263411855E+02 0.  0.
         12    1    4    4    0    0  0.11827167181E+03 -0.98916211875E+02 -0.22225943869E+03  0.27050298226E+03  0.00000000000E+00 0. -1.
        -11    1    4    4    0    0  0.39927369355E+02 -0.64738261865E+02 -0.24024341625E+03  0.25199630240E+03  0.00000000000E+00 0.  1.
          5    1    3    3  501    0  0.12498971004E+02  0.30159740342E+02 -0.74057717367E+02  0.81070769796E+02  0.47000000000E+01 0. -1.
         13    1    6    6    0    0  0.10650831536E+02 -0.55469775280E+01 -0.49348358049E+02  0.50788479149E+02  0.00000000000E+00 0. -1.
        -14    1    6    6    0    0 -0.55137437932E+02  0.12635995785E+03 -0.44994248705E+03  0.47059028641E+03  0.00000000000E+00 0.  1.
         -5    1    5    5    0  502 -0.12621140578E+03  0.12681753078E+02 -0.40490567380E+03  0.42433576385E+03  0.47000000000E+01 0.  1.
</event>
<event>
12    1  0.9749377E-001  0.4259399E+03  0.7818608E-02  0.1035150E+00
         21   -1    0    0  503  502  0.00000000000E+00  0.00000000000E+00  0.28862799329E+03  0.28862799329E+03  0.00000000000E+00 0. -1.
         21   -1    0    0  501  503 -0.00000000000E+00 -0.00000000000E+00 -0.66114192414E+03  0.66114192414E+03  0.00000000000E+00 0.  1.
          6    2    1    2  501    0 -0.39025998222E+03 -0.94910446489E+02 -0.20052149818E+03  0.48072054930E+03  0.17196664999E+03 0.  0.
         24    2    3    3    0    0 -0.31541256004E+03 -0.17758631151E+02 -0.18726809531E+03  0.37231260722E+03  0.61211812298E+02 0.  0.
         -6    2    1    2    0  502  0.39025998222E+03  0.94910446489E+02 -0.17199243267E+03  0.46904936813E+03  0.17063137540E+03 0.  0.
        -24    2    5    5    0    0  0.13061487522E+03  0.33926254902E+02 -0.13251517608E+02  0.15863767163E+03  0.82335118503E+02 0.  0.
         12    1    4    4    0    0 -0.28096462576E+03 -0.39137270207E+00 -0.14923529968E+03  0.31813904000E+03  0.00000000000E+00 0. -1.
        -11    1    4    4    0    0 -0.34447934281E+02 -0.17367258449E+02 -0.38032795637E+02  0.54173567228E+02  0.00000000000E+00 0.  1.
          5    1    3    3  501    0 -0.74847422185E+02 -0.77151815338E+02 -0.13253402868E+02  0.10840794208E+03  0.47000000000E+01 0. -1.
         11    1    6    6    0    0  0.49721082811E+02  0.55253950776E+02 -0.35114370132E+01  0.74414483417E+02  0.00000000000E+00 0. -1.
        -12    1    6    6    0    0  0.80893792412E+02 -0.21327695875E+02 -0.97400805949E+01  0.84223188210E+02  0.00000000000E+00 0.  1.
         -5    1    5    5    0  502  0.25964510700E+03  0.60984191587E+02 -0.15874091506E+03  0.31041169651E+03  0.47000000000E+01 0.  1.
</event>
<event>
12    1  0.9749377E-001  0.1948923E+03  0.7818608E-02  0.1154121E+00
         21   -1    0    0  503  502  0.00000000000E+00  0.00000000000E+00  0.82724014389E+03  0.82724014389E+03  0.00000000000E+00 0. -1.
         21   -1    0    0  501  503 -0.00000000000E+00 -0.00000000000E+00 -0.61535426664E+02  0.61535426664E+02  0.00000000000E+00 0.  1.
          6    2    1    2  501    0 -0.18072691035E+02 -0.14369838607E+03  0.35776817195E+03  0.42277084343E+03  0.17251455842E+03 0.  0.
         24    2    3    3    0    0 -0.25245782025E+02 -0.27816777216E+02  0.74390749348E+02  0.11649506223E+03  0.81400204733E+02 0.  0.
         -6    2    1    2    0  502  0.18072691035E+02  0.14369838607E+03  0.40793654527E+03  0.46600472712E+03  0.17254660939E+03 0.  0.
        -24    2    5    5    0    0  0.53078867814E+02  0.11147483287E+03  0.38700759602E+03  0.41381372492E+03  0.78885454846E+02 0.  0.
         14    1    4    4    0    0 -0.63675183878E+01 -0.53036102777E+02  0.63912424368E+02  0.83295687024E+02  0.00000000000E+00 0. -1.
        -13    1    4    4    0    0 -0.18878263637E+02  0.25219325560E+02  0.10478324980E+02  0.33199375206E+02  0.00000000000E+00 0.  1.
          5    1    3    3  501    0  0.71730909907E+01 -0.11588160886E+03  0.28337742261E+03  0.30627578120E+03  0.47000000000E+01 0. -1.
         11    1    6    6    0    0  0.68883045689E+02  0.79518022424E+02  0.23168633922E+03  0.25445343318E+03  0.00000000000E+00 0. -1.
        -12    1    6    6    0    0 -0.15804177875E+02  0.31956810443E+02  0.15532125679E+03  0.15936029174E+03  0.00000000000E+00 0.  1.
         -5    1    5    5    0  502 -0.35006176780E+02  0.32223553207E+02  0.20928949252E+02  0.52191002202E+02  0.47000000000E+01 0.  1.
</event>
<event>
12    1  0.9749377E-001  0.7588777E+03  0.7818608E-02  0.9621525E-01
         21   -1    0    0  503  502  0.00000000000E+00  0.00000000000E+00  0.37824116892E+03  0.37824116892E+03  0.00000000000E+00 0. -1.
         21   -1    0    0  501  503 -0.00000000000E+00 -0.00000000000E+00 -0.15676873821E+04  0.15676873821E+04  0.00000000000E+00 0.  1.
          6    2    1    2  501    0 -0.74812884334E+03 -0.25039000957E+02 -0.51595343242E+03  0.92476844449E+03  0.16930745314E+03 0.  0.
         24    2    3    3    0    0 -0.35077163201E+03 -0.19096165785E+01 -0.17297179873E+03  0.39932937773E+03  0.80624588745E+02 0.  0.
         -6    2    1    2    0  502  0.74812884334E+03  0.25039000957E+02 -0.67349278078E+03  0.10211601066E+04  0.16985793958E+03 0.  0.
        -24    2    5    5    0    0  0.20409907873E+03  0.30797682796E+02 -0.13480194019E+03  0.25551563361E+03  0.67169522393E+02 0.  0.
         12    1    4    4    0    0 -0.12230778235E+03 -0.37267426422E+02 -0.75085008491E+02  0.14827613833E+03  0.00000000000E+00 0. -1.
        -11    1    4    4    0    0 -0.22846384965E+03  0.35357809843E+02 -0.97886790237E+02  0.25105323941E+03  0.00000000000E+00 0.  1.
          5    1    3    3  501    0 -0.39735721134E+03 -0.23129384379E+02 -0.34298163369E+03  0.52543906676E+03  0.47000000000E+01 0. -1.
         11    1    6    6    0    0  0.34201343769E+02 -0.19522625275E+02 -0.18078695603E+02  0.43332482596E+02  0.00000000000E+00 0. -1.
        -12    1    6    6    0    0  0.16989773496E+03  0.50320308071E+02 -0.11672324458E+03  0.21218315102E+03  0.00000000000E+00 0.  1.
         -5    1    5    5    0  502  0.54402976461E+03 -0.57586818384E+01 -0.53869084059E+03  0.76564447294E+03  0.47000000000E+01 0.  1.
</event>
<event>
12    1  0.9749377E-001  0.6818102E+03  0.7818608E-02  0.9748855E-01
         21   -1    0    0  501  502  0.00000000000E+00  0.00000000000E+00  0.17404322267E+04  0.17404322267E+04  0.00000000000E+00 0.  1.
         21   -1    0    0  502  503 -0.00000000000E+00 -0.00000000000E+00 -0.27822498477E+03  0.27822498477E+03  0.00000000000E+00 0. -1.
         -6    2    1    2    0  503  0.20400840053E+01 -0.67399694225E+03  0.71151724541E+03  0.99531039015E+03  0.17352216604E+03 0.  0.
        -24    2    3    3    0    0 -0.47443288451E+02 -0.30357768571E+03  0.26969805697E+03  0.41661762621E+03  0.80143169690E+02 0.  0.
          6    2    1    2  501    0 -0.20400840053E+01  0.67399694225E+03  0.75068999648E+03  0.10233468213E+04  0.17154359712E+03 0.  0.
         24    2    5    5    0    0  0.24181267194E+02  0.48198104159E+03  0.44469194902E+03  0.66111131720E+03  0.80167238204E+02 0.  0.
         14    1    6    6    0    0  0.41067068542E+02  0.42805422160E+03  0.36890067521E+03  0.56657270400E+03  0.00000000000E+00 0. -1.
        -13    1    6    6    0    0 -0.16885801348E+02  0.53926819990E+02  0.75791273808E+02  0.94538613206E+02  0.00000000000E+00 0.  1.
          5    1    5    5  501    0 -0.26221351199E+02  0.19201590067E+03  0.30599804747E+03  0.36223550409E+03  0.47000000000E+01 0. -1.
         13    1    4    4    0    0  0.36077108700E+01 -0.32304417504E+01 -0.45959044024E+01  0.66763514662E+01  0.00000000000E+00 0. -1.
        -14    1    4    4    0    0 -0.51050999321E+02 -0.30034724396E+03  0.27429396138E+03  0.40994127474E+03  0.00000000000E+00 0.  1.
         -5    1    3    3    0  503  0.49483372456E+02 -0.37041925654E+03  0.44181918844E+03  0.57869276394E+03  0.47000000000E+01 0.  1.
</event>
<event>
12    1  0.9749377E-001  0.1671606E+03  0.7818608E-02  0.1180842E+00
         21   -1    0    0  501  502  0.00000000000E+00  0.00000000000E+00  0.45915305981E+03  0.45915305981E+03  0.00000000000E+00 0.  1.
         21   -1    0    0  502  503 -0.00000000000E+00 -0.00000000000E+00 -0.20361606100E+03  0.20361606100E+03  0.00000000000E+00 0.  1.
         -6    2    1    2    0  503  0.25732353530E+02 -0.12768700781E+03  0.36289397615E+03  0.42237565671E+03  0.17246168115E+03 0.  0.
        -24    2    3    3    0    0 -0.14672669097E+02 -0.12455438475E+03  0.34829568166E+03  0.37904461261E+03  0.81460754362E+02 0.  0.
          6    2    1    2  501    0 -0.25732353530E+02  0.12768700781E+03 -0.10735697735E+03  0.24039346411E+03  0.17116474817E+03 0.  0.
         24    2    5    5    0    0 -0.16052742775E+02  0.13631695453E+03 -0.13470314771E+03  0.20976547236E+03  0.83765223985E+02 0.  0.
         12    1    6    6    0    0 -0.24960093354E+02  0.13469868591E+03 -0.14260808744E+03  0.19774683019E+03  0.00000000000E+00 0. -1.
        -11    1    6    6    0    0  0.89073505785E+01  0.16182686196E+01  0.79049397272E+01  0.12018642176E+02  0.00000000000E+00 0.  1.
          5    1    5    5  501    0 -0.96796107549E+01 -0.86299467200E+01  0.27346170361E+02  0.30627991743E+02  0.47000000000E+01 0. -1.
         13    1    4    4    0    0  0.16862065158E+02 -0.38340976877E+02  0.42110994507E+02  0.59394407209E+02  0.00000000000E+00 0. -1.
        -14    1    4    4    0    0 -0.31534734255E+02 -0.86213407875E+02  0.30618468715E+03  0.31965020540E+03  0.00000000000E+00 0.  1.
         -5    1    3    3    0  503  0.40405022627E+02 -0.31326230603E+01  0.14598294491E+02  0.43331044100E+02  0.47000000000E+01 0.  1.
</event>
<event>
12    1  0.9749377E-001  0.2813780E+03  0.7818608E-02  0.1094939E+00
         21   -1    0    0  503  502  0.00000000000E+00  0.00000000000E+00  0.10042133859E+03  0.10042133859E+03  0.00000000000E+00 0. -1.
         21   -1    0    0  501  503 -0.00000000000E+00 -0.00000000000E+00 -0.11143829278E+04  0.11143829278E+04  0.00000000000E+00 0.  1.
          6    2    1    2  501    0  0.51971294866E+01  0.26912543758E+03 -0.68768686156E+03  0.75816691569E+03  0.17160518983E+03 0.  0.
         24    2    3    3    0    0  0.66440899164E+00  0.18140538455E+03 -0.60927351944E+03  0.64032763751E+03  0.76791320409E+02 0.  0.
         -6    2    1    2    0  502 -0.51971294866E+01 -0.26912543758E+03 -0.32627472768E+03  0.45663735072E+03  0.17206673370E+03 0.  0.
        -24    2    5    5    0    0  0.18279130752E+02 -0.16999521748E+03 -0.11242120656E+03  0.21971256555E+03  0.80016143307E+02 0.  0.
         12    1    4    4    0    0  0.17068990139E+02  0.96830597014E+02 -0.43435189963E+03  0.44534154046E+03  0.00000000000E+00 0. -1.
        -11    1    4    4    0    0 -0.16404581148E+02  0.84574787534E+02 -0.17492161981E+03  0.19498609706E+03  0.00000000000E+00 0.  1.
          5    1    3    3  501    0  0.45327204950E+01  0.87720053030E+02 -0.78413342118E+02  0.11783927818E+03  0.47000000000E+01 0. -1.
         13    1    6    6    0    0  0.49456682169E+02 -0.94523107440E+02 -0.71027287575E+02  0.12816183844E+03  0.00000000000E+00 0. -1.
        -14    1    6    6    0    0 -0.31177551417E+02 -0.75472110044E+02 -0.41393918984E+02  0.91550727117E+02  0.00000000000E+00 0.  1.
         -5    1    5    5    0  502 -0.23476260239E+02 -0.99130220093E+02 -0.21385352112E+03  0.23692478516E+03  0.47000000000E+01 0.  1.
</event>
<event>
12    1  0.9749377E-001  0.2072318E+03  0.7818608E-02  0.1143777E+00
         21   -1    0    0  501  502  0.00000000000E+00  0.00000000000E+00  0.90552560459E+02  0.90552560459E+02  0.00000000000E+00 0.  1.
         21   -1    0    0  502  503 -0.00000000000E+00 -0.00000000000E+00 -0.78569173232E+03  0.78569173232E+03  0.00000000000E+00 0. -1.
         -6    2    1    2    0  503 -0.10074384673E+03  0.84735938636E+02 -0.85837543084E+02  0.22984844321E+03  0.16772811658E+03 0.  0.
        -24    2    3    3    0    0  0.81896282875E+01  0.21387322649E+02 -0.88751414867E+01  0.82116082549E+02  0.78356845874E+02 0.  0.
          6    2    1    2  501    0  0.10074384673E+03 -0.84735938636E+02 -0.60930162877E+03  0.64639584957E+03  0.17102519570E+03 0.  0.
         24    2    5    5    0    0  0.62489611568E+02  0.19985551098E+02 -0.28827781122E+03  0.30653064341E+03  0.80947915981E+02 0.  0.
         14    1    6    6    0    0  0.77094165305E+02  0.22558857912E+02 -0.17831800622E+03  0.19557536587E+03  0.00000000000E+00 0. -1.
        -13    1    6    6    0    0 -0.14604553737E+02 -0.25733068133E+01 -0.10995980500E+03  0.11095527754E+03  0.00000000000E+00 0.  1.
          5    1    5    5  501    0  0.38254235157E+02 -0.10472148973E+03 -0.32102381756E+03  0.33986520616E+03  0.47000000000E+01 0. -1.
         13    1    4    4    0    0 -0.38137728333E+01 -0.29289986380E+02 -0.40492410744E+01  0.29813495579E+02  0.00000000000E+00 0. -1.
        -14    1    4    4    0    0  0.12003401121E+02  0.50677309030E+02 -0.48259004122E+01  0.52302586970E+02  0.00000000000E+00 0.  1.
         -5    1    3    3    0  503 -0.10893347501E+03  0.63348615986E+02 -0.76962401597E+02  0.14773236066E+03  0.47000000000E+01 0.  1.
</event>
<event>
12    1  0.9749377E-001  0.4333899E+03  0.7818608E-02  0.1032794E+00
         21   -1    0    0  501  502  0.00000000000E+00  0.00000000000E+00  0.67183889880E+03  0.67183889880E+03  0.00000000000E+00 0.  1.
         21   -1    0    0  502  503 -0.00000000000E+00 -0.00000000000E+00 -0.37836886626E+03  0.37836886626E+03  0.00000000000E+00 0. -1.
         -6    2    1    2    0  503 -0.36921146824E+03  0.19037204828E+03  0.38476386208E+03  0.59164888317E+03  0.17159996023E+03 0.  0.
        -24    2    3    3    0    0 -0.27873572396E+03  0.15420530802E+03  0.36633433134E+03  0.49237335241E+03  0.82205808895E+02 0.  0.
          6    2    1    2  501    0  0.36921146824E+03 -0.19037204828E+03 -0.91293829537E+02  0.45855888189E+03  0.17141487627E+03 0.  0.
         24    2    5    5    0    0  0.21521567041E+03 -0.50361275979E+02 -0.85837282868E+02  0.25030522404E+03  0.80191166235E+02 0.  0.
         14    1    6    6    0    0  0.12162231302E+03  0.11654086790E+02 -0.35269113816E+02  0.12716805870E+03  0.00000000000E+00 0. -1.
        -13    1    6    6    0    0  0.93593357390E+02 -0.62015362769E+02 -0.50568169052E+02  0.12313716534E+03  0.00000000000E+00 0.  1.
          5    1    5    5  501    0  0.15399579782E+03 -0.14001077230E+03 -0.54565466690E+01  0.20825365785E+03  0.47000000000E+01 0. -1.
         11    1    4    4    0    0 -0.96864816981E+02  0.16018579322E+02  0.13839022639E+03  0.16967982323E+03  0.00000000000E+00 0. -1.
        -12    1    4    4    0    0 -0.18187090698E+03  0.13818672870E+03  0.22794410495E+03  0.32269352918E+03  0.00000000000E+00 0.  1.
         -5    1    3    3    0  503 -0.90475744279E+02  0.36166740253E+02  0.18429530738E+02  0.99275530754E+02  0.47000000000E+01 0.  1.
</event>
<event>
12    1  0.9749377E-001  0.3793935E+03  0.7818608E-02  0.1051158E+00
         21   -1    0    0  501  502  0.00000000000E+00  0.00000000000E+00  0.17209935266E+03  0.17209935266E+03  0.00000000000E+00 0. -1.
         21   -1    0    0  502  503 -0.00000000000E+00 -0.00000000000E+00 -0.86110041392E+03  0.86110041392E+03  0.00000000000E+00 0.  1.
         -6    2    1    2    0  503  0.13745935058E+03  0.31467267764E+03 -0.40831378368E+03  0.56032432782E+03  0.17125781528E+03 0.  0.
        -24    2    3    3    0    0  0.15710721705E+03  0.31567721809E+03 -0.39756445679E+03  0.53741830706E+03  0.80163307014E+02 0.  0.
          6    2    1    2  501    0 -0.13745935058E+03 -0.31467267764E+03 -0.28068727758E+03  0.47287543876E+03  0.16404836382E+03 0.  0.
         24    2    5    5    0    0 -0.15870450907E+03 -0.30962097441E+03 -0.27325585820E+03  0.44933414613E+03  0.78613878188E+02 0.  0.
         14    1    6    6    0    0 -0.19414841670E+02 -0.11636167208E+03 -0.10184985681E+03  0.15585367542E+03  0.00000000000E+00 0. -1.
        -13    1    6    6    0    0 -0.13928966740E+03 -0.19325930233E+03 -0.17140600139E+03  0.29348047072E+03  0.00000000000E+00 0.  1.
          5    1    5    5  501    0  0.21245158487E+02 -0.50517032261E+01 -0.74314193814E+01  0.23541292629E+02  0.47000000000E+01 0. -1.
         11    1    4    4    0    0  0.13847442199E+03  0.20244963198E+03 -0.29362831866E+03  0.38259457465E+03  0.00000000000E+00 0. -1.
        -12    1    4    4    0    0  0.18632795066E+02  0.11322758611E+03 -0.10393613813E+03  0.15482373241E+03  0.00000000000E+00 0.  1.
         -5    1    3    3    0  503 -0.19647866471E+02 -0.10045404570E+01 -0.10749326889E+02  0.22906020757E+02  0.47000000000E+01 0.  1.
</event>
<event>
12    1  0.1153007E+000  0.9241900E+03  0.7818608E-02  0.9395838E-01
         21   -1    0    0  501  502  0.00000000000E+00  0.00000000000E+00  0.12556978072E+04  0.12556978072E+04  0.00000000000E+00 0.  1.
         21   -1    0    0  502  503 -0.00000000000E+00 -0.00000000000E+00 -0.80241777080E+03  0.80241777080E+03  0.00000000000E+00 0. -1.
         -6    2    1    2    0  503  0.67965808786E+03 -0.62419103806E+03  0.58775882104E+03  0.11074347347E+04  0.17146921476E+03 0.  0.
        -24    2    3    3    0    0  0.30356747477E+03 -0.28649820405E+03  0.34719177166E+03  0.54763548979E+03  0.71610548875E+02 0.  0.
          6    2    1    2  501    0 -0.67965808786E+03  0.62419103806E+03 -0.13447878468E+03  0.95068084321E+03  0.18482411566E+03 0.  0.
         24    2    5    5    0    0 -0.47470992075E+03  0.41128979462E+03 -0.16638902378E+03  0.65340816700E+03  0.68906614029E+02 0.  0.
         12    1    6    6    0    0 -0.36000662521E+03  0.30655592573E+03 -0.94239618879E+02  0.48214355907E+03  0.00000000000E+00 0. -1.
        -11    1    6    6    0    0 -0.11470329554E+03  0.10473386890E+03 -0.72149404900E+02  0.17126460793E+03  0.00000000000E+00 0.  1.
          5    1    5    5  501    0 -0.20494816711E+03  0.21290124344E+03  0.31910239097E+02  0.29727267621E+03  0.47000000000E+01 0. -1.
         11    1    4    4    0    0  0.14218603112E+03 -0.10803690667E+03  0.18705853646E+03  0.25861116896E+03  0.00000000000E+00 0. -1.
        -12    1    4    4    0    0  0.16138144365E+03 -0.17846129738E+03  0.16013323519E+03  0.28902432083E+03  0.00000000000E+00 0.  1.
         -5    1    3    3    0  503  0.37609061309E+03 -0.33769283401E+03  0.24056704938E+03  0.55979924495E+03  0.47000000000E+01 0.  1.
</event>
<event>
12    1  0.9749377E-001  0.2940267E+03  0.7818608E-02  0.1088265E+00
         21   -1    0    0  501  502  0.00000000000E+00  0.00000000000E+00  0.31893418167E+03  0.31893418167E+03  0.00000000000E+00 0.  1.
         21   -1    0    0  502  503 -0.00000000000E+00 -0.00000000000E+00 -0.32676241345E+03  0.32676241345E+03  0.00000000000E+00 0. -1.
         -6    2    1    2    0  503 -0.24958740338E+03  0.42410224370E+02  0.96883755646E+02  0.32137534766E+03  0.17263589697E+03 0.  0.
        -24    2    3    3    0    0 -0.16665284484E+03 -0.27216170182E+02  0.10198878645E+03  0.21286669751E+03  0.79978920573E+02 0.  0.
          6    2    1    2  501    0  0.24958740338E+03 -0.42410224370E+02 -0.10471198743E+03  0.32432124746E+03  0.17357180700E+03 0.  0.
         24    2    5    5    0    0  0.14809266395E+03  0.43069535852E+02 -0.63586880383E+02  0.18532003894E+03  0.80708137399E+02 0.  0.
         14    1    6    6    0    0  0.10868847278E+03  0.11009550031E+02 -0.72833232309E+01  0.10948717324E+03  0.00000000000E+00 0. -1.
        -13    1    6    6    0    0  0.39404191174E+02  0.32059985821E+02 -0.56303557152E+02  0.75832865704E+02  0.00000000000E+00 0.  1.
          5    1    5    5  501    0  0.10149473943E+03 -0.85479760222E+02 -0.41125107047E+02  0.13900120851E+03  0.47000000000E+01 0. -1.
         11    1    4    4    0    0 -0.20196061585E+02 -0.34750069934E+02  0.21737919291E+02  0.45694478869E+02  0.00000000000E+00 0. -1.
        -12    1    4    4    0    0 -0.14645678325E+03  0.75338997526E+01  0.80250867155E+02  0.16717221864E+03  0.00000000000E+00 0.  1.
         -5    1    3    3    0  503 -0.82934558542E+02  0.69626394552E+02 -0.51050308007E+01  0.10850865015E+03  0.47000000000E+01 0.  1.
</event>
<event>
12    1  0.9749377E-001  0.6017681E+03  0.7818608E-02  0.9901745E-01
         21   -1    0    0  501  502  0.00000000000E+00  0.00000000000E+00  0.99763854310E+03  0.99763854310E+03  0.00000000000E+00 0. -1.
         21   -1    0    0  502  503 -0.00000000000E+00 -0.00000000000E+00 -0.37300736843E+03  0.37300736843E+03  0.00000000000E+00 0.  1.
         -6    2    1    2    0  503  0.27759661102E+03  0.51459236500E+03  0.34833619853E+03  0.70152477550E+03  0.17009915597E+03 0.  0.
        -24    2    3    3    0    0  0.47771197163E+02  0.12391734200E+03  0.10407590687E+03  0.18661519651E+03  0.79723536367E+02 0.  0.
          6    2    1    2  501    0 -0.27759661102E+03 -0.51459236500E+03  0.27629497614E+03  0.66912113603E+03  0.17181094342E+03 0.  0.
         24    2    5    5    0    0 -0.74311710689E+02 -0.10595353514E+03  0.79166154965E+02  0.17193675765E+03  0.80910979379E+02 0.  0.
         12    1    6    6    0    0  0.67250921507E+01  0.11676833860E+01 -0.89777764652E+01  0.11277890724E+02  0.00000000000E+00 0. -1.
        -11    1    6    6    0    0 -0.81036802839E+02 -0.10712121853E+03  0.88143931430E+02  0.16065886692E+03  0.00000000000E+00 0.  1.
          5    1    5    5  501    0 -0.20328490033E+03 -0.40863882986E+03  0.19712882117E+03  0.49718437839E+03  0.47000000000E+01 0. -1.
         13    1    4    4    0    0  0.55992029522E+02  0.13058575902E+03  0.10391498698E+03  0.17602861230E+03  0.00000000000E+00 0. -1.
        -14    1    4    4    0    0 -0.82208323582E+01 -0.66684170140E+01  0.16091988989E+00  0.10586584215E+02  0.00000000000E+00 0.  1.
         -5    1    3    3    0  503  0.22982541386E+03  0.39067502300E+03  0.24426029166E+03  0.51490957899E+03  0.47000000000E+01 0.  1.
</event>
<event>
12    1  0.9749377E-001  0.6315199E+03  0.7818608E-02  0.9842087E-01
         21   -1    0    0  501  502  0.00000000000E+00  0.00000000000E+00  0.33967522308E+04  0.33967522308E+04  0.00000000000E+00 0. -1.
         21   -1    0    0  502  503 -0.00000000000E+00 -0.00000000000E+00 -0.13972512590E+03  0.13972512590E+03  0.00000000000E+00 0.  1.
         -6    2    1    2    0  503 -0.50394728921E+03  0.37003458077E+03  0.10358042021E+04  0.12223961872E+04  0.17456698479E+03 0.  0.
        -24    2    3    3    0    0 -0.45500785914E+03  0.30061040595E+03  0.96738985069E+03  0.11132293546E+04  0.77702668455E+02 0.  0.
          6    2    1    2  501    0  0.50394728921E+03 -0.37003458077E+03  0.22212229028E+04  0.23140811695E+04  0.17393106027E+03 0.  0.
         24    2    5    5    0    0  0.44313498889E+03 -0.30561075057E+03  0.20531008970E+04  0.21239873384E+04  0.79576198053E+02 0.  0.
         14    1    6    6    0    0  0.11858327476E+03 -0.90037967166E+02  0.71382826481E+03  0.72919107251E+03  0.00000000000E+00 0. -1.
        -13    1    6    6    0    0  0.32455171413E+03 -0.21557278341E+03  0.13392726322E+04  0.13947962659E+04  0.00000000000E+00 0.  1.
          5    1    5    5  501    0  0.60812300326E+02 -0.64423830200E+02  0.16812200581E+03  0.19009383106E+03  0.47000000000E+01 0. -1.
         11    1    4    4    0    0 -0.37100465288E+03  0.27841582802E+03  0.80646623830E+03  0.93034811725E+03  0.00000000000E+00 0. -1.
        -12    1    4    4    0    0 -0.84003206259E+02  0.22194577934E+02  0.16092361239E+03  0.18288123735E+03  0.00000000000E+00 0.  1.
         -5    1    3    3    0  503 -0.48939430073E+02  0.69424174819E+02  0.68414351401E+02  0.10916683261E+03  0.47000000000E+01 0.  1.
</event>
<event>
12    1  0.9749377E-001  0.3972741E+03  0.7818608E-02  0.1044728E+00
         21   -1    0    0  501  502  0.00000000000E+00  0.00000000000E+00  0.29121528157E+04  0.29121528157E+04  0.00000000000E+00 0. -1.
         21   -1    0    0  502  503 -0.00000000000E+00 -0.00000000000E+00 -0.77439382919E+02  0.77439382919E+02  0.00000000000E+00 0.  1.
         -6    2    1    2    0  503 -0.12537827579E+03 -0.35416812995E+03  0.21491127885E+04  0.21884143214E+04  0.17122116695E+03 0.  0.
        -24    2    3    3    0    0 -0.85321267700E+02 -0.33679326609E+03  0.16926044488E+04  0.17297985737E+04  0.81141005188E+02 0.  0.
          6    2    1    2  501    0  0.12537827579E+03  0.35416812995E+03  0.68560064426E+03  0.80117787722E+03  0.17516555376E+03 0.  0.
         24    2    5    5    0    0  0.48671038287E+01  0.70364496949E+02  0.16438877664E+03  0.19557788909E+03  0.79070789080E+02 0.  0.
         12    1    6    6    0    0  0.27115087949E+02  0.45887257429E+02  0.39386798041E+02  0.66273586358E+02  0.00000000000E+00 0. -1.
        -11    1    6    6    0    0 -0.22247984120E+02  0.24477239520E+02  0.12500197859E+03  0.12930430273E+03  0.00000000000E+00 0.  1.
          5    1    5    5  501    0  0.12051117196E+03  0.28380363300E+03  0.52121186762E+03  0.60559998813E+03  0.47000000000E+01 0. -1.
         13    1    4    4    0    0 -0.27190293213E+02 -0.24971643282E+03  0.12486529881E+04  0.12736686749E+04  0.00000000000E+00 0. -1.
        -14    1    4    4    0    0 -0.58130974487E+02 -0.87076833271E+02  0.44395146074E+03  0.45612989880E+03  0.00000000000E+00 0.  1.
         -5    1    3    3    0  503 -0.40057008087E+02 -0.17374863863E+02  0.45650833969E+03  0.45861574765E+03  0.47000000000E+01 0.  1.
</event>
<event>
12    1  0.9749377E-001  0.4051074E+03  0.7818608E-02  0.1042025E+00
         21   -1    0    0  501  502  0.00000000000E+00  0.00000000000E+00  0.34851752169E+03  0.34851752169E+03  0.00000000000E+00 0.  1.
         21   -1    0    0  502  503 -0.00000000000E+00 -0.00000000000E+00 -0.57918764969E+03  0.57918764969E+03  0.00000000000E+00 0. -1.
         -6    2    1    2    0  503  0.38477867222E+03  0.31160041922E+02 -0.27066855952E+03  0.50324242347E+03  0.17597128420E+03 0.  0.
        -24    2    3    3    0    0  0.25630218746E+03  0.61155231576E+02 -0.11276989424E+03  0.29742697936E+03  0.79466882135E+02 0.  0.
          6    2    1    2  501    0 -0.38477867222E+03 -0.31160041922E+02  0.39998431525E+02  0.42446274791E+03  0.17188128180E+03 0.  0.
         24    2    5    5    0    0 -0.13156154367E+03  0.38476285237E+02  0.34372419345E+00  0.15882630827E+03  0.80229756045E+02 0.  0.
         12    1    6    6    0    0 -0.13413226901E+03  0.39092519400E+02  0.18094520954E+02  0.14087974429E+03  0.00000000000E+00 0. -1.
        -11    1    6    6    0    0  0.25707253364E+01 -0.61623416370E+00 -0.17750796760E+02  0.17946563987E+02  0.00000000000E+00 0.  1.
          5    1    5    5  501    0 -0.25321712855E+03 -0.69636327159E+02  0.39654707331E+02  0.26563643964E+03  0.47000000000E+01 0. -1.
         13    1    4    4    0    0  0.21183196628E+03  0.77847492849E+02 -0.10638122973E+03  0.24949945916E+03  0.00000000000E+00 0. -1.
        -14    1    4    4    0    0  0.44470221181E+02 -0.16692261273E+02 -0.63886645101E+01  0.47927520200E+02  0.00000000000E+00 0.  1.
         -5    1    3    3    0  503  0.12847648476E+03 -0.29995189654E+02 -0.15789866529E+03  0.20581544412E+03  0.47000000000E+01 0.  1.
</event>
<event>
12    1  0.2600363E+000  0.1358436E+04  0.7818608E-02  0.8984467E-01
         21   -1    0    0  501  502  0.00000000000E+00  0.00000000000E+00  0.11585492621E+04  0.11585492621E+04  0.00000000000E+00 0.  1.
         21   -1    0    0  502  503 -0.00000000000E+00 -0.00000000000E+00 -0.15992385166E+04  0.15992385166E+04  0.00000000000E+00 0. -1.
         -6    2    1    2    0  503 -0.25966587271E+03 -0.13244555114E+04 -0.26192565306E+03  0.13856384077E+04  0.17256877487E+03 0.  0.
        -24    2    3    3    0    0 -0.82379975906E+02 -0.72131163156E+03 -0.10359808289E+03  0.73733096639E+03  0.76468692704E+02 0.  0.
          6    2    1    2  501    0  0.25966587271E+03  0.13244555114E+04 -0.17876360146E+03  0.13721493710E+04  0.17096404275E+03 0.  0.
         24    2    5    5    0    0  0.22892503797E+03  0.86727597796E+03 -0.85633262347E+02  0.90454539881E+03  0.79341212030E+02 0.  0.
         12    1    6    6    0    0  0.13248084891E+03  0.63960841731E+03 -0.58066110932E+02  0.65576045631E+03  0.00000000000E+00 0. -1.
        -11    1    6    6    0    0  0.96444189061E+02  0.22766756065E+03 -0.27567151415E+02  0.24878494249E+03  0.00000000000E+00 0.  1.
          5    1    5    5  501    0  0.30740834735E+02  0.45717953342E+03 -0.93130339116E+02  0.46760397214E+03  0.47000000000E+01 0. -1.
         11    1    4    4    0    0  0.98414121658E+01 -0.21328637353E+02 -0.82175506678E+01  0.24885584256E+02  0.00000000000E+00 0. -1.
        -12    1    4    4    0    0 -0.92221388072E+02 -0.69998299421E+03 -0.95380532225E+02  0.71244538214E+03  0.00000000000E+00 0.  1.
         -5    1    3    3    0  503 -0.17728589680E+03 -0.60314387982E+03 -0.15832757017E+03  0.64830744130E+03  0.47000000000E+01 0.  1.
</event>
<event>
12    1  0.9749377E-001  0.5584101E+03  0.7818608E-02  0.9995658E-01
         21   -1    0    0  501  502  0.00000000000E+00  0.00000000000E+00  0.96634621626E+03  0.96634621626E+03  0.00000000000E+00 0. -1.
         21   -1    0    0  502  503 -0.00000000000E+00 -0.00000000000E+00 -0.34405662512E+03  0.34405662512E+03  0.00000000000E+00 0.  1.
         -6    2    1    2    0  503 -0.17126197123E+03  0.52046086670E+03  0.37147530541E+03  0.68388405831E+03  0.17173621087E+03 0.  0.
        -24    2    3    3    0    0 -0.15898704702E+03  0.28128424980E+03  0.18821302399E+03  0.38228286198E+03  0.79487947882E+02 0.  0.
          6    2    1    2  501    0  0.17126197123E+03 -0.52046086670E+03  0.25081428573E+03  0.62651878307E+03  0.17148703467E+03 0.  0.
         24    2    5    5    0    0  0.39301146821E+02 -0.14209150716E+03  0.35104074214E+02  0.17140339466E+03  0.80076532927E+02 0.  0.
         14    1    6    6    0    0  0.23796357543E+02 -0.38562856546E+02  0.47903985029E+02  0.65940521070E+02  0.00000000000E+00 0. -1.
        -13    1    6    6    0    0  0.15504789278E+02 -0.10352865062E+03 -0.12799910816E+02  0.10546287359E+03  0.00000000000E+00 0.  1.
          5    1    5    5  501    0  0.13196082441E+03 -0.37836935954E+03  0.21571021151E+03  0.45511538841E+03  0.47000000000E+01 0. -1.
         13    1    4    4    0    0  0.18448385734E+01  0.17443410464E+02 -0.45098955219E+01  0.18111188685E+02  0.00000000000E+00 0. -1.
        -14    1    4    4    0    0 -0.16083188559E+03  0.26384083933E+03  0.19272291951E+03  0.36417167329E+03  0.00000000000E+00 0.  1.
         -5    1    3    3    0  503 -0.12274924215E+02  0.23917661690E+03  0.18326228142E+03  0.30160119633E+03  0.47000000000E+01 0.  1.
</event>
<event>
12    1  0.9749377E-001  0.1903768E+03  0.7818608E-02  0.1158122E+00
         21   -1    0    0  501  502  0.00000000000E+00  0.00000000000E+00  0.79232209028E+02  0.79232209028E+02  0.00000000000E+00 0. -1.
         21   -1    0    0  502  503 -0.00000000000E+00 -0.00000000000E+00 -0.11062871894E+04  0.11062871894E+04  0.00000000000E+00 0.  1.
         -6    2    1    2    0  503 -0.14686032204E+03  0.63776807215E+01 -0.88889152080E+03  0.91725478452E+03  0.17210338456E+03 0.  0.
        -24    2    3    3    0    0 -0.69103903401E+01 -0.27011604197E+02 -0.31226361642E+03  0.32292940408E+03  0.77443228383E+02 0.  0.
          6    2    1    2  501    0  0.14686032204E+03 -0.63776807215E+01 -0.13816345959E+03  0.26826461392E+03  0.17682797436E+03 0.  0.
         24    2    5    5    0    0  0.74084480466E+02 -0.41083276028E+02 -0.98970402170E+01  0.11668900308E+03  0.79636839593E+02 0.  0.
         14    1    6    6    0    0  0.41777303435E+02 -0.15516416759E+02 -0.44430941084E+02  0.62930205759E+02  0.00000000000E+00 0. -1.
        -13    1    6    6    0    0  0.32307177031E+02 -0.25566859269E+02  0.34533900867E+02  0.53758797324E+02  0.00000000000E+00 0.  1.
          5    1    5    5  501    0  0.72775841577E+02  0.34705595307E+02 -0.12826641937E+03  0.15157561084E+03  0.47000000000E+01 0. -1.
         11    1    4    4    0    0  0.22248637586E+02  0.89413760323E+01 -0.20092921454E+03  0.20235488463E+03  0.00000000000E+00 0. -1.
        -12    1    4    4    0    0 -0.29159027926E+02 -0.35952980230E+02 -0.11133440188E+03  0.12057451944E+03  0.00000000000E+00 0.  1.
         -5    1    3    3    0  503 -0.13994993170E+03  0.33389284919E+02 -0.57662790438E+03  0.59432538044E+03  0.47000000000E+01 0.  1.
</event>
<event>
12    1  0.9749377E-001  0.1142844E+04  0.7818608E-02  0.9164411E-01
         21   -1    0    0  503  502  0.00000000000E+00  0.00000000000E+00  0.16142226464E+04  0.16142226464E+04  0.00000000000E+00 0.  1.
         21   -1    0    0  501  503 -0.00000000000E+00 -0.00000000000E+00 -0.96134187400E+03  0.96134187400E+03  0.00000000000E+00 0. -1.
          6    2    1    2  501    0  0.90898659115E+03 -0.67734515284E+03 -0.17684294490E+03  0.11602043509E+04  0.17247501202E+03 0.  0.
         24    2    3    3    0    0  0.81430203954E+03 -0.65647662352E+03 -0.17229315246E+03  0.10630269336E+04  0.79321890496E+02 0.  0.
         -6    2    1    2    0  502 -0.90898659115E+03  0.67734515284E+03  0.82972371735E+03  0.14153601695E+04  0.17248154502E+03 0.  0.
        -24    2    5    5    0    0 -0.20922869796E+03  0.14193236343E+03  0.20620633454E+03  0.33595108080E+03  0.80128849043E+02 0.  0.
         12    1    4    4    0    0  0.49493003443E+03 -0.40611628151E+03 -0.66572170358E+02  0.64367540496E+03  0.00000000000E+00 0. -1.
        -11    1    4    4    0    0  0.31937200511E+03 -0.25036034201E+03 -0.10572098210E+03  0.41935152862E+03  0.00000000000E+00 0.  1.
          5    1    3    3  501    0  0.94684551606E+02 -0.20868529319E+02 -0.45497924401E+01  0.97177417336E+02  0.47000000000E+01 0. -1.
         11    1    6    6    0    0 -0.14377309039E+03  0.57974429657E+02  0.14935297411E+03  0.21526273920E+03  0.00000000000E+00 0. -1.
        -12    1    6    6    0    0 -0.65455607575E+02  0.83957933769E+02  0.56853360429E+02  0.12068834160E+03  0.00000000000E+00 0.  1.
         -5    1    5    5    0  502 -0.69975789319E+03  0.53541278941E+03  0.62351738281E+03  0.10794090887E+04  0.47000000000E+01 0.  1.
</event>
<event>
12    1  0.9749377E-001  0.2814800E+03  0.7818608E-02  0.1094883E+00
         21   -1    0    0  503  502  0.00000000000E+00  0.00000000000E+00  0.61422576250E+03  0.61422576250E+03  0.00000000000E+00 0.  1.
         21   -1    0    0  501  503 -0.00000000000E+00 -0.00000000000E+00 -0.16979456612E+03  0.16979456612E+03  0.00000000000E+00 0. -1.
          6    2    1    2  501    0 -0.93799666167E+02  0.24269949690E+03  0.12054307492E+03  0.33485317131E+03  0.17290052128E+03 0.  0.
         24    2    3    3    0    0 -0.96905009733E+02  0.20488530898E+03  0.36084358524E+02  0.24214437593E+03  0.77222063646E+02 0.  0.
         -6    2    1    2    0  502  0.93799666167E+02 -0.24269949690E+03  0.32388812146E+03  0.44916715731E+03  0.17072257267E+03 0.  0.
        -24    2    5    5    0    0 -0.10129497138E+02 -0.13987917573E+03  0.20308478457E+03  0.25945994703E+03  0.80045261406E+02 0.  0.
         12    1    4    4    0    0 -0.94914875649E+02  0.20708500462E+03  0.45476104779E+02  0.23229530529E+03  0.00000000000E+00 0. -1.
        -11    1    4    4    0    0 -0.19901340842E+01 -0.21996956331E+01 -0.93917462554E+01  0.98490706301E+01  0.00000000000E+00 0.  1.
          5    1    3    3  501    0  0.31053435659E+01  0.37814187913E+02  0.84458716401E+02  0.92708795388E+02  0.47000000000E+01 0. -1.
         13    1    6    6    0    0  0.17738762784E+02 -0.75176591590E+02  0.53037093681E+02  0.93696941969E+02  0.00000000000E+00 0. -1.
        -14    1    6    6    0    0 -0.27868259923E+02 -0.64702584138E+02  0.15004769089E+03  0.16576300506E+03  0.00000000000E+00 0.  1.
         -5    1    5    5    0  502  0.10392916331E+03 -0.10282032117E+03  0.12080333689E+03  0.18970721028E+03  0.47000000000E+01 0.  1.
</event>
<event>
12    1  0.9749377E-001  0.9575970E+03  0.7818608E-02  0.9356315E-01
         21   -1    0    0  501  502  0.00000000000E+00  0.00000000000E+00  0.69700935134E+03  0.69700935134E+03  0.00000000000E+00 0.  1.
         21   -1    0    0  502  503 -0.00000000000E+00 -0.00000000000E+00 -0.15278092561E+04  0.15278092561E+04  0.00000000000E+00 0. -1.
         -6    2    1    2    0  503  0.26459177197E+03  0.91359898785E+03 -0.80394038025E+03  0.12572385669E+04  0.17221138933E+03 0.  0.
        -24    2    3    3    0    0  0.23386640387E+03  0.72284967291E+03 -0.70147614560E+03  0.10384913182E+04  0.95866004105E+02 0.  0.
          6    2    1    2  501    0 -0.26459177197E+03 -0.91359898785E+03 -0.26859524482E+02  0.96758004056E+03  0.17554994855E+03 0.  0.
         24    2    5    5    0    0 -0.17015326492E+03 -0.36578187333E+03 -0.13517678019E+02  0.41150242238E+03  0.80018770200E+02 0.  0.
         14    1    6    6    0    0 -0.14363182206E+03 -0.32374462039E+03 -0.37793272284E+02  0.35618676417E+03  0.00000000000E+00 0. -1.
        -13    1    6    6    0    0 -0.26521442863E+02 -0.42037252942E+02  0.24275594265E+02  0.55315658212E+02  0.00000000000E+00 0.  1.
          5    1    5    5  501    0 -0.94438507050E+02 -0.54781711452E+03 -0.13341846463E+02  0.55607761818E+03  0.47000000000E+01 0. -1.
         13    1    4    4    0    0  0.10219053422E+03  0.22424163324E+03 -0.18069238989E+03  0.30557643091E+03  0.00000000000E+00 0. -1.
        -14    1    4    4    0    0  0.13167586965E+03  0.49860803968E+03 -0.52078375571E+03  0.73291488734E+03  0.00000000000E+00 0.  1.
         -5    1    3    3    0  503  0.30725368098E+02  0.19074931494E+03 -0.10246423465E+03  0.21874724862E+03  0.47000000000E+01 0.  1.
</event>
<event>
12    1  0.9749377E-001  0.3632983E+03  0.7818608E-02  0.1057285E+00
         21   -1    0    0  503  502  0.00000000000E+00  0.00000000000E+00  0.12162295257E+03  0.12162295257E+03  0.00000000000E+00 0.  1.
         21   -1    0    0  501  503 -0.00000000000E+00 -0.00000000000E+00 -0.14542231785E+04  0.14542231785E+04  0.00000000000E+00 0. -1.
          6    2    1    2  501    0 -0.22656716222E+03 -0.24506771553E+03 -0.31659474107E+03  0.49269701227E+03  0.17642916887E+03 0.  0.
         24    2    3    3    0    0 -0.15174819487E+03 -0.66239608452E+02 -0.14729468632E+03  0.23528301052E+03  0.79039041271E+02 0.  0.
         -6    2    1    2    0  502  0.22656716222E+03  0.24506771553E+03 -0.10160054848E+04  0.10831491188E+04  0.17191278048E+03 0.  0.
        -24    2    5    5    0    0  0.28535601130E+02  0.88697382678E+02 -0.30620587773E+03  0.32981934209E+03  0.79606863005E+02 0.  0.
         12    1    4    4    0    0 -0.10052825447E+03 -0.77527686607E+01 -0.55868132881E+02  0.11527048035E+03  0.00000000000E+00 0. -1.
        -11    1    4    4    0    0 -0.51219940406E+02 -0.58486839792E+02 -0.91426553438E+02  0.12001253017E+03  0.00000000000E+00 0.  1.
          5    1    3    3  501    0 -0.74818967350E+02 -0.17882810708E+03 -0.16930005475E+03  0.25741400175E+03  0.47000000000E+01 0. -1.
         13    1    6    6    0    0 -0.54703135388E+00  0.62817706467E+02 -0.26803422101E+03  0.27529748841E+03  0.00000000000E+00 0. -1.
        -14    1    6    6    0    0  0.29082632484E+02  0.25879676211E+02 -0.38171656716E+02  0.54521853687E+02  0.00000000000E+00 0.  1.
         -5    1    5    5    0  502  0.19803156109E+03  0.15637033285E+03 -0.70979960709E+03  0.75332977667E+03  0.47000000000E+01 0.  1.
</event>
<event>
12    1  0.9749377E-001  0.9119684E+03  0.7818608E-02  0.9410743E-01
         21   -1    0    0  503  502  0.00000000000E+00  0.00000000000E+00  0.30116845753E+04  0.30116845753E+04  0.00000000000E+00 0. -1.
         21   -1    0    0  501  503 -0.00000000000E+00 -0.00000000000E+00 -0.45682677177E+03  0.45682677177E+03  0.00000000000E+00 0.  1.
          6    2    1    2  501    0  0.89222026844E+03  0.14773416028E+03  0.23526566441E+04  0.25263791394E+04  0.17238295026E+03 0.  0.
         24    2    3    3    0    0  0.19290279753E+03  0.43430313165E+02  0.58206782022E+03  0.61982961453E+03  0.79297681591E+02 0.  0.
         -6    2    1    2    0  502 -0.89222026844E+03 -0.14773416028E+03  0.20220115946E+03  0.94213220768E+03  0.16983933095E+03 0.  0.
        -24    2    5    5    0    0 -0.57974269595E+03 -0.80990396412E+02  0.63618252660E+02  0.59381586385E+03  0.76869761740E+02 0.  0.
         14    1    4    4    0    0  0.37600159275E+02  0.38679522726E+02  0.10417409349E+03  0.11731205910E+03  0.00000000000E+00 0. -1.
        -13    1    4    4    0    0  0.15530263826E+03  0.47507904398E+01  0.47789372674E+03  0.50251755543E+03  0.00000000000E+00 0.  1.
          5    1    3    3  501    0  0.69931747091E+03  0.10430384712E+03  0.17705888238E+04  0.19065495249E+04  0.47000000000E+01 0. -1.
         13    1    6    6    0    0 -0.42706024752E+02 -0.21066061661E+02  0.20130027166E+02  0.51699144071E+02  0.00000000000E+00 0. -1.
        -14    1    6    6    0    0 -0.53703667119E+03 -0.59924334751E+02  0.43488225494E+02  0.54211671977E+03  0.00000000000E+00 0.  1.
         -5    1    5    5    0  502 -0.31247757249E+03 -0.66743763869E+02  0.13858290680E+03  0.34831634384E+03  0.47000000000E+01 0.  1.
</event>
<event>
12    1  0.9749377E-001  0.1932599E+03  0.7818608E-02  0.1155554E+00
         21   -1    0    0  503  502  0.00000000000E+00  0.00000000000E+00  0.13168862290E+03  0.13168862290E+03  0.00000000000E+00 0.  1.
         21   -1    0    0  501  503 -0.00000000000E+00 -0.00000000000E+00 -0.63536156976E+03  0.63536156976E+03  0.00000000000E+00 0. -1.
          6    2    1    2  501    0 -0.68411433505E+02  0.14410941088E+03 -0.47581852550E+03  0.53072625317E+03  0.17268306244E+03 0.  0.
         24    2    3    3    0    0 -0.98215190475E+02  0.10868450078E+03 -0.23395704034E+03  0.28442916388E+03  0.68596706877E+02 0.  0.
         -6    2    1    2    0  502  0.68411433505E+02 -0.14410941088E+03 -0.27854421358E+02  0.23632393949E+03  0.17212056544E+03 0.  0.
        -24    2    5    5    0    0  0.78672331435E+02 -0.55501230959E+02  0.32919036610E+02  0.12828598890E+03  0.78127521425E+02 0.  0.
         14    1    4    4    0    0 -0.25169231479E+02  0.20466409727E+02 -0.11420303571E+03  0.11872109124E+03  0.00000000000E+00 0. -1.
        -13    1    4    4    0    0 -0.73045958996E+02  0.88218091049E+02 -0.11975400463E+03  0.16570807264E+03  0.00000000000E+00 0.  1.
          5    1    3    3  501    0  0.29803756971E+02  0.35424910105E+02 -0.24186148517E+03  0.24629708929E+03  0.47000000000E+01 0. -1.
         11    1    6    6    0    0  0.14688641011E+02 -0.32554136563E+02 -0.21081828002E+02  0.41472538553E+02  0.00000000000E+00 0. -1.
        -12    1    6    6    0    0  0.63983690424E+02 -0.22947094396E+02  0.54000864612E+02  0.86813450342E+02  0.00000000000E+00 0.  1.
         -5    1    5    5    0  502 -0.10260897931E+02 -0.88608179921E+02 -0.60773457968E+02  0.10803795059E+03  0.47000000000E+01 0.  1.
</event>
<event>
12    1  0.9749377E-001  0.6688708E+03  0.7818608E-02  0.9772000E-01
         21   -1    0    0  501  502  0.00000000000E+00  0.00000000000E+00  0.17405243451E+04  0.17405243451E+04  0.00000000000E+00 0. -1.
         21   -1    0    0  502  503 -0.00000000000E+00 -0.00000000000E+00 -0.27195832677E+03  0.27195832677E+03  0.00000000000E+00 0.  1.
         -6    2    1    2    0  503 -0.45959337854E+03  0.47373146503E+03  0.60191191531E+03  0.90964636983E+03  0.17178762997E+03 0.  0.
        -24    2    3    3    0    0 -0.30475301362E+03  0.37865270438E+03  0.49099623086E+03  0.69671471791E+03  0.89898996614E+02 0.  0.
          6    2    1    2  501    0  0.45959337854E+03 -0.47373146503E+03  0.86665410303E+03  0.11028363020E+04  0.17178766037E+03 0.  0.
         24    2    5    5    0    0  0.31083876282E+03 -0.33434343176E+03  0.69948720617E+03  0.83916260043E+03  0.80655139576E+02 0.  0.
         14    1    6    6    0    0  0.19559002883E+03 -0.15131598492E+03  0.37094171813E+03  0.44581357642E+03  0.00000000000E+00 0. -1.
        -13    1    6    6    0    0  0.11524873399E+03 -0.18302744683E+03  0.32854548804E+03  0.39334902401E+03  0.00000000000E+00 0.  1.
          5    1    5    5  501    0  0.14875461572E+03 -0.13938803327E+03  0.16716689687E+03  0.26367370162E+03  0.47000000000E+01 0. -1.
         13    1    4    4    0    0 -0.38072524511E+01  0.19736945874E+02  0.47909067334E+02  0.51954989524E+02  0.00000000000E+00 0. -1.
        -14    1    4    4    0    0 -0.30094576117E+03  0.35891575851E+03  0.44308716352E+03  0.64475972839E+03  0.00000000000E+00 0.  1.
         -5    1    3    3    0  503 -0.15484036492E+03  0.95078760645E+02  0.11091568445E+03  0.21293165192E+03  0.47000000000E+01 0.  1.
</event>
<event>
12    1  0.9749377E-001  0.4941164E+03  0.7818608E-02  0.1015326E+00
         21   -1    0    0  503  502  0.00000000000E+00  0.00000000000E+00  0.70289759542E+03  0.70289759542E+03  0.00000000000E+00 0. -1.
         21   -1    0    0  501  503 -0.00000000000E+00 -0.00000000000E+00 -0.41598576775E+03  0.41598576775E+03  0.00000000000E+00 0.  1.
          6    2    1    2  501    0  0.14971570781E+03  0.45464311406E+03 -0.43846462325E+02  0.51207866420E+03  0.17659810800E+03 0.  0.
         24    2    3    3    0    0  0.14730879975E+03  0.41502604272E+03 -0.82035281115E+02  0.45679954131E+03  0.89384198660E+02 0.  0.
         -6    2    1    2    0  502 -0.14971570781E+03 -0.45464311406E+03  0.33075828999E+03  0.60680469897E+03  0.17232452514E+03 0.  0.
        -24    2    5    5    0    0 -0.25078915150E+02 -0.12740740386E+03  0.56794980196E+02  0.16217504945E+03  0.78825619859E+02 0.  0.
         12    1    4    4    0    0  0.21940733357E+02  0.16794486181E+03 -0.56548121564E+02  0.17856248890E+03  0.00000000000E+00 0. -1.
        -11    1    4    4    0    0  0.12536806640E+03  0.24708118091E+03 -0.25487159551E+02  0.27823705241E+03  0.00000000000E+00 0.  1.
          5    1    3    3  501    0  0.24069080613E+01  0.39617071336E+02  0.38188818790E+02  0.55279122896E+02  0.47000000000E+01 0. -1.
         13    1    6    6    0    0  0.16035957838E+02 -0.10209060143E+03  0.43242858276E+02  0.11202494203E+03  0.00000000000E+00 0. -1.
        -14    1    6    6    0    0 -0.41114872988E+02 -0.25316802423E+02  0.13552121920E+02  0.50150107420E+02  0.00000000000E+00 0.  1.
         -5    1    5    5    0  502 -0.12463679267E+03 -0.32723571020E+03  0.27396330980E+03  0.44462964952E+03  0.47000000000E+01 0.  1.
</event>
<event>
12    1  0.9749377E-001  0.4871819E+03  0.7818608E-02  0.1017180E+00
         21   -1    0    0  501  502  0.00000000000E+00  0.00000000000E+00  0.30986355407E+03  0.30986355407E+03  0.00000000000E+00 0.  1.
         21   -1    0    0  502  503 -0.00000000000E+00 -0.00000000000E+00 -0.11598887796E+04  0.11598887796E+04  0.00000000000E+00 0. -1.
         -6    2    1    2    0  503  0.23346928683E+02  0.46604293516E+03 -0.14421817212E+02  0.49741199495E+03  0.17166714134E+03 0.  0.
        -24    2    3    3    0    0  0.62421639501E+02  0.37086094868E+03  0.30576592309E+02  0.38501363893E+03  0.76591578074E+02 0.  0.
          6    2    1    2  501    0 -0.23346928683E+02 -0.46604293516E+03 -0.83560340834E+03  0.97234033875E+03  0.17167289194E+03 0.  0.
         24    2    5    5    0    0  0.49089643836E+02 -0.25041858882E+03 -0.45940041173E+03  0.53269081875E+03  0.87129256409E+02 0.  0.
         12    1    6    6    0    0  0.37150967160E+02 -0.46573706911E+02 -0.15587948367E+03  0.16687635532E+03  0.00000000000E+00 0. -1.
        -11    1    6    6    0    0  0.11938676676E+02 -0.20384488191E+03 -0.30352092806E+03  0.36581446342E+03  0.00000000000E+00 0.  1.
          5    1    5    5  501    0 -0.72436572520E+02 -0.21562434634E+03 -0.37620299661E+03  0.43964952000E+03  0.47000000000E+01 0. -1.
         13    1    4    4    0    0  0.38981643667E+02  0.33486240028E+03  0.97271799890E+01  0.33726401186E+03  0.00000000000E+00 0. -1.
        -14    1    4    4    0    0  0.23439995833E+02  0.35998548405E+02  0.20849412320E+02  0.47749627078E+02  0.00000000000E+00 0.  1.
         -5    1    3    3    0  503 -0.39074710818E+02  0.95181986480E+02 -0.44998409521E+02  0.11239835602E+03  0.47000000000E+01 0.  1.
</event>
<event>
12    1  0.1026545E+000  0.6766106E+03  0.7818608E-02  0.9758089E-01
         21   -1    0    0  501  502  0.00000000000E+00  0.00000000000E+00  0.12089308809E+04  0.12089308809E+04  0.00000000000E+00 0.  1.
         21   -1    0    0  502  503 -0.00000000000E+00 -0.00000000000E+00 -0.47354714487E+03  0.47354714487E+03  0.00000000000E+00 0. -1.
         -6    2    1    2    0  503  0.72108743465E+02 -0.65491090250E+03  0.73131383789E+03  0.99929122890E+03  0.17220647364E+03 0.  0.
        -24    2    3    3    0    0  0.44901989568E+01 -0.44880512397E+03  0.42092794619E+03  0.62059167613E+03  0.80669023809E+02 0.  0.
          6    2    1    2  501    0 -0.72108743465E+02  0.65491090250E+03  0.40698981262E+01  0.68318679686E+03  0.18060917537E+03 0.  0.
         24    2    5    5    0    0  0.16106861356E+02  0.46710043737E+03  0.24327724607E+02  0.47465086882E+03  0.79116114137E+02 0.  0.
         14    1    6    6    0    0  0.30838333561E+02  0.44659402208E+03  0.15577963063E+02  0.44792844999E+03  0.00000000000E+00 0. -1.
        -13    1    6    6    0    0 -0.14731472205E+02  0.20506415288E+02  0.87497615438E+01  0.26722418834E+02  0.00000000000E+00 0.  1.
          5    1    5    5  501    0 -0.88215604821E+02  0.18781046513E+03 -0.20257826481E+02  0.20853592804E+03  0.47000000000E+01 0. -1.
         11    1    4    4    0    0  0.79936535550E+01 -0.10866292303E+01  0.50878770252E+01  0.95375968077E+01  0.00000000000E+00 0. -1.
        -12    1    4    4    0    0 -0.35034545982E+01 -0.44771849474E+03  0.41584006917E+03  0.61105407932E+03  0.00000000000E+00 0.  1.
         -5    1    3    3    0  503  0.67618544508E+02 -0.20610577853E+03  0.31038589170E+03  0.37869955277E+03  0.47000000000E+01 0.  1.
</event>
<event>
12    1  0.9749377E-001  0.3868042E+03  0.7818608E-02  0.1048447E+00
         21   -1    0    0  503  502  0.00000000000E+00  0.00000000000E+00  0.40203719675E+03  0.40203719675E+03  0.00000000000E+00 0.  1.
         21   -1    0    0  501  503 -0.00000000000E+00 -0.00000000000E+00 -0.45421081425E+03  0.45421081425E+03  0.00000000000E+00 0. -1.
          6    2    1    2  501    0 -0.21266516688E+03  0.29994076442E+03  0.99430964628E+02  0.41801316652E+03  0.17221369079E+03 0.  0.
         24    2    3    3    0    0 -0.17118736868E+03  0.13193464425E+03  0.60288292832E+02  0.24052879281E+03  0.86646156111E+02 0.  0.
         -6    2    1    2    0  502  0.21266516688E+03 -0.29994076442E+03 -0.15160458213E+03  0.43823484448E+03  0.18405133585E+03 0.  0.
        -24    2    5    5    0    0  0.11549212386E+03 -0.12826956282E+03  0.10791071323E+01  0.18873935211E+03  0.76353566654E+02 0.  0.
         12    1    4    4    0    0 -0.55151730751E+02  0.85604623671E+01  0.42654857858E+02  0.70245511029E+02  0.00000000000E+00 0. -1.
        -11    1    4    4    0    0 -0.11603563792E+03  0.12337418189E+03  0.17633434974E+02  0.17028328178E+03  0.00000000000E+00 0.  1.
          5    1    3    3  501    0 -0.41477798202E+02  0.16800612016E+03  0.39142671797E+02  0.17748437371E+03  0.47000000000E+01 0. -1.
         13    1    6    6    0    0  0.11880742637E+03 -0.12804026573E+03 -0.12157148432E+02  0.17509229128E+03  0.00000000000E+00 0. -1.
        -14    1    6    6    0    0 -0.33153025036E+01 -0.22929709255E+00  0.13236255564E+02  0.13647060827E+02  0.00000000000E+00 0.  1.
         -5    1    5    5    0  502  0.97173043015E+02 -0.17167120160E+03 -0.15268368927E+03  0.24949549237E+03  0.47000000000E+01 0.  1.
</event>
<event>
12    1  0.9749377E-001  0.5792042E+03  0.7818608E-02  0.9949515E-01
         21   -1    0    0  503  502  0.00000000000E+00  0.00000000000E+00  0.15979121558E+04  0.15979121558E+04  0.00000000000E+00 0.  1.
         21   -1    0    0  501  503 -0.00000000000E+00 -0.00000000000E+00 -0.30017210778E+03  0.30017210778E+03  0.00000000000E+00 0. -1.
          6    2    1    2  501    0 -0.50016484374E+03 -0.27620470796E+03  0.11304337895E+04  0.12783771030E+04  0.17295535082E+03 0.  0.
         24    2    3    3    0    0 -0.14482553522E+03 -0.54250014001E+02  0.35133102946E+03  0.39375678271E+03  0.87712097190E+02 0.  0.
         -6    2    1    2    0  502  0.50016484374E+03  0.27620470796E+03  0.16730625850E+03  0.61970716058E+03  0.17202229250E+03 0.  0.
        -24    2    5    5    0    0  0.25458773037E+03  0.17338525658E+03  0.15274642261E+03  0.35303500789E+03  0.80155396090E+02 0.  0.
         14    1    4    4    0    0 -0.63437782861E+02  0.46949738544E+01  0.21614943647E+03  0.22531527680E+03  0.00000000000E+00 0. -1.
        -13    1    4    4    0    0 -0.81387752363E+02 -0.58944987855E+02  0.13518159299E+03  0.16844150590E+03  0.00000000000E+00 0.  1.
          5    1    3    3  501    0 -0.35533930852E+03 -0.22195469396E+03  0.77910276002E+03  0.88462032027E+03  0.47000000000E+01 0. -1.
         13    1    6    6    0    0  0.17231208640E+03  0.10286831883E+03  0.57479596921E+02  0.20875164718E+03  0.00000000000E+00 0. -1.
        -14    1    6    6    0    0  0.82275643962E+02  0.70516937747E+02  0.95266825692E+02  0.14428336070E+03  0.00000000000E+00 0.  1.
         -5    1    5    5    0  502  0.24557711338E+03  0.10281945139E+03  0.14559835891E+02  0.26667215269E+03  0.47000000000E+01 0.  1.
</event>
<event>
12    1  0.9749377E-001  0.4009487E+03  0.7818608E-02  0.1043452E+00
         21   -1    0    0  503  502  0.00000000000E+00  0.00000000000E+00  0.15386430519E+03  0.15386430519E+03  0.00000000000E+00 0. -1.
         21   -1    0    0  501  503 -0.00000000000E+00 -0.00000000000E+00 -0.13906703268E+04  0.13906703268E+04  0.00000000000E+00 0.  1.
          6    2    1    2  501    0 -0.33931192690E+03  0.15949687393E+03 -0.96899234514E+03  0.10526093581E+04  0.16872598883E+03 0.  0.
         24    2    3    3    0    0 -0.17810708459E+03  0.15014159775E+03 -0.52019768197E+03  0.57562585518E+03  0.80466538804E+02 0.  0.
         -6    2    1    2    0  502  0.33931192690E+03 -0.15949687393E+03 -0.26781367651E+03  0.49192527393E+03  0.17232084400E+03 0.  0.
        -24    2    5    5    0    0  0.77723546956E+02 -0.27657492832E+02 -0.42255553586E+02  0.12218393225E+03  0.79608384169E+02 0.  0.
         12    1    4    4    0    0 -0.15194223475E+03  0.10972150864E+03 -0.47038057709E+03  0.50634290699E+03  0.00000000000E+00 0. -1.
        -11    1    4    4    0    0 -0.26164849841E+02  0.40420089108E+02 -0.49817104883E+02  0.69282948188E+02  0.00000000000E+00 0.  1.
          5    1    3    3  501    0 -0.16120484230E+03  0.93552761800E+01 -0.44879466317E+03  0.47698350293E+03  0.47000000000E+01 0. -1.
         11    1    6    6    0    0 -0.45727200734E+01 -0.29148431273E+02 -0.23610425089E+02  0.37788794469E+02  0.00000000000E+00 0. -1.
        -12    1    6    6    0    0  0.82296267029E+02  0.14909384410E+01 -0.18645128497E+02  0.84395137781E+02  0.00000000000E+00 0.  1.
         -5    1    5    5    0  502  0.26158837994E+03 -0.13183938110E+03 -0.22555812293E+03  0.36974134168E+03  0.47000000000E+01 0.  1.
</event>
<event>
12    1  0.9749377E-001  0.3110452E+03  0.7818608E-02  0.1079846E+00
         21   -1    0    0  503  502  0.00000000000E+00  0.00000000000E+00  0.92743184704E+02  0.92743184704E+02  0.00000000000E+00 0.  1.
         21   -1    0    0  501  503 -0.00000000000E+00 -0.00000000000E+00 -0.12576938466E+04  0.12576938466E+04  0.00000000000E+00 0. -1.
          6    2    1    2  501    0  0.25951045197E+03 -0.10387959432E+03 -0.39259546749E+03  0.51134289091E+03  0.17089091899E+03 0.  0.
         24    2    3    3    0    0  0.90954700774E+02 -0.47851131372E+02 -0.82506671887E+02  0.15395321411E+03  0.79572312169E+02 0.  0.
         -6    2    1    2    0  502 -0.25951045197E+03  0.10387959432E+03 -0.77235519436E+03  0.83909414035E+03  0.17149281418E+03 0.  0.
        -24    2    5    5    0    0 -0.16980013454E+03  0.11037177744E+02 -0.56029100819E+03  0.59077788146E+03  0.78349131388E+02 0.  0.
         14    1    4    4    0    0  0.93832602593E+02 -0.63993604179E+02 -0.71703810851E+02  0.13431744182E+03  0.00000000000E+00 0. -1.
        -13    1    4    4    0    0 -0.28779018197E+01  0.16142472807E+02 -0.10802861036E+02  0.19635772299E+02  0.00000000000E+00 0.  1.
          5    1    3    3  501    0  0.16855575119E+03 -0.56028462952E+02 -0.31008879560E+03  0.35738967679E+03  0.47000000000E+01 0. -1.
         13    1    6    6    0    0 -0.52430151642E+01 -0.17464415671E+02 -0.33412915346E+02  0.38064654664E+02  0.00000000000E+00 0. -1.
        -14    1    6    6    0    0 -0.16455711937E+03  0.28501593415E+02 -0.52687809284E+03  0.55271322680E+03  0.00000000000E+00 0.  1.
         -5    1    5    5    0  502 -0.89710317431E+02  0.92842416580E+02 -0.21206418618E+03  0.24831625889E+03  0.47000000000E+01 0.  1.
</event>
<event>
12    1  0.9749377E-001  0.5366955E+03  0.7818608E-02  0.1004621E+00
         21   -1    0    0  503  502  0.00000000000E+00  0.00000000000E+00  0.59736148023E+03  0.59736148023E+03  0.00000000000E+00 0. -1.
         21   -1    0    0  501  503 -0.00000000000E+00 -0.00000000000E+00 -0.51914890415E+03  0.51914890415E+03  0.00000000000E+00 0.  1.
          6    2    1    2  501    0 -0.11456935050E+03 -0.51682626112E+03  0.16882246860E+02  0.55672626522E+03  0.17153309847E+03 0.  0.
         24    2    3    3    0    0  0.69884969638E+01 -0.18923071264E+03 -0.11166685923E+02  0.20614961698E+03  0.80720926713E+02 0.  0.
         -6    2    1    2    0  502  0.11456935050E+03  0.51682626112E+03  0.61330329220E+02  0.55978411915E+03  0.17135148240E+03 0.  0.
        -24    2    5    5    0    0  0.10855677965E+03  0.41789914294E+03 -0.69473731418E+01  0.43934052091E+03  0.80916989800E+02 0.  0.
         12    1    4    4    0    0 -0.33131506114E+01 -0.56551740107E+02  0.33454640363E+02  0.65789735050E+02  0.00000000000E+00 0. -1.
        -11    1    4    4    0    0  0.10301647575E+02 -0.13267897253E+03 -0.44621326286E+02  0.14035988193E+03  0.00000000000E+00 0.  1.
          5    1    3    3  501    0 -0.12155784747E+03 -0.32759554848E+03  0.28048932783E+02  0.35057664824E+03  0.47000000000E+01 0. -1.
         11    1    6    6    0    0  0.11247457918E+02  0.14179047840E+03  0.26494138957E+02  0.14468235716E+03  0.00000000000E+00 0. -1.
        -12    1    6    6    0    0  0.97309321737E+02  0.27610866455E+03 -0.33441512099E+02  0.29465816375E+03  0.00000000000E+00 0.  1.
         -5    1    5    5    0  502  0.60125708483E+01  0.98927118174E+02  0.68277702362E+02  0.12044359825E+03  0.47000000000E+01 0.  1.
</event>
<event>
12    1  0.9749377E-001  0.3943382E+03  0.7818608E-02  0.1045758E+00
         21   -1    0    0  501  502  0.00000000000E+00  0.00000000000E+00  0.21939891175E+03  0.21939891175E+03  0.00000000000E+00 0.  1.
         21   -1    0    0  502  503 -0.00000000000E+00 -0.00000000000E+00 -0.76812482060E+03  0.76812482060E+03  0.00000000000E+00 0. -1.
         -6    2    1    2    0  503 -0.16648902807E+03  0.33037347783E+03 -0.22066073531E+03  0.46384864343E+03  0.17204410068E+03 0.  0.
        -24    2    3    3    0    0 -0.14179913420E+03  0.17184423471E+03 -0.81027503800E+02  0.25110315905E+03  0.82764150734E+02 0.  0.
          6    2    1    2  501    0  0.16648902807E+03 -0.33037347783E+03 -0.32806517354E+03  0.52367508892E+03  0.17246335654E+03 0.  0.
         24    2    5    5    0    0  0.15456925478E+03 -0.17584289671E+03 -0.16315909062E+03  0.29731721369E+03  0.83452129154E+02 0.  0.
         14    1    6    6    0    0  0.57723852947E+02 -0.14274405811E+02 -0.29749974754E+02  0.66489569544E+02  0.00000000000E+00 0. -1.
        -13    1    6    6    0    0  0.96845401829E+02 -0.16156849090E+03 -0.13340911587E+03  0.23082764415E+03  0.00000000000E+00 0.  1.
          5    1    5    5  501    0  0.11919773296E+02 -0.15453058112E+03 -0.16490608291E+03  0.22635787523E+03  0.47000000000E+01 0. -1.
         11    1    4    4    0    0 -0.11320039138E+03  0.15548064543E+03 -0.95952441926E+02  0.21493122348E+03  0.00000000000E+00 0. -1.
        -12    1    4    4    0    0 -0.28598742816E+02  0.16363589284E+02  0.14924938126E+02  0.36171935571E+02  0.00000000000E+00 0.  1.
         -5    1    3    3    0  503 -0.24689893872E+02  0.15852924311E+03 -0.13963323151E+03  0.21274548438E+03  0.47000000000E+01 0.  1.
</event>
<event>
12    1  0.9749377E-001  0.3285278E+03  0.7818608E-02  0.1071790E+00
         21   -1    0    0  503  502  0.00000000000E+00  0.00000000000E+00  0.39784539583E+03  0.39784539583E+03  0.00000000000E+00 0.  1.
         21   -1    0    0  501  503 -0.00000000000E+00 -0.00000000000E+00 -0.70210371016E+03  0.70210371016E+03  0.00000000000E+00 0. -1.
          6    2    1    2  501    0 -0.96675107023E+02  0.28715866104E+03  0.26091309706E+03  0.43581836896E+03  0.17336618349E+03 0.  0.
         24    2    3    3    0    0  0.37243839922E+01  0.57227549334E+02  0.77428322737E+02  0.12495324333E+03  0.79556925643E+02 0.  0.
         -6    2    1    2    0  502  0.96675107023E+02 -0.28715866104E+03 -0.56517141140E+03  0.66413073703E+03  0.17275629852E+03 0.  0.
        -24    2    5    5    0    0  0.84919512094E+02 -0.80993992031E+02 -0.22019287657E+03  0.26204325370E+03  0.80065058782E+02 0.  0.
         14    1    4    4    0    0  0.33417935042E+01 -0.45417456467E+01 -0.13727107676E+02  0.14840098466E+02  0.00000000000E+00 0. -1.
        -13    1    4    4    0    0  0.38259048808E+00  0.61769294981E+02  0.91155430413E+02  0.11011314486E+03  0.00000000000E+00 0.  1.
          5    1    3    3  501    0 -0.10039949102E+03  0.22993111170E+03  0.18348477433E+03  0.31086512563E+03  0.47000000000E+01 0. -1.
         11    1    6    6    0    0  0.25245205438E+02 -0.65944250669E+02 -0.68658192195E+02  0.98488131007E+02  0.00000000000E+00 0. -1.
        -12    1    6    6    0    0  0.59674306656E+02 -0.15049741362E+02 -0.15153468438E+03  0.16355512270E+03  0.00000000000E+00 0.  1.
         -5    1    5    5    0  502  0.11755594930E+02 -0.20616466900E+03 -0.34497853482E+03  0.40208748332E+03  0.47000000000E+01 0.  1.
</event>
<event>
12    1  0.9749377E-001  0.3276514E+03  0.7818608E-02  0.1072181E+00
         21   -1    0    0  503  502  0.00000000000E+00  0.00000000000E+00  0.11885263371E+03  0.11885263371E+03  0.00000000000E+00 0. -1.
         21   -1    0    0  501  503 -0.00000000000E+00 -0.00000000000E+00 -0.12402073796E+04  0.12402073796E+04  0.00000000000E+00 0.  1.
          6    2    1    2  501    0  0.12716013194E+03  0.27033044977E+03 -0.26063544311E+03  0.43205072956E+03  0.17172287989E+03 0.  0.
         24    2    3    3    0    0  0.14174640504E+03  0.24069029963E+03 -0.17005014968E+03  0.33551533061E+03  0.75030793612E+02 0.  0.
         -6    2    1    2    0  502 -0.12716013194E+03 -0.27033044977E+03 -0.86071930278E+03  0.92700928375E+03  0.17105625615E+03 0.  0.
        -24    2    5    5    0    0 -0.15437313609E+03 -0.24139871553E+03 -0.68449888164E+03  0.74630698807E+03  0.79567559129E+02 0.  0.
         12    1    4    4    0    0  0.11120996369E+03  0.11548564159E+03 -0.91952192313E+02  0.18482368655E+03  0.00000000000E+00 0. -1.
        -11    1    4    4    0    0  0.30536441347E+02  0.12520465804E+03 -0.78097957363E+02  0.15069164406E+03  0.00000000000E+00 0.  1.
          5    1    3    3  501    0 -0.14586273103E+02  0.29640150137E+02 -0.90585293437E+02  0.96535398949E+02  0.47000000000E+01 0. -1.
         11    1    6    6    0    0 -0.10662532150E+02 -0.61832684432E+02 -0.98464266407E+02  0.11675693647E+03  0.00000000000E+00 0. -1.
        -12    1    6    6    0    0 -0.14371060394E+03 -0.17956603110E+03 -0.58603461523E+03  0.62955005159E+03  0.00000000000E+00 0.  1.
         -5    1    5    5    0  502  0.27213004150E+02 -0.28931734233E+02 -0.17622042114E+03  0.18070229568E+03  0.47000000000E+01 0.  1.
</event>
<event>
12    1  0.9749377E-001  0.2530144E+03  0.7818608E-02  0.1111414E+00
         21   -1    0    0  503  502  0.00000000000E+00  0.00000000000E+00  0.28106409749E+03  0.28106409749E+03  0.00000000000E+00 0.  1.
         21   -1    0    0  501  503 -0.00000000000E+00 -0.00000000000E+00 -0.37252108274E+03  0.37252108274E+03  0.00000000000E+00 0. -1.
          6    2    1    2  501    0  0.36084793614E+01  0.20574206677E+03  0.14149318324E+03  0.30331338246E+03  0.17215071278E+03 0.  0.
         24    2    3    3    0    0  0.40567492490E+02  0.21025873748E+03  0.13345749353E+03  0.26493329289E+03  0.80773070816E+02 0.  0.
         -6    2    1    2    0  502 -0.36084793614E+01 -0.20574206677E+03 -0.23295016849E+03  0.35027179777E+03  0.16149839674E+03 0.  0.
        -24    2    5    5    0    0 -0.92180795253E+01 -0.22601091173E+03 -0.21812530371E+03  0.32411533956E+03  0.79411586094E+02 0.  0.
         12    1    4    4    0    0  0.10235241269E+02  0.13898300066E+03  0.43001962017E+02  0.14584307791E+03  0.00000000000E+00 0. -1.
        -11    1    4    4    0    0  0.30332251221E+02  0.71275736821E+02  0.90455531514E+02  0.11909021498E+03  0.00000000000E+00 0.  1.
          5    1    3    3  501    0 -0.36959013129E+02 -0.45166707133E+01  0.80356897133E+01  0.38380089564E+02  0.47000000000E+01 0. -1.
         13    1    6    6    0    0 -0.10144318498E+02 -0.10442866142E+02  0.34665455048E+01  0.14965880822E+02  0.00000000000E+00 0. -1.
        -14    1    6    6    0    0  0.92623897272E+00 -0.21556804559E+03 -0.22159184921E+03  0.30914945874E+03  0.00000000000E+00 0.  1.
         -5    1    5    5    0  502  0.56096001639E+01  0.20268844965E+02 -0.14824864787E+02  0.26156458211E+02  0.47000000000E+01 0.  1.
</event>
<event>
12    1  0.9749377E-001  0.1901499E+03  0.7818608E-02  0.1158326E+00
         21   -1    0    0  503  502  0.00000000000E+00  0.00000000000E+00  0.32037371353E+02  0.32037371353E+02  0.00000000000E+00 0.  1.
         21   -1    0    0  501  503 -0.00000000000E+00 -0.00000000000E+00 -0.15638522408E+04  0.15638522408E+04  0.00000000000E+00 0.  1.
          6    2    1    2  501    0 -0.96534469855E+02 -0.72461700116E+02 -0.52601456779E+03  0.56775567973E+03  0.17631104469E+03 0.  0.
         24    2    3    3    0    0 -0.46237093052E+02  0.11699568632E+02 -0.38323026023E+03  0.39448596583E+03  0.80492212016E+02 0.  0.
         -6    2    1    2    0  502  0.96534469855E+02  0.72461700116E+02 -0.10058003016E+04  0.10281339324E+04  0.17565743463E+03 0.  0.
        -24    2    5    5    0    0  0.86043275324E+02 -0.72803240379E+01 -0.77496797767E+03  0.78364567631E+03  0.77902061894E+02 0.  0.
         12    1    4    4    0    0 -0.44368157475E+02 -0.23540155259E+02 -0.29857198995E+03  0.30276708125E+03  0.00000000000E+00 0. -1.
        -11    1    4    4    0    0 -0.18689355771E+01  0.35239723891E+02 -0.84658270285E+02  0.91718884576E+02  0.00000000000E+00 0.  1.
          5    1    3    3  501    0 -0.50297376803E+02 -0.84161268747E+02 -0.14278430756E+03  0.17326971390E+03  0.47000000000E+01 0. -1.
         11    1    6    6    0    0  0.57333078392E+02  0.33336400464E+02 -0.41781095444E+03  0.42304183141E+03  0.00000000000E+00 0. -1.
        -12    1    6    6    0    0  0.28710196932E+02 -0.40616724501E+02 -0.35715702323E+03  0.36060384490E+03  0.00000000000E+00 0.  1.
         -5    1    5    5    0  502  0.10491194531E+02  0.79742024154E+02 -0.23083232396E+03  0.24448825608E+03  0.47000000000E+01 0.  1.
</event>
<event>
12    1  0.9749377E-001  0.2022708E+03  0.7818608E-02  0.1147837E+00
         21   -1    0    0  503  502  0.00000000000E+00  0.00000000000E+00  0.25040464979E+03  0.25040464979E+03  0.00000000000E+00 0.  1.
         21   -1    0    0  501  503 -0.00000000000E+00 -0.00000000000E+00 -0.19151276197E+03  0.19151276197E+03  0.00000000000E+00 0.  1.
          6    2    1    2  501    0 -0.99096187250E+02 -0.85797737851E+02 -0.45407729190E+01  0.21658041933E+03  0.17235182990E+03 0.  0.
         24    2    3    3    0    0 -0.13211774377E+03 -0.39230417363E+02  0.16818412513E-02  0.15912032511E+03  0.79530836742E+02 0.  0.
         -6    2    1    2    0  502  0.99096187250E+02  0.85797737851E+02  0.63432660741E+02  0.22533699243E+03  0.17196439039E+03 0.  0.
        -24    2    5    5    0    0  0.12811058991E+03  0.53061926422E+02  0.39430450808E+02  0.17522047825E+03  0.99597009325E+02 0.  0.
         14    1    4    4    0    0 -0.54771209017E+02 -0.56692562432E+02  0.89002945150E+01  0.79329359097E+02  0.00000000000E+00 0. -1.
        -13    1    4    4    0    0 -0.77346534756E+02  0.17462145069E+02 -0.88986126738E+01  0.79790966010E+02  0.00000000000E+00 0.  1.
          5    1    3    3  501    0  0.33021556523E+02 -0.46567320488E+02 -0.45424547603E+01  0.57460094221E+02  0.47000000000E+01 0. -1.
         11    1    6    6    0    0  0.71990264503E+02  0.52363796269E+02  0.68209249794E+02  0.11214752383E+03  0.00000000000E+00 0. -1.
        -12    1    6    6    0    0  0.56120325405E+02  0.69813015341E+00 -0.28778798985E+02  0.63072954429E+02  0.00000000000E+00 0.  1.
         -5    1    5    5    0  502 -0.29014402658E+02  0.32735811429E+02  0.24002209932E+02  0.50116514176E+02  0.47000000000E+01 0.  1.
</event>
<event>
12    1  0.9749377E-001  0.3476860E+03  0.7818608E-02  0.1063569E+00
         21   -1    0    0  503  502  0.00000000000E+00  0.00000000000E+00  0.38907273348E+03  0.38907273348E+03  0.00000000000E+00 0. -1.
         21   -1    0    0  501  503 -0.00000000000E+00 -0.00000000000E+00 -0.34172883791E+03  0.34172883791E+03  0.00000000000E+00 0.  1.
          6    2    1    2  501    0 -0.10281603854E+03 -0.30501923593E+03  0.16703084896E+02  0.36425486736E+03  0.16969013902E+03 0.  0.
         24    2    3    3    0    0 -0.55190274400E+02 -0.29338175633E+03  0.36629834239E+02  0.31112474708E+03  0.79611821721E+02 0.  0.
         -6    2    1    2    0  502  0.10281603854E+03  0.30501923593E+03  0.30640810674E+02  0.36654670402E+03  0.17265501696E+03 0.  0.
        -24    2    5    5    0    0  0.32801393539E+02  0.25330210542E+03 -0.17216005250E+02  0.26710286594E+03  0.76221139632E+02 0.  0.
         14    1    4    4    0    0 -0.12832825029E+02 -0.10999518360E+03  0.51883794056E+02  0.12229288572E+03  0.00000000000E+00 0. -1.
        -13    1    4    4    0    0 -0.42357449372E+02 -0.18338657273E+03 -0.15253959817E+02  0.18883186136E+03  0.00000000000E+00 0.  1.
          5    1    3    3  501    0 -0.47625764137E+02 -0.11637479603E+02 -0.19926749343E+02  0.53130120276E+02  0.47000000000E+01 0. -1.
         13    1    6    6    0    0  0.27710157086E+01  0.18904121391E+03  0.14056782884E+02  0.18958336486E+03  0.00000000000E+00 0. -1.
        -14    1    6    6    0    0  0.30030377830E+02  0.64260891508E+02 -0.31272788135E+02  0.77519501080E+02  0.00000000000E+00 0.  1.
         -5    1    5    5    0  502  0.70014644999E+02  0.51717130510E+02  0.47856815925E+02  0.99443838084E+02  0.47000000000E+01 0.  1.
</event>
<event>
12    1  0.9749377E-001  0.5056449E+03  0.7818608E-02  0.1012316E+00
         21   -1    0    0  501  502  0.00000000000E+00  0.00000000000E+00  0.69939171313E+03  0.69939171313E+03  0.00000000000E+00 0.  1.
         21   -1    0    0  502  503 -0.00000000000E+00 -0.00000000000E+00 -0.47646327237E+03  0.47646327237E+03  0.00000000000E+00 0. -1.
         -6    2    1    2    0  503  0.31348102818E+02 -0.48935638720E+03  0.36704672604E+03  0.63642812808E+03  0.17281517836E+03 0.  0.
        -24    2    3    3    0    0 -0.31383388203E+02 -0.20568452925E+03  0.11122396834E+03  0.24929464165E+03  0.80535734885E+02 0.  0.
          6    2    1    2  501    0 -0.31348102818E+02  0.48935638720E+03 -0.14411828528E+03  0.53942685741E+03  0.17250761462E+03 0.  0.
         24    2    5    5    0    0 -0.62830021342E+02  0.46813978049E+03 -0.13571425727E+03  0.50026088645E+03  0.93488658317E+02 0.  0.
         12    1    6    6    0    0 -0.49734754558E+02  0.22870437274E+03 -0.22632092735E+02  0.23514133525E+03  0.00000000000E+00 0. -1.
        -11    1    6    6    0    0 -0.13095266783E+02  0.23943540775E+03 -0.11308216454E+03  0.26511955121E+03  0.00000000000E+00 0.  1.
          5    1    5    5  501    0  0.31481918524E+02  0.21216606713E+02 -0.84040280098E+01  0.39165970959E+02  0.47000000000E+01 0. -1.
         11    1    4    4    0    0 -0.17039535251E+02 -0.15564938112E+03  0.11899867765E+03  0.19666662372E+03  0.00000000000E+00 0. -1.
        -12    1    4    4    0    0 -0.14343852952E+02 -0.50035148134E+02 -0.77747093082E+01  0.52628017929E+02  0.00000000000E+00 0.  1.
         -5    1    3    3    0  503  0.62731491021E+02 -0.28367185795E+03  0.25582275771E+03  0.38713348643E+03  0.47000000000E+01 0.  1.
</event>
<event>
12    1  0.9749377E-001  0.1084790E+04  0.7818608E-02  0.9220145E-01
         21   -1    0    0  503  502  0.00000000000E+00  0.00000000000E+00  0.26626044526E+04  0.26626044526E+04  0.00000000000E+00 0.  1.
         21   -1    0    0  501  503 -0.00000000000E+00 -0.00000000000E+00 -0.11704740382E+04  0.11704740382E+04  0.00000000000E+00 0. -1.
          6    2    1    2  501    0  0.87748463599E+03 -0.62421860389E+03 -0.76085037850E+03  0.13297456698E+04  0.17234296049E+03 0.  0.
         24    2    3    3    0    0  0.33553391848E+03 -0.23419023777E+03 -0.25298544741E+03  0.49082875805E+03  0.97381493135E+02 0.  0.
         -6    2    1    2    0  502 -0.87748463599E+03  0.62421860389E+03  0.22529807929E+04  0.25033328210E+04  0.17642167488E+03 0.  0.
        -24    2    5    5    0    0 -0.25591956154E+03  0.23854883840E+03  0.77609594194E+03  0.85521411684E+03  0.81644989269E+02 0.  0.
         14    1    4    4    0    0  0.16610337333E+03 -0.17408897969E+03 -0.15254634131E+03  0.28489943792E+03  0.00000000000E+00 0. -1.
        -13    1    4    4    0    0  0.16943054516E+03 -0.60101258089E+02 -0.10043910610E+03  0.20592932013E+03  0.00000000000E+00 0.  1.
          5    1    3    3  501    0  0.54195071751E+03 -0.39002836612E+03 -0.50786493109E+03  0.83891691175E+03  0.47000000000E+01 0. -1.
         11    1    6    6    0    0 -0.24069012638E+03  0.22159055076E+03  0.75965797628E+03  0.82711205411E+03  0.00000000000E+00 0. -1.
        -12    1    6    6    0    0 -0.15229435160E+02  0.16958287641E+02  0.16437965657E+02  0.28102062735E+02  0.00000000000E+00 0.  1.
         -5    1    5    5    0  502 -0.62156507445E+03  0.38566976549E+03  0.14768848510E+04  0.16481187041E+04  0.47000000000E+01 0.  1.
</event>
<event>
12    1  0.1134277E+000  0.7145932E+03  0.7818608E-02  0.9692596E-01
         21   -1    0    0  503  502  0.00000000000E+00  0.00000000000E+00  0.38632085100E+03  0.38632085100E+03  0.00000000000E+00 0.  1.
         21   -1    0    0  501  503 -0.00000000000E+00 -0.00000000000E+00 -0.13677380688E+04  0.13677380688E+04  0.00000000000E+00 0. -1.
          6    2    1    2  501    0  0.13182820121E+03  0.68785867073E+03 -0.37770457856E+03  0.81349386687E+03  0.16906595530E+03 0.  0.
         24    2    3    3    0    0  0.10260053613E+03  0.38403595303E+03 -0.28040016033E+03  0.49309920399E+03  0.80697532985E+02 0.  0.
         -6    2    1    2    0  502 -0.13182820121E+03 -0.68785867073E+03 -0.60371263923E+03  0.94056505292E+03  0.17223658870E+03 0.  0.
        -24    2    5    5    0    0 -0.20442720204E+02 -0.46091288829E+03 -0.39278896632E+03  0.61129009284E+03  0.80831987114E+02 0.  0.
         12    1    4    4    0    0  0.11158710376E+03  0.37182836786E+03 -0.25826546589E+03  0.46627145285E+03  0.00000000000E+00 0. -1.
        -11    1    4    4    0    0 -0.89865676277E+01  0.12207585167E+02 -0.22134694435E+02  0.26827751137E+02  0.00000000000E+00 0.  1.
          5    1    3    3  501    0  0.29227665073E+02  0.30382271770E+03 -0.97304418234E+02  0.32039466288E+03  0.47000000000E+01 0. -1.
         11    1    6    6    0    0  0.22284805804E+02 -0.52111110803E+02 -0.58870245860E+02  0.81718335069E+02  0.00000000000E+00 0. -1.
        -12    1    6    6    0    0 -0.42727526008E+02 -0.40880177749E+03 -0.33391872046E+03  0.52957175777E+03  0.00000000000E+00 0.  1.
         -5    1    5    5    0  502 -0.11138548100E+03 -0.22694578244E+03 -0.21092367292E+03  0.32927496009E+03  0.47000000000E+01 0.  1.
</event>
<event>
12    1  0.9749377E-001  0.7153699E+03  0.7818608E-02  0.9691303E-01
         21   -1    0    0  501  502  0.00000000000E+00  0.00000000000E+00  0.22292170970E+03  0.22292170970E+03  0.00000000000E+00 0.  1.
         21   -1    0    0  502  503 -0.00000000000E+00 -0.00000000000E+00 -0.24403364140E+04  0.24403364140E+04  0.00000000000E+00 0. -1.
         -6    2    1    2    0  503 -0.70488557153E+03 -0.25886574997E+02 -0.13437858937E+04  0.15273777710E+04  0.17201320745E+03 0.  0.
        -24    2    3    3    0    0 -0.22281213407E+03  0.16129153444E+02 -0.36227581142E+03  0.43305412045E+03  0.79916900732E+02 0.  0.
          6    2    1    2  501    0  0.70488557153E+03  0.25886574997E+02 -0.87362881063E+03  0.11358803527E+04  0.17164816696E+03 0.  0.
         24    2    5    5    0    0  0.52748320640E+03  0.70145454740E+02 -0.58970222910E+03  0.79814252350E+03  0.78255037882E+02 0.  0.
         14    1    6    6    0    0  0.22725100357E+03  0.66506891902E+02 -0.23832934409E+03  0.33595693407E+03  0.00000000000E+00 0. -1.
        -13    1    6    6    0    0  0.30023220283E+03  0.36385628384E+01 -0.35137288501E+03  0.46218558943E+03  0.00000000000E+00 0.  1.
          5    1    5    5  501    0  0.17740236513E+03 -0.44258879744E+02 -0.28392658153E+03  0.33773782922E+03  0.47000000000E+01 0. -1.
         11    1    4    4    0    0 -0.20111516136E+03  0.22606614762E+01 -0.35183836834E+03  0.40526862222E+03  0.00000000000E+00 0. -1.
        -12    1    4    4    0    0 -0.21696972709E+02  0.13868491968E+02 -0.10437443084E+02  0.27785498238E+02  0.00000000000E+00 0.  1.
         -5    1    3    3    0  503 -0.48207343746E+03 -0.42015728441E+02 -0.98151008224E+03  0.10943236505E+04  0.47000000000E+01 0.  1.
</event>
<event>
12    1  0.9749377E-001  0.1519192E+03  0.7818608E-02  0.1198134E+00
         21   -1    0    0  501  502  0.00000000000E+00  0.00000000000E+00  0.67036720383E+02  0.67036720383E+02  0.00000000000E+00 0.  1.
         21   -1    0    0  502  503 -0.00000000000E+00 -0.00000000000E+00 -0.50776398297E+03  0.50776398297E+03  0.00000000000E+00 0.  1.
         -6    2    1    2    0  503 -0.19831020049E+02  0.17953796889E+02 -0.12428405008E+03  0.21393361473E+03  0.17206236726E+03 0.  0.
        -24    2    3    3    0    0 -0.68534541785E+02  0.44317584004E+02 -0.62906644045E+02  0.13113048512E+03  0.81098252718E+02 0.  0.
          6    2    1    2  501    0  0.19831020049E+02 -0.17953796889E+02 -0.31644321250E+03  0.36086708862E+03  0.17138594089E+03 0.  0.
         24    2    5    5    0    0  0.75082134617E+02 -0.17509716136E+02 -0.19649107538E+03  0.22871759726E+03  0.88085637264E+02 0.  0.
         14    1    6    6    0    0  0.63748244646E+02 -0.78558081987E+01 -0.49804853014E+02  0.81277769418E+02  0.00000000000E+00 0. -1.
        -13    1    6    6    0    0  0.11333889971E+02 -0.96539079370E+01 -0.14668622237E+03  0.14743982784E+03  0.00000000000E+00 0.  1.
          5    1    5    5  501    0 -0.55251114567E+02 -0.44408075330E+00 -0.11995213712E+03  0.13214949137E+03  0.47000000000E+01 0. -1.
         13    1    4    4    0    0  0.78039703193E+01  0.36069767960E+02 -0.11221560691E+02  0.38572704569E+02  0.00000000000E+00 0. -1.
        -14    1    4    4    0    0 -0.76338512104E+02  0.82478160448E+01 -0.51685083354E+02  0.92557780554E+02  0.00000000000E+00 0.  1.
         -5    1    3    3    0  503  0.48703521736E+02 -0.26363787115E+02 -0.61377406040E+02  0.82803129607E+02  0.47000000000E+01 0.  1.
</event>
<event>
12    1  0.9749377E-001  0.4001582E+03  0.7818608E-02  0.1043725E+00
         21   -1    0    0  503  502  0.00000000000E+00  0.00000000000E+00  0.38883605061E+03  0.38883605061E+03  0.00000000000E+00 0. -1.
         21   -1    0    0  501  503 -0.00000000000E+00 -0.00000000000E+00 -0.10544459691E+04  0.10544459691E+04  0.00000000000E+00 0.  1.
          6    2    1    2  501    0  0.34186885698E+03 -0.17461044833E+03  0.21141680219E+03  0.47031094028E+03  0.17068155221E+03 0.  0.
         24    2    3    3    0    0  0.85520177574E+02 -0.34677360273E+02  0.97177362298E+02  0.15667316483E+03  0.81159230818E+02 0.  0.
         -6    2    1    2    0  502 -0.34186885698E+03  0.17461044833E+03 -0.87702672072E+03  0.97297107948E+03  0.17359069275E+03 0.  0.
        -24    2    5    5    0    0 -0.10564541657E+03  0.52811511792E+02 -0.19791479588E+03  0.24368952123E+03  0.79147372102E+02 0.  0.
         12    1    4    4    0    0  0.87459996693E+02 -0.24434227568E+02  0.10836347410E+03  0.14138219484E+03  0.00000000000E+00 0. -1.
        -11    1    4    4    0    0 -0.19398191190E+01 -0.10243132705E+02 -0.11186111807E+02  0.15290969988E+02  0.00000000000E+00 0.  1.
          5    1    3    3  501    0  0.25634867940E+03 -0.13993308805E+03  0.11423943989E+03  0.31363777545E+03  0.47000000000E+01 0. -1.
         13    1    6    6    0    0 -0.94872605439E+02  0.81403681446E+01 -0.11944790026E+03  0.15275757832E+03  0.00000000000E+00 0. -1.
        -14    1    6    6    0    0 -0.10772811128E+02  0.44671143647E+02 -0.78466895620E+02  0.90931942916E+02  0.00000000000E+00 0.  1.
         -5    1    5    5    0  502 -0.23622344041E+03  0.12179893653E+03 -0.67911192484E+03  0.72928155824E+03  0.47000000000E+01 0.  1.
</event>
<event>
12    1  0.9749377E-001  0.1113717E+04  0.7818608E-02  0.9191925E-01
         21   -1    0    0  503  502  0.00000000000E+00  0.00000000000E+00  0.22823019371E+04  0.22823019371E+04  0.00000000000E+00 0.  1.
         21   -1    0    0  501  503 -0.00000000000E+00 -0.00000000000E+00 -0.55125312818E+03  0.55125312818E+03  0.00000000000E+00 0. -1.
          6    2    1    2  501    0  0.60897258980E+03 -0.92591944540E+03  0.83022539313E+03  0.13952513917E+04  0.17110759269E+03 0.  0.
         24    2    3    3    0    0  0.27495661855E+03 -0.39760758150E+03  0.44612102523E+03  0.66160409909E+03  0.70732480704E+02 0.  0.
         -6    2    1    2    0  502 -0.60897258980E+03  0.92591944540E+03  0.90082341575E+03  0.14383036735E+04  0.17047051450E+03 0.  0.
        -24    2    5    5    0    0 -0.18188088946E+03  0.24237092767E+03  0.29303785287E+03  0.42881307074E+03  0.78645673083E+02 0.  0.
         12    1    4    4    0    0  0.24530354337E+03 -0.35393917951E+03  0.42411024365E+03  0.60441398888E+03  0.00000000000E+00 0. -1.
        -11    1    4    4    0    0  0.29653075177E+02 -0.43668401991E+02  0.22010781577E+02  0.57190110208E+02  0.00000000000E+00 0.  1.
          5    1    3    3  501    0  0.33401597125E+03 -0.52831186390E+03  0.38410436791E+03  0.73364729266E+03  0.47000000000E+01 0. -1.
         13    1    6    6    0    0  0.55019594737E+01  0.26554409411E+02  0.29019133590E+02  0.39717984988E+02  0.00000000000E+00 0. -1.
        -14    1    6    6    0    0 -0.18738284893E+03  0.21581651826E+03  0.26401871928E+03  0.38909508575E+03  0.00000000000E+00 0.  1.
         -5    1    5    5    0  502 -0.42709170034E+03  0.68354851773E+03  0.60778556289E+03  0.10094906027E+04  0.47000000000E+01 0.  1.
</event>
<event>
12    1  0.9749377E-001  0.3461364E+03  0.7818608E-02  0.1064212E+00
         21   -1    0    0  501  502  0.00000000000E+00  0.00000000000E+00  0.83403609874E+03  0.83403609874E+03  0.00000000000E+00 0.  1.
         21   -1    0    0  502  503 -0.00000000000E+00 -0.00000000000E+00 -0.16151515059E+03  0.16151515059E+03  0.00000000000E+00 0. -1.
         -6    2    1    2    0  503 -0.71907810492E+02 -0.31600093637E+03  0.32960065805E+03  0.49327472515E+03  0.17220927877E+03 0.  0.
        -24    2    3    3    0    0 -0.34856650773E+02 -0.54059127985E+02  0.65550542206E+02  0.11946882219E+03  0.76410408124E+02 0.  0.
          6    2    1    2  501    0  0.71907810492E+02  0.31600093637E+03  0.34292029010E+03  0.50227652418E+03  0.17222095221E+03 0.  0.
         24    2    5    5    0    0  0.30300068632E+02  0.20310940796E+03  0.12535683116E+03  0.25361681688E+03  0.80222371717E+02 0.  0.
         14    1    6    6    0    0 -0.12137513265E+02  0.12227507524E+03  0.41618601905E+02  0.12973288433E+03  0.00000000000E+00 0. -1.
        -13    1    6    6    0    0  0.42437581897E+02  0.80834332717E+02  0.83738229256E+02  0.12388393254E+03  0.00000000000E+00 0.  1.
          5    1    5    5  501    0  0.41607741860E+02  0.11289152841E+03  0.21756345894E+03  0.24865970730E+03  0.47000000000E+01 0. -1.
         13    1    4    4    0    0  0.17674771049E+02 -0.31101858605E+02  0.50622247972E+01  0.36129617493E+02  0.00000000000E+00 0. -1.
        -14    1    4    4    0    0 -0.52531421822E+02 -0.22957269380E+02  0.60488317409E+02  0.83339204694E+02  0.00000000000E+00 0.  1.
         -5    1    3    3    0  503 -0.37051159719E+02 -0.26194180839E+03  0.26405011584E+03  0.37380590296E+03  0.47000000000E+01 0.  1.
</event>
<event>
12    1  0.9749377E-001  0.3300691E+03  0.7818608E-02  0.1071106E+00
         21   -1    0    0  503  502  0.00000000000E+00  0.00000000000E+00  0.36190568086E+03  0.36190568086E+03  0.00000000000E+00 0. -1.
         21   -1    0    0  501  503 -0.00000000000E+00 -0.00000000000E+00 -0.39407631822E+03  0.39407631822E+03  0.00000000000E+00 0.  1.
          6    2    1    2  501    0  0.89595550110E+01 -0.30008380972E+03  0.13611621412E+03  0.37190647302E+03  0.17220985581E+03 0.  0.
         24    2    3    3    0    0  0.45512954949E+02 -0.29219560052E+03  0.13447484468E+03  0.33418169356E+03  0.78385090589E+02 0.  0.
         -6    2    1    2    0  502 -0.89595550110E+01  0.30008380972E+03 -0.16828685148E+03  0.38407552606E+03  0.17047867565E+03 0.  0.
        -24    2    5    5    0    0  0.28219208884E+02  0.26393830634E+03 -0.92259565147E+02  0.29192892456E+03  0.79062736685E+02 0.  0.
         12    1    4    4    0    0  0.29550971035E+02 -0.37741724666E+02  0.48829823191E+01  0.48182374228E+02  0.00000000000E+00 0. -1.
        -11    1    4    4    0    0  0.15961983914E+02 -0.25445387585E+03  0.12959186236E+03  0.28599931933E+03  0.00000000000E+00 0.  1.
          5    1    3    3  501    0 -0.36553399938E+02 -0.78882092072E+01  0.16413694395E+01  0.37724779458E+02  0.47000000000E+01 0. -1.
         11    1    6    6    0    0  0.90992010623E+01  0.21122901225E+03 -0.10245176042E+03  0.23494010788E+03  0.00000000000E+00 0. -1.
        -12    1    6    6    0    0  0.19120007821E+02  0.52709294090E+02  0.10192195277E+02  0.56988816685E+02  0.00000000000E+00 0.  1.
         -5    1    5    5    0  502 -0.37178763895E+02  0.36145503387E+02 -0.76027286336E+02  0.92146601497E+02  0.47000000000E+01 0.  1.
</event>
<event>
12    1  0.9749377E-001  0.3587423E+03  0.7818608E-02  0.1059083E+00
         21   -1    0    0  501  502  0.00000000000E+00  0.00000000000E+00  0.85657745478E+02  0.85657745478E+02  0.00000000000E+00 0. -1.
         21   -1    0    0  502  503 -0.00000000000E+00 -0.00000000000E+00 -0.20379726488E+04  0.20379726488E+04  0.00000000000E+00 0.  1.
         -6    2    1    2    0  503  0.11060459174E+03 -0.31787156369E+03 -0.14247846585E+04  0.14739171617E+04  0.17071839272E+03 0.  0.
        -24    2    3    3    0    0  0.16629137815E+02 -0.84373810696E+02 -0.61289060237E+03  0.62388972976E+03  0.78791092610E+02 0.  0.
          6    2    1    2  501    0 -0.11060459174E+03  0.31787156369E+03 -0.52753024481E+03  0.64971323262E+03  0.17482396497E+03 0.  0.
         24    2    5    5    0    0 -0.29595608499E+02  0.23504025940E+03 -0.43397424702E+03  0.50072230987E+03  0.79179296206E+02 0.  0.
         14    1    6    6    0    0 -0.30259635171E+02  0.22240064735E+03 -0.34990538530E+03  0.41570599240E+03  0.00000000000E+00 0. -1.
        -13    1    6    6    0    0  0.66402667253E+00  0.12639612047E+02 -0.84068861726E+02  0.85016317470E+02  0.00000000000E+00 0.  1.
          5    1    5    5  501    0 -0.81008983244E+02  0.82831304289E+02 -0.93555997791E+02  0.14899092274E+03  0.47000000000E+01 0. -1.
         13    1    4    4    0    0 -0.22879201662E+02 -0.41468301342E+01 -0.72148091738E+02  0.75802382616E+02  0.00000000000E+00 0. -1.
        -14    1    4    4    0    0  0.39508339477E+02 -0.80226980562E+02 -0.54074251063E+03  0.54808734715E+03  0.00000000000E+00 0.  1.
         -5    1    3    3    0  503  0.93975453928E+02 -0.23349775299E+03 -0.81189405618E+03  0.85002743194E+03  0.47000000000E+01 0.  1.
</event>
<event>
12    1  0.9749377E-001  0.3012020E+03  0.7818608E-02  0.1084641E+00
         21   -1    0    0  501  502  0.00000000000E+00  0.00000000000E+00  0.15521723535E+03  0.15521723535E+03  0.00000000000E+00 0.  1.
         21   -1    0    0  502  503 -0.00000000000E+00 -0.00000000000E+00 -0.75544692835E+03  0.75544692835E+03  0.00000000000E+00 0. -1.
         -6    2    1    2    0  503  0.16863802180E+03 -0.21292609668E+03 -0.14194646883E+03  0.35079156394E+03  0.17067400587E+03 0.  0.
        -24    2    3    3    0    0  0.85216950109E+02 -0.46179967082E+02 -0.99878876533E+02  0.15959763293E+03  0.78109516144E+02 0.  0.
          6    2    1    2  501    0 -0.16863802180E+03  0.21292609668E+03 -0.45828322417E+03  0.55987259976E+03  0.17221355743E+03 0.  0.
         24    2    5    5    0    0 -0.16153112074E+03  0.96108676644E+02 -0.26985124532E+03  0.33800435435E+03  0.78090129120E+02 0.  0.
         14    1    6    6    0    0 -0.15717187960E+03  0.10389639720E+03 -0.23075081351E+03  0.29789830316E+03  0.00000000000E+00 0. -1.
        -13    1    6    6    0    0 -0.43592411449E+01 -0.77877205595E+01 -0.39100431806E+02  0.40106051193E+02  0.00000000000E+00 0.  1.
          5    1    5    5  501    0 -0.71069010552E+01  0.11681742003E+03 -0.18843197885E+03  0.22186824541E+03  0.47000000000E+01 0. -1.
         13    1    4    4    0    0  0.33934116314E+01 -0.12497902893E+02 -0.62013475899E+02  0.63351274749E+02  0.00000000000E+00 0. -1.
        -14    1    4    4    0    0  0.81823538477E+02 -0.33682064189E+02 -0.37865400634E+02  0.96246358176E+02  0.00000000000E+00 0.  1.
         -5    1    3    3    0  503  0.83421071690E+02 -0.16674612960E+03 -0.42067592296E+02  0.19119393102E+03  0.47000000000E+01 0.  1.
</event>
<event>
12    1  0.9749377E-001  0.4254919E+03  0.7818608E-02  0.1035294E+00
         21   -1    0    0  503  502  0.00000000000E+00  0.00000000000E+00  0.21890977008E+03  0.21890977008E+03  0.00000000000E+00 0.  1.
         21   -1    0    0  501  503 -0.00000000000E+00 -0.00000000000E+00 -0.91094163995E+03  0.91094163995E+03  0.00000000000E+00 0. -1.
          6    2    1    2  501    0 -0.40442535276E+03 -0.63626958505E+01 -0.24397963470E+03  0.50247736904E+03  0.17133912104E+03 0.  0.
         24    2    3    3    0    0 -0.20399325601E+03  0.60284113649E+02 -0.11083695439E+03  0.25274974553E+03  0.79688020127E+02 0.  0.
         -6    2    1    2    0  502  0.40442535276E+03  0.63626958505E+01 -0.44805223518E+03  0.62737404099E+03  0.17101763652E+03 0.  0.
        -24    2    5    5    0    0  0.18738898940E+03 -0.25198226549E+01 -0.12766165753E+03  0.24026179060E+03  0.79418174005E+02 0.  0.
         14    1    4    4    0    0 -0.13427495059E+03  0.13319078731E+02 -0.34677584537E+02  0.13931868174E+03  0.00000000000E+00 0. -1.
        -13    1    4    4    0    0 -0.69718305423E+02  0.46965034918E+02 -0.76159369850E+02  0.11343106379E+03  0.00000000000E+00 0.  1.
          5    1    3    3  501    0 -0.20043209675E+03 -0.66646809500E+02 -0.13314268031E+03  0.24972762351E+03  0.47000000000E+01 0. -1.
         13    1    6    6    0    0  0.42006207039E+02 -0.34768288474E+02 -0.37483484914E+02  0.66169229665E+02  0.00000000000E+00 0. -1.
        -14    1    6    6    0    0  0.14538278237E+03  0.32248465819E+02 -0.90178172614E+02  0.17409256093E+03  0.00000000000E+00 0.  1.
         -5    1    5    5    0  502  0.21703636335E+03  0.88825185054E+01 -0.32039057765E+03  0.38711225039E+03  0.47000000000E+01 0.  1.
</event>
<event>
12    1  0.9749377E-001  0.8484458E+03  0.7818608E-02  0.9492425E-01
         21   -1    0    0  501  502  0.00000000000E+00  0.00000000000E+00  0.14091452283E+04  0.14091452283E+04  0.00000000000E+00 0. -1.
         21   -1    0    0  502  503 -0.00000000000E+00 -0.00000000000E+00 -0.53952008854E+03  0.53952008854E+03  0.00000000000E+00 0.  1.
         -6    2    1    2    0  503 -0.50576048452E+03 -0.67589027781E+03  0.59536262369E+03  0.10471887649E+04  0.17183224457E+03 0.  0.
        -24    2    3    3    0    0 -0.47347013944E+03 -0.61172807831E+03  0.58784846738E+03  0.97481468958E+03  0.79452147217E+02 0.  0.
          6    2    1    2  501    0  0.50576048452E+03  0.67589027781E+03  0.27426251607E+03  0.90147655196E+03  0.15753955272E+03 0.  0.
         24    2    5    5    0    0  0.33576234202E+03  0.47191630261E+03  0.24630350555E+03  0.63443994907E+03  0.80045519191E+02 0.  0.
         14    1    6    6    0    0  0.11316455632E+02  0.56026495628E+02  0.26451518909E+02  0.62981848441E+02  0.00000000000E+00 0. -1.
        -13    1    6    6    0    0  0.32444588639E+03  0.41588980698E+03  0.21985198664E+03  0.57145810063E+03  0.00000000000E+00 0.  1.
          5    1    5    5  501    0  0.16999814250E+03  0.20397397520E+03  0.27959010515E+02  0.26703660289E+03  0.47000000000E+01 0. -1.
         13    1    4    4    0    0 -0.42612803183E+03 -0.56943391521E+03  0.51450461812E+03  0.87781267100E+03  0.00000000000E+00 0. -1.
        -14    1    4    4    0    0 -0.47342107611E+02 -0.42294163098E+02  0.73343849259E+02  0.97002018584E+02  0.00000000000E+00 0.  1.
         -5    1    3    3    0  503 -0.32290345081E+02 -0.64162199504E+02  0.75141563080E+01  0.72374075301E+02  0.47000000000E+01 0.  1.
</event>
<event>
12    1  0.9749377E-001  0.1319062E+03  0.7818608E-02  0.1224654E+00
         21   -1    0    0  503  502  0.00000000000E+00  0.00000000000E+00  0.20434160520E+03  0.20434160520E+03  0.00000000000E+00 0.  1.
         21   -1    0    0  501  503 -0.00000000000E+00 -0.00000000000E+00 -0.28242177106E+03  0.28242177106E+03  0.00000000000E+00 0.  1.
          6    2    1    2  501    0 -0.34535123212E+02 -0.50793881676E+01  0.12670571462E+03  0.21673781183E+03  0.17234403395E+03 0.  0.
         24    2    3    3    0    0 -0.38181129653E+02  0.47946384773E+02  0.12868820652E+03  0.16334262259E+03  0.79771570020E+02 0.  0.
         -6    2    1    2    0  502  0.34535123212E+02  0.50793881676E+01 -0.20478588049E+03  0.27002556443E+03  0.17250528595E+03 0.  0.
        -24    2    5    5    0    0  0.51672426489E+02 -0.18540025772E+01 -0.22380323948E+03  0.24309028990E+03  0.79570861850E+02 0.  0.
         12    1    4    4    0    0  0.90195787889E+01  0.52307166901E+02  0.71922068008E+02  0.89387786511E+02  0.00000000000E+00 0. -1.
        -11    1    4    4    0    0 -0.47200708442E+02 -0.43607821286E+01  0.56766138515E+02  0.73954836083E+02  0.00000000000E+00 0.  1.
          5    1    3    3  501    0  0.36460064406E+01 -0.53025772940E+02 -0.19824918996E+01  0.53395189231E+02  0.47000000000E+01 0. -1.
         11    1    6    6    0    0  0.23471351936E+02  0.36437418961E+02 -0.14201002200E+03  0.14847705618E+03  0.00000000000E+00 0. -1.
        -12    1    6    6    0    0  0.28201074554E+02 -0.38291421538E+02 -0.81793217478E+02  0.94613233720E+02  0.00000000000E+00 0.  1.
         -5    1    5    5    0  502 -0.17137303277E+02  0.69333907448E+01  0.19017358997E+02  0.26935274531E+02  0.47000000000E+01 0.  1.
</event>
<event>
12    1  0.9749377E-001  0.2993980E+03  0.7818608E-02  0.1085542E+00
         21   -1    0    0  501  502  0.00000000000E+00  0.00000000000E+00  0.75230114405E+02  0.75230114405E+02  0.00000000000E+00 0. -1.
         21   -1    0    0  502  503 -0.00000000000E+00 -0.00000000000E+00 -0.13299666277E+04  0.13299666277E+04  0.00000000000E+00 0.  1.
         -6    2    1    2    0  503 -0.25640239146E+03  0.68447666429E+02 -0.61252436338E+03  0.68943466694E+03  0.17235659214E+03 0.  0.
        -24    2    3    3    0    0 -0.13480927508E+03  0.94857070369E+02 -0.28134862280E+03  0.33562426048E+03  0.79468183724E+02 0.  0.
          6    2    1    2  501    0  0.25640239146E+03 -0.68447666429E+02 -0.64221214993E+03  0.71576207519E+03  0.17161478191E+03 0.  0.
         24    2    5    5    0    0  0.13398749253E+03 -0.10564767080E+03 -0.34410963013E+03  0.39132957047E+03  0.74922070678E+02 0.  0.
         14    1    6    6    0    0  0.88458525567E+02 -0.63362202907E+02 -0.13616764088E+03  0.17430234057E+03  0.00000000000E+00 0. -1.
        -13    1    6    6    0    0  0.45528966964E+02 -0.42285467894E+02 -0.20794198925E+03  0.21702722991E+03  0.00000000000E+00 0.  1.
          5    1    5    5  501    0  0.12241489893E+03  0.37200004372E+02 -0.29810251980E+03  0.32443250472E+03  0.47000000000E+01 0. -1.
         11    1    4    4    0    0 -0.13349990566E+03  0.70613626989E+02 -0.26873470465E+03  0.30826425452E+03  0.00000000000E+00 0. -1.
        -12    1    4    4    0    0 -0.13093694229E+01  0.24243443380E+02 -0.12613918141E+02  0.27360005959E+02  0.00000000000E+00 0.  1.
         -5    1    3    3    0  503 -0.12159311638E+03 -0.26409403940E+02 -0.33117574059E+03  0.35381040646E+03  0.47000000000E+01 0.  1.
</event>
<event>
12    1  0.9749377E-001  0.4370018E+03  0.7818608E-02  0.1031671E+00
         21   -1    0    0  503  502  0.00000000000E+00  0.00000000000E+00  0.47120678960E+03  0.47120678960E+03  0.00000000000E+00 0. -1.
         21   -1    0    0  501  503 -0.00000000000E+00 -0.00000000000E+00 -0.50999424317E+03  0.50999424317E+03  0.00000000000E+00 0.  1.
          6    2    1    2  501    0 -0.33038623726E+03 -0.24722674634E+03  0.18428626300E+03  0.48365330425E+03  0.17228744033E+03 0.  0.
         24    2    3    3    0    0 -0.34325605153E+03 -0.25093457799E+03  0.17427721932E+03  0.46628519870E+03  0.79097774959E+02 0.  0.
         -6    2    1    2    0  502  0.33038623726E+03  0.24722674634E+03 -0.22307371658E+03  0.49754772852E+03  0.16587865820E+03 0.  0.
        -24    2    5    5    0    0  0.32361478465E+03  0.25597076563E+03 -0.23383941239E+03  0.48141389296E+03  0.82649282248E+02 0.  0.
         14    1    4    4    0    0 -0.25932540701E+03 -0.15531216806E+03  0.97168491386E+02  0.31751102656E+03  0.00000000000E+00 0. -1.
        -13    1    4    4    0    0 -0.83930644521E+02 -0.95622409934E+02  0.77108727936E+02  0.14877417214E+03  0.00000000000E+00 0.  1.
          5    1    3    3  501    0  0.12869814270E+02  0.37078316491E+01  0.10009043683E+02  0.17368105548E+02  0.47000000000E+01 0. -1.
         13    1    6    6    0    0  0.12133962536E+03  0.13944015099E+03 -0.12964222517E+03  0.22577415029E+03  0.00000000000E+00 0. -1.
        -14    1    6    6    0    0  0.20227515929E+03  0.11653061463E+03 -0.10419718721E+03  0.25563974267E+03  0.00000000000E+00 0.  1.
         -5    1    5    5    0  502  0.67714526158E+01 -0.87440192817E+01  0.10765695802E+02  0.16133835559E+02  0.47000000000E+01 0.  1.
</event>
<event>
12    1  0.9749377E-001  0.3568999E+03  0.7818608E-02  0.1059818E+00
         21   -1    0    0  503  502  0.00000000000E+00  0.00000000000E+00  0.11869524637E+03  0.11869524637E+03  0.00000000000E+00 0. -1.
         21   -1    0    0  501  503 -0.00000000000E+00 -0.00000000000E+00 -0.13374154786E+04  0.13374154786E+04  0.00000000000E+00 0.  1.
          6    2    1    2  501    0 -0.13922794231E+03 -0.29191818751E+03 -0.89280429280E+03  0.96567206267E+03  0.17556303498E+03 0.  0.
         24    2    3    3    0    0 -0.69974622246E+00 -0.11802742653E+03 -0.27963408919E+03  0.31342376144E+03  0.78155405034E+02 0.  0.
         -6    2    1    2    0  502  0.13922794231E+03  0.29191818751E+03 -0.32591593941E+03  0.49043866229E+03  0.17236076637E+03 0.  0.
        -24    2    5    5    0    0  0.59807209815E+01  0.72097501949E+02 -0.11717259920E+03  0.15927129089E+03  0.80025666437E+02 0.  0.
         12    1    4    4    0    0 -0.16752039835E+02 -0.12127187429E+03 -0.26291386433E+03  0.29001930692E+03  0.00000000000E+00 0. -1.
        -11    1    4    4    0    0  0.16052293612E+02  0.32444477612E+01 -0.16720224864E+02  0.23404454512E+02  0.00000000000E+00 0.  1.
          5    1    3    3  501    0 -0.13852819609E+03 -0.17389076098E+03 -0.61317020361E+03  0.65224830123E+03  0.47000000000E+01 0. -1.
         11    1    6    6    0    0 -0.49009210858E+01  0.81197294726E+02 -0.11983756302E+03  0.14483805166E+03  0.00000000000E+00 0. -1.
        -12    1    6    6    0    0  0.10881642067E+02 -0.90997927778E+01  0.26649638157E+01  0.14433239235E+02  0.00000000000E+00 0.  1.
         -5    1    5    5    0  502  0.13324722133E+03  0.21982068556E+03 -0.20874334021E+03  0.33116737139E+03  0.47000000000E+01 0.  1.
</event>
<event>
12    1  0.9749377E-001  0.3424111E+03  0.7818608E-02  0.1065774E+00
         21   -1    0    0  501  502  0.00000000000E+00  0.00000000000E+00  0.12474596696E+03  0.12474596696E+03  0.00000000000E+00 0. -1.
         21   -1    0    0  502  503 -0.00000000000E+00 -0.00000000000E+00 -0.12846651852E+04  0.12846651852E+04  0.00000000000E+00 0.  1.
         -6    2    1    2    0  503 -0.32360972922E+03  0.55137031410E+02 -0.84712610037E+03  0.92467058070E+03  0.17213280864E+03 0.  0.
        -24    2    3    3    0    0 -0.23763076693E+03 -0.30252194871E+01 -0.46002533167E+03  0.52386598428E+03  0.79591019354E+02 0.  0.
          6    2    1    2  501    0  0.32360972922E+03 -0.55137031410E+02 -0.31279311789E+03  0.48474057149E+03  0.17137834743E+03 0.  0.
         24    2    5    5    0    0  0.29860372949E+03 -0.41210754207E+02 -0.32751906743E+03  0.45221081881E+03  0.79770744006E+02 0.  0.
         14    1    6    6    0    0  0.17094923108E+03 -0.60010690778E+02 -0.16843158699E+03  0.24737445728E+03  0.00000000000E+00 0. -1.
        -13    1    6    6    0    0  0.12765449840E+03  0.18799936571E+02 -0.15908748043E+03  0.20483636154E+03  0.00000000000E+00 0.  1.
          5    1    5    5  501    0  0.25005999732E+02 -0.13926277203E+02  0.14725949535E+02  0.32529752674E+02  0.47000000000E+01 0. -1.
         13    1    4    4    0    0 -0.83091993500E+02 -0.22116261925E+02 -0.23484153114E+03  0.25008789090E+03  0.00000000000E+00 0. -1.
        -14    1    4    4    0    0 -0.15453877343E+03  0.19091042438E+02 -0.22518380053E+03  0.27377809338E+03  0.00000000000E+00 0.  1.
         -5    1    3    3    0  503 -0.85978962289E+02  0.58162250897E+02 -0.38710076871E+03  0.40080459643E+03  0.47000000000E+01 0.  1.
</event>
<event>
12    1  0.9749377E-001  0.2644713E+03  0.7818608E-02  0.1104486E+00
         21   -1    0    0  501  502  0.00000000000E+00  0.00000000000E+00  0.96435143930E+02  0.96435143930E+02  0.00000000000E+00 0. -1.
         21   -1    0    0  502  503 -0.00000000000E+00 -0.00000000000E+00 -0.10725887552E+04  0.10725887552E+04  0.00000000000E+00 0.  1.
         -6    2    1    2    0  503  0.10531973234E+03  0.19111279218E+03 -0.78090791274E+03  0.82894220131E+03  0.17237070393E+03 0.  0.
        -24    2    3    3    0    0  0.15899923312E+02  0.25342680355E+02 -0.17627469117E+03  0.19563417606E+03  0.79403432454E+02 0.  0.
          6    2    1    2  501    0 -0.10531973234E+03 -0.19111279218E+03 -0.19524569851E+03  0.34008169781E+03  0.17296916788E+03 0.  0.
         24    2    5    5    0    0 -0.11812417649E+03 -0.11581730096E+03 -0.77140688879E+02  0.19935413090E+03  0.80152450685E+02 0.  0.
         12    1    6    6    0    0 -0.79669934872E+02 -0.11742667010E+03 -0.44009637363E+02  0.14857041951E+03  0.00000000000E+00 0. -1.
        -11    1    6    6    0    0 -0.38454241615E+02  0.16093691365E+01 -0.33131051515E+02  0.50783711382E+02  0.00000000000E+00 0.  1.
          5    1    5    5  501    0  0.12804444146E+02 -0.75295491218E+02 -0.11810500964E+03  0.14072756691E+03  0.47000000000E+01 0. -1.
         13    1    4    4    0    0  0.47333729713E+02  0.21387137778E+02 -0.12498877124E+03  0.13535170692E+03  0.00000000000E+00 0. -1.
        -14    1    4    4    0    0 -0.31433806400E+02  0.39555425778E+01 -0.51285919937E+02  0.60282469140E+02  0.00000000000E+00 0.  1.
         -5    1    3    3    0  503  0.89419809029E+02  0.16577011183E+03 -0.60463322157E+03  0.63330802525E+03  0.47000000000E+01 0.  1.
</event>
<event>
12    1  0.9749377E-001  0.4282980E+03  0.7818608E-02  0.1034399E+00
         21   -1    0    0  501  502  0.00000000000E+00  0.00000000000E+00  0.88597942274E+02  0.88597942274E+02  0.00000000000E+00 0.  1.
         21   -1    0    0  502  503 -0.00000000000E+00 -0.00000000000E+00 -0.27702690733E+04  0.27702690733E+04  0.00000000000E+00 0. -1.
         -6    2    1    2    0  503 -0.19773573700E+03 -0.34842915607E+03 -0.66311986023E+03  0.79369104587E+03  0.17238105690E+03 0.  0.
        -24    2    3    3    0    0 -0.13066387100E+03 -0.11362880696E+03 -0.25895792004E+03  0.32146355509E+03  0.79341413800E+02 0.  0.
          6    2    1    2  501    0  0.19773573700E+03  0.34842915607E+03 -0.20185512708E+04  0.20651759697E+04  0.17291690066E+03 0.  0.
         24    2    5    5    0    0  0.21180260360E+03  0.27638637816E+03 -0.17823964714E+04  0.18178316391E+04  0.79529328458E+02 0.  0.
         12    1    6    6    0    0  0.16946045079E+03  0.21486911575E+03 -0.12084446436E+04  0.12390415804E+04  0.00000000000E+00 0. -1.
        -11    1    6    6    0    0  0.42342152809E+02  0.61517262411E+02 -0.57395182775E+03  0.57879005871E+03  0.00000000000E+00 0.  1.
          5    1    5    5  501    0 -0.14066866601E+02  0.72042777904E+02 -0.23615479944E+03  0.24734433060E+03  0.47000000000E+01 0. -1.
         13    1    4    4    0    0 -0.29623784891E+02 -0.77830513953E+02 -0.11344688959E+03  0.14073149715E+03  0.00000000000E+00 0. -1.
        -14    1    4    4    0    0 -0.10104008611E+03 -0.35798293007E+02 -0.14551103045E+03  0.18073205794E+03  0.00000000000E+00 0.  1.
         -5    1    3    3    0  503 -0.67071865995E+02 -0.23480034911E+03 -0.40416194019E+03  0.47222749078E+03  0.47000000000E+01 0.  1.
</event>
<event>
12    1  0.9749377E-001  0.2213253E+03  0.7818608E-02  0.1132899E+00
         21   -1    0    0  503  502  0.00000000000E+00  0.00000000000E+00  0.83129568220E+02  0.83129568220E+02  0.00000000000E+00 0.  1.
         21   -1    0    0  501  503 -0.00000000000E+00 -0.00000000000E+00 -0.76560722652E+03  0.76560722652E+03  0.00000000000E+00 0. -1.
          6    2    1    2  501    0 -0.13018390231E+03  0.13120724216E+03 -0.32061358251E+03  0.40763239378E+03  0.17090321927E+03 0.  0.
         24    2    3    3    0    0 -0.14369394741E+03  0.94398957165E+02 -0.17921136844E+03  0.26081942669E+03  0.79692817258E+02 0.  0.
         -6    2    1    2    0  502  0.13018390231E+03 -0.13120724216E+03 -0.36186407578E+03  0.44110440095E+03  0.17165166583E+03 0.  0.
        -24    2    5    5    0    0  0.12433801717E+03 -0.56543166539E+02 -0.15023314565E+03  0.21656344889E+03  0.75317044214E+02 0.  0.
         14    1    4    4    0    0 -0.95865140236E+02  0.54029480212E+02 -0.57973767726E+02  0.12437953042E+03  0.00000000000E+00 0. -1.
        -13    1    4    4    0    0 -0.47828807177E+02  0.40369476954E+02 -0.12123760071E+03  0.13643989626E+03  0.00000000000E+00 0.  1.
          5    1    3    3  501    0  0.13510045103E+02  0.36808284990E+02 -0.14140221408E+03  0.14681296710E+03  0.47000000000E+01 0. -1.
         11    1    6    6    0    0  0.78338906049E+02 -0.72562333880E+02 -0.95037268639E+02  0.14294879828E+03  0.00000000000E+00 0. -1.
        -12    1    6    6    0    0  0.45999111124E+02  0.16019167341E+02 -0.55195877009E+02  0.73614650616E+02  0.00000000000E+00 0.  1.
         -5    1    5    5    0  502  0.58458851370E+01 -0.74664075617E+02 -0.21163093014E+03  0.22454095206E+03  0.47000000000E+01 0.  1.
</event>
<event>
12    1  0.9749377E-001  0.7062012E+03  0.7818608E-02  0.9706686E-01
         21   -1    0    0  503  502  0.00000000000E+00  0.00000000000E+00  0.39464704060E+03  0.39464704060E+03  0.00000000000E+00 0. -1.
         21   -1    0    0  501  503 -0.00000000000E+00 -0.00000000000E+00 -0.12923234872E+04  0.12923234872E+04  0.00000000000E+00 0.  1.
          6    2    1    2  501    0 -0.67170416288E+03 -0.17054219197E+03 -0.46021015594E+03  0.84938688055E+03  0.17144551191E+03 0.  0.
         24    2    3    3    0    0 -0.39612473306E+03 -0.14163778661E+03 -0.20967462773E+03  0.47579669374E+03  0.73776537744E+02 0.  0.
         -6    2    1    2    0  502  0.67170416288E+03  0.17054219197E+03 -0.43746629070E+03  0.83758364729E+03  0.17291179552E+03 0.  0.
        -24    2    5    5    0    0  0.35811758921E+03  0.24530179964E+02 -0.20909990434E+03  0.42306061625E+03  0.80047345989E+02 0.  0.
         14    1    4    4    0    0 -0.26374857273E+03 -0.60170994120E+02 -0.11625112073E+03  0.29444554883E+03  0.00000000000E+00 0. -1.
        -13    1    4    4    0    0 -0.13237616033E+03 -0.81466792488E+02 -0.93423507000E+02  0.18135114492E+03  0.00000000000E+00 0.  1.
          5    1    3    3  501    0 -0.27557942982E+03 -0.28904405364E+02 -0.25053552821E+03  0.37359018681E+03  0.47000000000E+01 0. -1.
         11    1    6    6    0    0  0.19898308796E+03  0.41704601967E+02 -0.14912495147E+03  0.25213447656E+03  0.00000000000E+00 0. -1.
        -12    1    6    6    0    0  0.15913450125E+03 -0.17174422003E+02 -0.59974952875E+02  0.17092613970E+03  0.00000000000E+00 0.  1.
         -5    1    5    5    0  502  0.31358657367E+03  0.14601201201E+03 -0.22836638636E+03  0.41452303103E+03  0.47000000000E+01 0.  1.
</event>
<event>
12    1  0.9749377E-001  0.2751644E+03  0.7818608E-02  0.1098360E+00
         21   -1    0    0  501  502  0.00000000000E+00  0.00000000000E+00  0.33764315353E+03  0.33764315353E+03  0.00000000000E+00 0. -1.
         21   -1    0    0  502  503 -0.00000000000E+00 -0.00000000000E+00 -0.30105257142E+03  0.30105257142E+03  0.00000000000E+00 0.  1.
         -6    2    1    2    0  503  0.24139603309E+03  0.13922867128E+02  0.13444913874E+03  0.32630084312E+03  0.17300224937E+03 0.  0.
        -24    2    3    3    0    0  0.11080167616E+03  0.20808499987E+02  0.13900696992E+03  0.19536130812E+03  0.78314097771E+02 0.  0.
          6    2    1    2  501    0 -0.24139603309E+03 -0.13922867128E+02 -0.97858556625E+02  0.31239488183E+03  0.17189640504E+03 0.  0.
         24    2    5    5    0    0 -0.16889616429E+03  0.58430507046E+02 -0.72383633251E+02  0.20674307895E+03  0.74587343866E+02 0.  0.
         12    1    6    6    0    0 -0.13424319051E+02  0.12368653017E+02  0.14011685269E+02  0.23011372048E+02  0.00000000000E+00 0. -1.
        -11    1    6    6    0    0 -0.15547184524E+03  0.46061854029E+02 -0.86395318520E+02  0.18373170690E+03  0.00000000000E+00 0.  1.
          5    1    5    5  501    0 -0.72499868802E+02 -0.72353374174E+02 -0.25474923374E+02  0.10565180288E+03  0.47000000000E+01 0. -1.
         13    1    4    4    0    0  0.33188989103E+02 -0.29195216943E+02  0.35773057624E+02  0.56864587766E+02  0.00000000000E+00 0. -1.
        -14    1    4    4    0    0  0.77612687061E+02  0.50003716929E+02  0.10323391230E+03  0.13849672035E+03  0.00000000000E+00 0.  1.
         -5    1    3    3    0  503  0.13059435693E+03 -0.68856328586E+01 -0.45578311761E+01  0.13093953500E+03  0.47000000000E+01 0.  1.
</event>
<event>
12    1  0.9749377E-001  0.3252185E+03  0.7818608E-02  0.1073272E+00
         21   -1    0    0  503  502  0.00000000000E+00  0.00000000000E+00  0.39803928113E+03  0.39803928113E+03  0.00000000000E+00 0. -1.
         21   -1    0    0  501  503 -0.00000000000E+00 -0.00000000000E+00 -0.32439726593E+03  0.32439726593E+03  0.00000000000E+00 0.  1.
          6    2    1    2  501    0 -0.29027733179E+03 -0.68528318744E+02 -0.66842675342E+02  0.35523060812E+03  0.18100768459E+03 0.  0.
         24    2    3    3    0    0 -0.68011552137E+02  0.17915190466E+02 -0.44896561669E+02  0.11569297226E+03  0.80141358282E+02 0.  0.
         -6    2    1    2    0  502  0.29027733179E+03  0.68528318744E+02  0.14048469055E+03  0.36720593894E+03  0.16170093843E+03 0.  0.
        -24    2    5    5    0    0  0.27610526687E+03  0.10033478079E+03  0.12020811091E+03  0.32663836403E+03  0.77080764747E+02 0.  0.
         14    1    4    4    0    0 -0.58617999405E+02 -0.19688642192E+01 -0.63822525485E+02  0.86679069214E+02  0.00000000000E+00 0. -1.
        -13    1    4    4    0    0 -0.93935527320E+01  0.19884054685E+02  0.18925963816E+02  0.29013903047E+02  0.00000000000E+00 0.  1.
          5    1    3    3  501    0 -0.22226577965E+03 -0.86443509210E+02 -0.21946113672E+02  0.23953763586E+03  0.47000000000E+01 0. -1.
         11    1    6    6    0    0  0.45898391419E+02  0.24180316023E+01 -0.61504669302E+01  0.46371731207E+02  0.00000000000E+00 0. -1.
        -12    1    6    6    0    0  0.23020687545E+03  0.97916749192E+02  0.12635857784E+03  0.28026663282E+03  0.00000000000E+00 0.  1.
         -5    1    5    5    0  502  0.14172064918E+02 -0.31806462051E+02  0.20276579639E+02  0.40567574910E+02  0.47000000000E+01 0.  1.
</event>
<event>
12    1  0.9749377E-001  0.2709024E+03  0.7818608E-02  0.1100764E+00
         21   -1    0    0  501  502  0.00000000000E+00  0.00000000000E+00  0.19691323718E+03  0.19691323718E+03  0.00000000000E+00 0.  1.
         21   -1    0    0  502  503 -0.00000000000E+00 -0.00000000000E+00 -0.42837228219E+03  0.42837228219E+03  0.00000000000E+00 0. -1.
         -6    2    1    2    0  503 -0.12722035274E+03  0.18544933701E+03 -0.50668826941E+02  0.28851574097E+03  0.17348639144E+03 0.  0.
        -24    2    3    3    0    0 -0.11054799831E+03  0.19834601526E+03 -0.81054714480E+01  0.24078712332E+03  0.79691520201E+02 0.  0.
          6    2    1    2  501    0  0.12722035274E+03 -0.18544933701E+03 -0.18079021807E+03  0.33676977840E+03  0.17364419353E+03 0.  0.
         24    2    5    5    0    0  0.18648122694E+02 -0.14507400818E+03 -0.11897582923E+03  0.20538787332E+03  0.81453730645E+02 0.  0.
         14    1    6    6    0    0 -0.51617342233E+01  0.85875132462E+01 -0.74152007578E+00  0.10046827159E+02  0.00000000000E+00 0. -1.
        -13    1    6    6    0    0  0.23809856917E+02 -0.15366152143E+03 -0.11823430915E+03  0.19534104616E+03  0.00000000000E+00 0.  1.
          5    1    5    5  501    0  0.10857223004E+03 -0.40375328831E+02 -0.61814388839E+02  0.13138190508E+03  0.47000000000E+01 0. -1.
         11    1    4    4    0    0 -0.93495667810E+02  0.92390841949E+02  0.10520099694E+02  0.13186424865E+03  0.00000000000E+00 0. -1.
        -12    1    4    4    0    0 -0.17052330504E+02  0.10595517331E+03 -0.18625571142E+02  0.10892287467E+03  0.00000000000E+00 0.  1.
         -5    1    3    3    0  503 -0.16672354425E+02 -0.12896678242E+02 -0.42563355493E+02  0.47728617648E+02  0.47000000000E+01 0.  1.
</event>
<event>
12    1  0.9749377E-001  0.7553150E+03  0.7818608E-02  0.9627049E-01
         21   -1    0    0  503  502  0.00000000000E+00  0.00000000000E+00  0.52619588136E+03  0.52619588136E+03  0.00000000000E+00 0.  1.
         21   -1    0    0  501  503 -0.00000000000E+00 -0.00000000000E+00 -0.10945074748E+04  0.10945074748E+04  0.00000000000E+00 0. -1.
          6    2    1    2  501    0  0.70554686525E+03 -0.21937305002E+03 -0.25681971457E+03  0.80068984403E+03  0.17095890267E+03 0.  0.
         24    2    3    3    0    0  0.35743633419E+03 -0.16522799392E+03 -0.17957688368E+03  0.43999444087E+03  0.79285735626E+02 0.  0.
         -6    2    1    2    0  502 -0.70554686525E+03  0.21937305002E+03 -0.31149187892E+03  0.82001351218E+03  0.17168009609E+03 0.  0.
        -24    2    5    5    0    0 -0.71254719002E+03  0.21450338917E+03 -0.31058574752E+03  0.81023449292E+03  0.79254179546E+02 0.  0.
         12    1    4    4    0    0  0.90331278482E+02 -0.81484981514E+02 -0.58978914152E+02  0.13519635498E+03  0.00000000000E+00 0. -1.
        -11    1    4    4    0    0  0.26710505571E+03 -0.83743012401E+02 -0.12059796952E+03  0.30479808590E+03  0.00000000000E+00 0.  1.
          5    1    3    3  501    0  0.34811053105E+03 -0.54145056100E+02 -0.77242830892E+02  0.36069540315E+03  0.47000000000E+01 0. -1.
         11    1    6    6    0    0 -0.63773236563E+03  0.21229534142E+03 -0.29369802412E+03  0.73350556339E+03  0.00000000000E+00 0. -1.
        -12    1    6    6    0    0 -0.74814824396E+02  0.22080477482E+01 -0.16887723401E+02  0.76728929524E+02  0.00000000000E+00 0.  1.
         -5    1    5    5    0  502  0.70003247741E+01  0.48696608452E+01 -0.90613139950E+00  0.97790192659E+01  0.47000000000E+01 0.  1.
</event>
<event>
12    1  0.9749377E-001  0.4862387E+03  0.7818608E-02  0.1017435E+00
         21   -1    0    0  503  502  0.00000000000E+00  0.00000000000E+00  0.21979060386E+03  0.21979060386E+03  0.00000000000E+00 0.  1.
         21   -1    0    0  501  503 -0.00000000000E+00 -0.00000000000E+00 -0.11403686294E+04  0.11403686294E+04  0.00000000000E+00 0. -1.
          6    2    1    2  501    0 -0.46121051491E+03 -0.75872806405E+02 -0.52888192942E+03  0.72650017195E+03  0.17208888042E+03 0.  0.
         24    2    3    3    0    0 -0.44897769852E+03 -0.38858060659E+02 -0.47255348300E+03  0.65783637454E+03  0.79693028070E+02 0.  0.
         -6    2    1    2    0  502  0.46121051491E+03  0.75872806405E+02 -0.39169609615E+03  0.63365906135E+03  0.17212249264E+03 0.  0.
        -24    2    5    5    0    0  0.35364648144E+03  0.22458667344E+02 -0.35478945493E+03  0.50793204868E+03  0.80927023755E+02 0.  0.
         12    1    4    4    0    0 -0.41234866471E+03 -0.42635780242E+02 -0.39795982470E+03  0.57464880850E+03  0.00000000000E+00 0. -1.
        -11    1    4    4    0    0 -0.36629033810E+02  0.37777195834E+01 -0.74593658306E+02  0.83187566034E+02  0.00000000000E+00 0.  1.
          5    1    3    3  501    0 -0.12232816392E+02 -0.37014745746E+02 -0.56328446416E+02  0.68663797413E+02  0.47000000000E+01 0. -1.
         11    1    6    6    0    0  0.27176838869E+03  0.47805900292E+02 -0.24808175581E+03  0.37106336219E+03  0.00000000000E+00 0. -1.
        -12    1    6    6    0    0  0.81878092752E+02 -0.25347232948E+02 -0.10670769912E+03  0.13686868649E+03  0.00000000000E+00 0.  1.
         -5    1    5    5    0  502  0.10756403347E+03  0.53414139061E+02 -0.36906641222E+02  0.12572701267E+03  0.47000000000E+01 0.  1.
</event>
<event>
12    1  0.9749377E-001  0.3954746E+03  0.7818608E-02  0.1045358E+00
         21   -1    0    0  503  502  0.00000000000E+00  0.00000000000E+00  0.16718067470E+04  0.16718067470E+04  0.00000000000E+00 0.  1.
         21   -1    0    0  501  503 -0.00000000000E+00 -0.00000000000E+00 -0.10482397627E+03  0.10482397627E+03  0.00000000000E+00 0. -1.
          6    2    1    2  501    0  0.35678804503E+03 -0.68657810904E+02  0.53608658651E+03  0.67025257207E+03  0.17273701996E+03 0.  0.
         24    2    3    3    0    0  0.86883715417E+02 -0.49939019844E+02  0.21030114002E+03  0.24674697893E+03  0.81331521625E+02 0.  0.
         -6    2    1    2    0  502 -0.35678804503E+03  0.68657810904E+02  0.10308961842E+04  0.11063781512E+04  0.17121351213E+03 0.  0.
        -24    2    5    5    0    0 -0.25848973082E+03 -0.16620079548E+02  0.66496530646E+03  0.71796809150E+03  0.78779144675E+02 0.  0.
         14    1    4    4    0    0  0.95413016227E+02 -0.54467262044E+02  0.15141565770E+03  0.18707492535E+03  0.00000000000E+00 0. -1.
        -13    1    4    4    0    0 -0.85293008102E+01  0.45282421997E+01  0.58885482319E+02  0.59672053573E+02  0.00000000000E+00 0.  1.
          5    1    3    3  501    0  0.26990432961E+03 -0.18718791059E+02  0.32578544649E+03  0.42350559315E+03  0.47000000000E+01 0. -1.
         13    1    6    6    0    0 -0.14701610729E+03 -0.48265982118E+02  0.36944701450E+03  0.40054267857E+03  0.00000000000E+00 0. -1.
        -14    1    6    6    0    0 -0.11147362353E+03  0.31645902571E+02  0.29551829196E+03  0.31742541294E+03  0.00000000000E+00 0.  1.
         -5    1    5    5    0  502 -0.98298314207E+02  0.85277890452E+02  0.36593087771E+03  0.38841005965E+03  0.47000000000E+01 0.  1.
</event>
<event>
12    1  0.9749377E-001  0.8132019E+03  0.7818608E-02  0.9541102E-01
         21   -1    0    0  503  502  0.00000000000E+00  0.00000000000E+00  0.17680054345E+04  0.17680054345E+04  0.00000000000E+00 0.  1.
         21   -1    0    0  501  503 -0.00000000000E+00 -0.00000000000E+00 -0.39166270736E+03  0.39166270736E+03  0.00000000000E+00 0. -1.
          6    2    1    2  501    0 -0.38759996506E+03 -0.70460372791E+03  0.85349239530E+03  0.11852053959E+04  0.17193724221E+03 0.  0.
         24    2    3    3    0    0 -0.16974487618E+03 -0.21138372589E+03  0.26907022571E+03  0.39003360786E+03  0.78936850279E+02 0.  0.
         -6    2    1    2    0  502  0.38759996506E+03  0.70460372791E+03  0.52285033185E+03  0.97446274600E+03  0.17177027543E+03 0.  0.
        -24    2    5    5    0    0  0.35000540279E+03  0.63123000516E+03  0.40768839954E+03  0.83275383676E+03  0.79460808756E+02 0.  0.
         12    1    4    4    0    0 -0.12214474295E+02  0.61763186064E+01  0.11250881534E+02  0.17717861866E+02  0.00000000000E+00 0. -1.
        -11    1    4    4    0    0 -0.15753040189E+03 -0.21756004450E+03  0.25781934418E+03  0.37231574599E+03  0.00000000000E+00 0.  1.
          5    1    3    3  501    0 -0.21785508888E+03 -0.49322000202E+03  0.58442216958E+03  0.79517178801E+03  0.47000000000E+01 0. -1.
         11    1    6    6    0    0  0.45284033839E+02  0.10272258897E+03  0.33819230370E+02  0.11724467727E+03  0.00000000000E+00 0. -1.
        -12    1    6    6    0    0  0.30472136895E+03  0.52850741619E+03  0.37386916917E+03  0.71550915950E+03  0.00000000000E+00 0.  1.
         -5    1    5    5    0  502  0.37594562266E+02  0.73373722753E+02  0.11516193231E+03  0.14170890924E+03  0.47000000000E+01 0.  1.
</event>
<event>
12    1  0.9749377E-001  0.3494751E+03  0.7818608E-02  0.1062831E+00
         21   -1    0    0  501  502  0.00000000000E+00  0.00000000000E+00  0.28364903313E+03  0.28364903313E+03  0.00000000000E+00 0.  1.
         21   -1    0    0  502  503 -0.00000000000E+00 -0.00000000000E+00 -0.57665214061E+03  0.57665214061E+03  0.00000000000E+00 0. -1.
         -6    2    1    2    0  503  0.32662310796E+03  0.42083788208E+02  0.26967889949E+02  0.37187374091E+03  0.17061392735E+03 0.  0.
        -24    2    3    3    0    0  0.23609303582E+03  0.22766534609E+02 -0.34086753447E+02  0.26088450842E+03  0.10315320311E+03 0.  0.
          6    2    1    2  501    0 -0.32662310796E+03 -0.42083788208E+02 -0.31997099743E+03  0.48842743282E+03  0.16651191566E+03 0.  0.
         24    2    5    5    0    0 -0.28995885143E+03 -0.76429445089E+02 -0.23597664029E+03  0.39044256723E+03  0.82721387483E+02 0.  0.
         14    1    6    6    0    0 -0.10931070247E+03 -0.46184751616E+02 -0.48063847462E+02  0.12803122427E+03  0.00000000000E+00 0. -1.
        -13    1    6    6    0    0 -0.18064814896E+03 -0.30244693473E+02 -0.18791279283E+03  0.26241134296E+03  0.00000000000E+00 0.  1.
          5    1    5    5  501    0 -0.36664256532E+02  0.34345656881E+02 -0.83994357141E+02  0.97984865593E+02  0.47000000000E+01 0. -1.
         13    1    4    4    0    0  0.34546587767E+01 -0.17535060539E+02  0.10325248219E+02  0.20640343169E+02  0.00000000000E+00 0. -1.
        -14    1    4    4    0    0  0.23263837705E+03  0.40301595148E+02 -0.44412001666E+02  0.24024416525E+03  0.00000000000E+00 0.  1.
         -5    1    3    3    0  503  0.90530072137E+02  0.19317253599E+02  0.61054643397E+02  0.11098923249E+03  0.47000000000E+01 0.  1.
</event>
<event>
12    1  0.9749377E-001  0.1986646E+03  0.7818608E-02  0.1150871E+00
         21   -1    0    0  501  502  0.00000000000E+00  0.00000000000E+00  0.72551817434E+03  0.72551817434E+03  0.00000000000E+00 0. -1.
         21   -1    0    0  502  503 -0.00000000000E+00 -0.00000000000E+00 -0.12314944818E+03  0.12314944818E+03  0.00000000000E+00 0.  1.
         -6    2    1    2    0  503 -0.14547156053E+03 -0.60315095394E+02  0.56649733748E+03  0.61262709319E+03  0.17202568492E+03 0.  0.
        -24    2    3    3    0    0 -0.88265157387E+02  0.19590267852E+02  0.41658444461E+03  0.43331338739E+03  0.77739150996E+02 0.  0.
          6    2    1    2  501    0  0.14547156053E+03  0.60315095394E+02  0.35871388683E+02  0.23604052934E+03  0.17212928079E+03 0.  0.
         24    2    5    5    0    0  0.33642662330E+02  0.30022705937E+01 -0.30491399325E+02  0.93855537188E+02  0.82087112695E+02 0.  0.
         12    1    6    6    0    0  0.40029181294E+02 -0.29257993862E+02 -0.86066083801E+00  0.49589376856E+02  0.00000000000E+00 0. -1.
        -11    1    6    6    0    0 -0.63865189644E+01  0.32260264455E+02 -0.29630738487E+02  0.44266160332E+02  0.00000000000E+00 0.  1.
          5    1    5    5  501    0  0.11182889820E+03  0.57312824800E+02  0.66362788009E+02  0.14218499215E+03  0.47000000000E+01 0. -1.
         13    1    4    4    0    0 -0.62386702871E+02  0.10290369925E+02  0.12166241449E+03  0.13711212750E+03  0.00000000000E+00 0. -1.
        -14    1    4    4    0    0 -0.25878454516E+02  0.92998979267E+01  0.29492203013E+03  0.29620125990E+03  0.00000000000E+00 0.  1.
         -5    1    3    3    0  503 -0.57206403146E+02 -0.79905363246E+02  0.14991289287E+03  0.17931370579E+03  0.47000000000E+01 0.  1.
</event>
<event>
12    1  0.9749377E-001  0.1009151E+04  0.7818608E-02  0.9298565E-01
         21   -1    0    0  501  502  0.00000000000E+00  0.00000000000E+00  0.10584181756E+04  0.10584181756E+04  0.00000000000E+00 0.  1.
         21   -1    0    0  502  503 -0.00000000000E+00 -0.00000000000E+00 -0.97885883228E+03  0.97885883228E+03  0.00000000000E+00 0. -1.
         -6    2    1    2    0  503 -0.51557002635E+03 -0.85646084147E+03  0.10753263794E+03  0.10202191717E+04  0.17304989170E+03 0.  0.
        -24    2    3    3    0    0 -0.19645945359E+03 -0.32742066031E+03  0.11248525079E+02  0.39491301362E+03  0.10014566045E+03 0.  0.
          6    2    1    2  501    0  0.51557002635E+03  0.85646084147E+03 -0.27973294600E+02  0.10170578362E+04  0.18516617388E+03 0.  0.
         24    2    5    5    0    0  0.30231764634E+03  0.56874656149E+03  0.47347867713E+02  0.65106404941E+03  0.82304102968E+02 0.  0.
         14    1    6    6    0    0  0.21808173740E+03  0.34023763662E+03  0.69117638338E+01  0.40418939377E+03  0.00000000000E+00 0. -1.
        -13    1    6    6    0    0  0.84235908941E+02  0.22850892486E+03  0.40436103879E+02  0.24687465563E+03  0.00000000000E+00 0.  1.
          5    1    5    5  501    0  0.21325238001E+03  0.28771427998E+03 -0.75321162313E+02  0.36599378680E+03  0.47000000000E+01 0. -1.
         13    1    4    4    0    0 -0.19950793040E+03 -0.26289986317E+03  0.13156569106E+02  0.33029206418E+03  0.00000000000E+00 0. -1.
        -14    1    4    4    0    0  0.30484768160E+01 -0.64520797145E+02 -0.19080440269E+01  0.64620949444E+02  0.00000000000E+00 0.  1.
         -5    1    3    3    0  503 -0.31911057276E+03 -0.52904018116E+03  0.96284112861E+02  0.62530615807E+03  0.47000000000E+01 0.  1.
</event>
<event>
12    1  0.9749377E-001  0.4510755E+03  0.7818608E-02  0.1027402E+00
         21   -1    0    0  501  502  0.00000000000E+00  0.00000000000E+00  0.58709830787E+03  0.58709830787E+03  0.00000000000E+00 0.  1.
         21   -1    0    0  502  503 -0.00000000000E+00 -0.00000000000E+00 -0.38239628850E+03  0.38239628850E+03  0.00000000000E+00 0. -1.
         -6    2    1    2    0  503 -0.34515707002E+03  0.24691817233E+03  0.22795993497E+03  0.51117370439E+03  0.17097028191E+03 0.  0.
        -24    2    3    3    0    0 -0.11073448713E+03  0.51249852841E+02  0.34268845205E+02  0.14954078709E+03  0.79368880521E+02 0.  0.
          6    2    1    2  501    0  0.34515707002E+03 -0.24691817233E+03 -0.23257915590E+02  0.45832089198E+03  0.17150837466E+03 0.  0.
         24    2    5    5    0    0  0.21986515549E+03 -0.89464203955E+02 -0.50814803089E+02  0.25516753107E+03  0.78637105158E+02 0.  0.
         14    1    6    6    0    0  0.59447297591E+02  0.11299601628E+02 -0.15491412740E+02  0.62463157593E+02  0.00000000000E+00 0. -1.
        -13    1    6    6    0    0  0.16041785790E+03 -0.10076380558E+03 -0.35323390349E+02  0.19270437347E+03  0.00000000000E+00 0.  1.
          5    1    5    5  501    0  0.12529191453E+03 -0.15745396838E+03  0.27556887500E+02  0.20315336092E+03  0.47000000000E+01 0. -1.
         13    1    4    4    0    0 -0.67653361815E+02  0.71063111005E+02  0.21790499253E+02  0.10050755677E+03  0.00000000000E+00 0. -1.
        -14    1    4    4    0    0 -0.43081125319E+02 -0.19813258164E+02  0.12478345952E+02  0.49033230319E+02  0.00000000000E+00 0.  1.
         -5    1    3    3    0  503 -0.23442258289E+03  0.19566831949E+03  0.19369108976E+03  0.36163291730E+03  0.47000000000E+01 0.  1.
</event>
<event>
12    1  0.9749377E-001  0.3961272E+03  0.7818608E-02  0.1045129E+00
         21   -1    0    0  501  502  0.00000000000E+00  0.00000000000E+00  0.63916680976E+03  0.63916680976E+03  0.00000000000E+00 0. -1.
         21   -1    0    0  502  503 -0.00000000000E+00 -0.00000000000E+00 -0.27544429992E+03  0.27544429992E+03  0.00000000000E+00 0.  1.
         -6    2    1    2    0  503 -0.35616064316E+03 -0.13319830954E+03  0.13406402254E+03  0.43857612395E+03  0.17257943377E+03 0.  0.
        -24    2    3    3    0    0 -0.15929794378E+03 -0.39498530023E+02 -0.16493147383E+01  0.18172057894E+03  0.77997947439E+02 0.  0.
          6    2    1    2  501    0  0.35616064316E+03  0.13319830954E+03  0.22965848730E+03  0.47603498572E+03  0.17109673710E+03 0.  0.
         24    2    5    5    0    0  0.31188032419E+03  0.92731861522E+02  0.24372822981E+03  0.41424236709E+03  0.79528321579E+02 0.  0.
         12    1    6    6    0    0  0.15613613819E+03  0.84264623742E+02  0.10973657540E+03  0.20861720074E+03  0.00000000000E+00 0. -1.
        -11    1    6    6    0    0  0.15574418600E+03  0.84672377802E+01  0.13399165441E+03  0.20562516636E+03  0.00000000000E+00 0.  1.
          5    1    5    5  501    0  0.44280318970E+02  0.40466448018E+02 -0.14069742505E+02  0.61792618632E+02  0.47000000000E+01 0. -1.
         13    1    4    4    0    0 -0.27720767293E+02  0.21983463930E+02 -0.82831730681E+01  0.36336270884E+02  0.00000000000E+00 0. -1.
        -14    1    4    4    0    0 -0.13157717649E+03 -0.61481993952E+02  0.66338583297E+01  0.14538430806E+03  0.00000000000E+00 0.  1.
         -5    1    3    3    0  503 -0.19686269938E+03 -0.93699779518E+02  0.13571333728E+03  0.25685554501E+03  0.47000000000E+01 0.  1.
</event>
<event>
12    1  0.9749377E-001  0.4473181E+03  0.7818608E-02  0.1028525E+00
         21   -1    0    0  503  502  0.00000000000E+00  0.00000000000E+00  0.18296748730E+04  0.18296748730E+04  0.00000000000E+00 0.  1.
         21   -1    0    0  501  503 -0.00000000000E+00 -0.00000000000E+00 -0.11230187883E+03  0.11230187883E+03  0.00000000000E+00 0. -1.
          6    2    1    2  501    0  0.23603734680E+03 -0.34750233225E+03  0.86709520236E+03  0.97837753787E+03  0.16999122520E+03 0.  0.
         24    2    3    3    0    0  0.22487023910E+03 -0.36021479093E+03  0.80334325443E+03  0.91225105479E+03  0.80748266152E+02 0.  0.
         -6    2    1    2    0  502 -0.23603734680E+03  0.34750233225E+03  0.85027779178E+03  0.96359921393E+03  0.17052748128E+03 0.  0.
        -24    2    5    5    0    0 -0.16920549023E+03  0.33681020096E+03  0.71811848035E+03  0.81504285316E+03  0.80802792520E+02 0.  0.
         12    1    4    4    0    0  0.46304340383E+02 -0.14710316568E+03  0.28668262574E+03  0.32553089130E+03  0.00000000000E+00 0. -1.
        -11    1    4    4    0    0  0.17856589872E+03 -0.21311162524E+03  0.51666062869E+03  0.58672016348E+03  0.00000000000E+00 0.  1.
          5    1    3    3  501    0  0.11167107702E+02  0.12712458675E+02  0.63751947929E+02  0.66126483082E+02  0.47000000000E+01 0. -1.
         13    1    6    6    0    0 -0.11344580593E+03  0.21902863816E+03  0.54622219295E+03  0.59933478064E+03  0.00000000000E+00 0. -1.
        -14    1    6    6    0    0 -0.55759684304E+02  0.11778156280E+03  0.17189628740E+03  0.21570807253E+03  0.00000000000E+00 0.  1.
         -5    1    5    5    0  502 -0.66831856570E+02  0.10692131296E+02  0.13215931143E+03  0.14855636076E+03  0.47000000000E+01 0.  1.
</event>
<event>
12    1  0.9749377E-001  0.3302865E+03  0.7818608E-02  0.1071010E+00
         21   -1    0    0  501  502  0.00000000000E+00  0.00000000000E+00  0.12810858958E+03  0.12810858958E+03  0.00000000000E+00 0.  1.
         21   -1    0    0  502  503 -0.00000000000E+00 -0.00000000000E+00 -0.10093366764E+04  0.10093366764E+04  0.00000000000E+00 0. -1.
         -6    2    1    2    0  503  0.18250943423E+03 -0.25766905646E+03 -0.45004009542E+03  0.57599227162E+03  0.17183705435E+03 0.  0.
        -24    2    3    3    0    0  0.12773825931E+03 -0.12234097224E+03 -0.16014042542E+03  0.25137329398E+03  0.79115110396E+02 0.  0.
          6    2    1    2  501    0 -0.18250943423E+03  0.25766905646E+03 -0.43118799138E+03  0.56145299434E+03  0.17205622542E+03 0.  0.
         24    2    5    5    0    0 -0.16568093277E+03  0.25391980182E+03 -0.31736996729E+03  0.44624063398E+03  0.80508198582E+02 0.  0.
         14    1    6    6    0    0 -0.19698568188E+02  0.24590601940E+02 -0.46025213655E+01  0.31842024046E+02  0.00000000000E+00 0. -1.
        -13    1    6    6    0    0 -0.14598236458E+03  0.22932919988E+03 -0.31276744592E+03  0.41439860993E+03  0.00000000000E+00 0.  1.
          5    1    5    5  501    0 -0.16828501453E+02  0.37492546409E+01 -0.11381802410E+03  0.11521236036E+03  0.47000000000E+01 0. -1.
         13    1    4    4    0    0  0.52692022060E+02 -0.10312970639E+03 -0.10458299836E+03  0.15604418949E+03  0.00000000000E+00 0. -1.
        -14    1    4    4    0    0  0.75046237249E+02 -0.19211265851E+02 -0.55557427059E+02  0.95329104487E+02  0.00000000000E+00 0.  1.
         -5    1    3    3    0  503  0.54771174917E+02 -0.13532808422E+03 -0.28989967000E+03  0.32461897764E+03  0.47000000000E+01 0.  1.
</event>
<event>
12    1  0.9749377E-001  0.1677825E+03  0.7818608E-02  0.1180180E+00
         21   -1    0    0  501  502  0.00000000000E+00  0.00000000000E+00  0.13541756776E+03  0.13541756776E+03  0.00000000000E+00 0.  1.
         21   -1    0    0  502  503 -0.00000000000E+00 -0.00000000000E+00 -0.27252984234E+03  0.27252984234E+03  0.00000000000E+00 0. -1.
         -6    2    1    2    0  503 -0.92829111293E+02  0.19779092452E+02 -0.44210560974E+02  0.19035208902E+03  0.15896819711E+03 0.  0.
        -24    2    3    3    0    0 -0.48697417494E+02  0.67041994212E+02 -0.56872565133E+01  0.11493641912E+03  0.79447895471E+02 0.  0.
          6    2    1    2  501    0  0.92829111293E+02 -0.19779092452E+02 -0.92901713600E+02  0.21759532107E+03  0.17236165166E+03 0.  0.
         24    2    5    5    0    0  0.45984977844E+02  0.45280670728E+01 -0.11811663328E+03  0.15891744605E+03  0.95750164607E+02 0.  0.
         12    1    6    6    0    0 -0.16751649479E+01 -0.39135512163E+02 -0.61902695876E+02  0.73255295007E+02  0.00000000000E+00 0. -1.
        -11    1    6    6    0    0  0.47660142792E+02  0.43663579235E+02 -0.56213937407E+02  0.85662151044E+02  0.00000000000E+00 0.  1.
          5    1    5    5  501    0  0.46844133449E+02 -0.24307159525E+02  0.25214919683E+02  0.58677875025E+02  0.47000000000E+01 0. -1.
         13    1    4    4    0    0  0.15716454558E+02  0.41971014340E+02 -0.90986483455E+01  0.45731372058E+02  0.00000000000E+00 0. -1.
        -14    1    4    4    0    0 -0.64413872052E+02  0.25070979872E+02  0.34113918322E+01  0.69205047061E+02  0.00000000000E+00 0.  1.
         -5    1    3    3    0  503 -0.44131693799E+02 -0.47262901761E+02 -0.38523304460E+02  0.75415669903E+02  0.47000000000E+01 0.  1.
</event>
<event>
12    1  0.9749377E-001  0.3852942E+03  0.7818608E-02  0.1048994E+00
         21   -1    0    0  501  502  0.00000000000E+00  0.00000000000E+00  0.79148137130E+03  0.79148137130E+03  0.00000000000E+00 0. -1.
         21   -1    0    0  502  503 -0.00000000000E+00 -0.00000000000E+00 -0.26105112750E+03  0.26105112750E+03  0.00000000000E+00 0.  1.
         -6    2    1    2    0  503  0.28866667767E+03 -0.23051043551E+03  0.32466053309E+02  0.40921621742E+03  0.17303281858E+03 0.  0.
        -24    2    3    3    0    0  0.18529921969E+03 -0.20419809291E+03  0.72508544123E+02  0.29518700269E+03  0.76454009827E+02 0.  0.
          6    2    1    2  501    0 -0.28866667767E+03  0.23051043551E+03  0.49796419050E+03  0.64331628138E+03  0.17153422748E+03 0.  0.
         24    2    5    5    0    0 -0.11589876894E+03  0.15759510423E+03  0.33091833002E+03  0.39213545942E+03  0.77424388066E+02 0.  0.
         14    1    6    6    0    0 -0.97315304351E+02  0.11316491988E+03  0.29951127135E+03  0.33463946154E+03  0.00000000000E+00 0. -1.
        -13    1    6    6    0    0 -0.18583464594E+02  0.44430184351E+02  0.31407058672E+02  0.57495997880E+02  0.00000000000E+00 0.  1.
          5    1    5    5  501    0 -0.17276790872E+03  0.72915331280E+02  0.16704586047E+03  0.25118082196E+03  0.47000000000E+01 0. -1.
         11    1    4    4    0    0  0.14701075045E+03 -0.13426659027E+03  0.81135327441E+02  0.21499446358E+03  0.00000000000E+00 0. -1.
        -12    1    4    4    0    0  0.38288469241E+02 -0.69931502638E+02 -0.86267833181E+01  0.80192539107E+02  0.00000000000E+00 0.  1.
         -5    1    3    3    0  503  0.10336745797E+03 -0.26312342604E+02 -0.40042490814E+02  0.11402921473E+03  0.47000000000E+01 0.  1.
</event>
<event>
12    1  0.9749377E-001  0.1449616E+03  0.7818608E-02  0.1206804E+00
         21   -1    0    0  503  502  0.00000000000E+00  0.00000000000E+00  0.58344694449E+02  0.58344694449E+02  0.00000000000E+00 0.  1.
         21   -1    0    0  501  503 -0.00000000000E+00 -0.00000000000E+00 -0.10506909527E+04  0.10506909527E+04  0.00000000000E+00 0.  1.
          6    2    1    2  501    0  0.47228199658E+02  0.11938991831E+03 -0.22899685981E+03  0.31441522936E+03  0.17301132684E+03 0.  0.
         24    2    3    3    0    0  0.19262706122E+02  0.12485082257E+03 -0.94654343932E+02  0.17700383290E+03  0.80075790936E+02 0.  0.
         -6    2    1    2    0  502 -0.47228199658E+02 -0.11938991831E+03 -0.76334939844E+03  0.79462041779E+03  0.17954066066E+03 0.  0.
        -24    2    5    5    0    0 -0.41126304376E+02 -0.11610089196E+03 -0.77004778265E+03  0.78389618489E+03  0.79679678091E+02 0.  0.
         12    1    4    4    0    0  0.17908085656E+02  0.12620405060E+03 -0.57562842053E+02  0.13986294257E+03  0.00000000000E+00 0. -1.
        -11    1    4    4    0    0  0.13546204659E+01 -0.13532280350E+01 -0.37091501879E+02  0.37140890328E+02  0.00000000000E+00 0.  1.
          5    1    3    3  501    0  0.27965493536E+02 -0.54609042587E+01 -0.13434251588E+03  0.13741139646E+03  0.47000000000E+01 0. -1.
         11    1    6    6    0    0 -0.18593342774E+02 -0.60516191229E+02 -0.60472326566E+03  0.60802808309E+03  0.00000000000E+00 0. -1.
        -12    1    6    6    0    0 -0.22532961602E+02 -0.55584700729E+02 -0.16532451699E+03  0.17586810180E+03  0.00000000000E+00 0.  1.
         -5    1    5    5    0  502 -0.61018952816E+01 -0.32890263497E+01  0.66983842043E+01  0.10724232901E+02  0.47000000000E+01 0.  1.
</event>
<event>
12    1  0.9749377E-001  0.3686107E+03  0.7818608E-02  0.1055225E+00
         21   -1    0    0  501  502  0.00000000000E+00  0.00000000000E+00  0.11207978413E+03  0.11207978413E+03  0.00000000000E+00 0. -1.
         21   -1    0    0  502  503 -0.00000000000E+00 -0.00000000000E+00 -0.13654605413E+04  0.13654605413E+04  0.00000000000E+00 0.  1.
         -6    2    1    2    0  503 -0.18432435247E+03 -0.28344648971E+03 -0.44619375971E+03  0.58589482113E+03  0.17281924310E+03 0.  0.
        -24    2    3    3    0    0 -0.20415164237E+03 -0.24915674940E+03 -0.42678262130E+03  0.54153504195E+03  0.85789375537E+02 0.  0.
          6    2    1    2  501    0  0.18432435247E+03  0.28344648971E+03 -0.80718699742E+03  0.89164550425E+03  0.17077317413E+03 0.  0.
         24    2    5    5    0    0  0.20714670904E+03  0.27491901106E+03 -0.73906958737E+03  0.81914964642E+03  0.79322547448E+02 0.  0.
         14    1    6    6    0    0  0.13375110287E+03  0.12479643142E+03 -0.33089587125E+03  0.37809467654E+03  0.00000000000E+00 0. -1.
        -13    1    6    6    0    0  0.73395606178E+02  0.15012257964E+03 -0.40817371612E+03  0.44105496988E+03  0.00000000000E+00 0.  1.
          5    1    5    5  501    0 -0.22822356572E+02  0.85274786516E+01 -0.68117410047E+02  0.72495857834E+02  0.47000000000E+01 0. -1.
         13    1    4    4    0    0 -0.82849836269E+02 -0.11325677689E+03 -0.25547438336E+03  0.29147616273E+03  0.00000000000E+00 0. -1.
        -14    1    4    4    0    0 -0.12130180611E+03 -0.13589997251E+03 -0.17130823794E+03  0.25005887922E+03  0.00000000000E+00 0.  1.
         -5    1    3    3    0  503  0.19827289902E+02 -0.34289740305E+02 -0.19411138405E+02  0.44359779184E+02  0.47000000000E+01 0.  1.
</event>
<event>
12    1  0.9749377E-001  0.6448997E+03  0.7818608E-02  0.9816397E-01
         21   -1    0    0  501  502  0.00000000000E+00  0.00000000000E+00  0.21162336535E+03  0.21162336535E+03  0.00000000000E+00 0. -1.
         21   -1    0    0  502  503 -0.00000000000E+00 -0.00000000000E+00 -0.22010228459E+04  0.22010228459E+04  0.00000000000E+00 0.  1.
         -6    2    1    2    0  503  0.61313369939E+03  0.16526798415E+03 -0.13168482493E+04  0.14717940990E+04  0.16982967357E+03 0.  0.
        -24    2    3    3    0    0  0.30354659176E+03  0.11020571112E+03 -0.54665524277E+03  0.63987139312E+03  0.79483414321E+02 0.  0.
          6    2    1    2  501    0 -0.61313369939E+03 -0.16526798415E+03 -0.67255123124E+03  0.94085211233E+03  0.17213686041E+03 0.  0.
         24    2    5    5    0    0 -0.17992769087E+03 -0.53499219747E+02 -0.14783503782E+03  0.25128059599E+03  0.77785596702E+02 0.  0.
         14    1    6    6    0    0 -0.79192941753E+02  0.72779171114E+01 -0.30653606875E+02  0.85229887454E+02  0.00000000000E+00 0. -1.
        -13    1    6    6    0    0 -0.10073474912E+03 -0.60777136858E+02 -0.11718143095E+03  0.16605070853E+03  0.00000000000E+00 0.  1.
          5    1    5    5  501    0 -0.43320600852E+03 -0.11176876441E+03 -0.52471619342E+03  0.68957151634E+03  0.47000000000E+01 0. -1.
         13    1    4    4    0    0  0.68090728069E+02 -0.56222860200E+01 -0.14203338772E+03  0.15761167652E+03  0.00000000000E+00 0. -1.
        -14    1    4    4    0    0  0.23545586369E+03  0.11582799714E+03 -0.40462185505E+03  0.48225971660E+03  0.00000000000E+00 0.  1.
         -5    1    3    3    0  503  0.30958710764E+03  0.55062273033E+02 -0.77019300657E+03  0.83192270584E+03  0.47000000000E+01 0.  1.
</event>
<event>
12    1  0.9749377E-001  0.1920864E+03  0.7818608E-02  0.1156593E+00
         21   -1    0    0  503  502  0.00000000000E+00  0.00000000000E+00  0.49822422238E+03  0.49822422238E+03  0.00000000000E+00 0.  1.
         21   -1    0    0  501  503 -0.00000000000E+00 -0.00000000000E+00 -0.92367172546E+02  0.92367172546E+02  0.00000000000E+00 0. -1.
          6    2    1    2  501    0 -0.11330494101E+03  0.59101560283E+02  0.21081438829E+03  0.30005525926E+03  0.17105393364E+03 0.  0.
         24    2    3    3    0    0  0.11340685041E+02  0.24292642199E+02  0.85737571186E+02  0.12001500529E+03  0.79585971000E+02 0.  0.
         -6    2    1    2    0  502  0.11330494101E+03 -0.59101560283E+02  0.19504266154E+03  0.29053613567E+03  0.17331647995E+03 0.  0.
        -24    2    5    5    0    0  0.12850406039E+03 -0.34453748636E+02  0.20480211578E+03  0.25961907248E+03  0.88078384598E+02 0.  0.
         14    1    4    4    0    0 -0.25990646061E+02  0.24432582649E+01  0.25194585144E+01  0.26226529790E+02  0.00000000000E+00 0. -1.
        -13    1    4    4    0    0  0.37331331103E+02  0.21849383935E+02  0.83218112672E+02  0.93788475502E+02  0.00000000000E+00 0.  1.
          5    1    3    3  501    0 -0.12464562605E+03  0.34808918084E+02  0.12507681710E+03  0.18004025396E+03  0.47000000000E+01 0. -1.
         11    1    6    6    0    0  0.24204364298E+01  0.18909942239E+02  0.10030661007E+02  0.21542019131E+02  0.00000000000E+00 0. -1.
        -12    1    6    6    0    0  0.12608362396E+03 -0.53363690876E+02  0.19477145477E+03  0.23807705335E+03  0.00000000000E+00 0.  1.
         -5    1    5    5    0  502 -0.15199119388E+02 -0.24647811647E+02 -0.97594542382E+01  0.30917063188E+02  0.47000000000E+01 0.  1.
</event>
<event>
12    1  0.1119785E+000  0.6861878E+03  0.7818608E-02  0.9741149E-01
         21   -1    0    0  503  502  0.00000000000E+00  0.00000000000E+00  0.72159621366E+03  0.72159621366E+03  0.00000000000E+00 0.  1.
         21   -1    0    0  501  503 -0.00000000000E+00 -0.00000000000E+00 -0.72115123568E+03  0.72115123568E+03  0.00000000000E+00 0. -1.
          6    2    1    2  501    0 -0.10468788634E+03  0.66933774503E+03  0.17536135785E+03  0.72172420945E+03  0.17652665015E+03 0.  0.
         24    2    3    3    0    0 -0.13538548561E+03  0.55093679401E+03  0.17555555703E+03  0.59931810046E+03  0.80634057535E+02 0.  0.
         -6    2    1    2    0  502  0.10468788634E+03 -0.66933774503E+03 -0.17491637986E+03  0.72102323990E+03  0.17408676589E+03 0.  0.
        -24    2    5    5    0    0  0.43771515012E+02 -0.21040801536E+03 -0.10702619573E+03  0.25309325777E+03  0.80088152072E+02 0.  0.
         14    1    4    4    0    0 -0.10478280693E+03  0.43027083853E+03  0.10101312193E+03  0.45422030109E+03  0.00000000000E+00 0. -1.
        -13    1    4    4    0    0 -0.30602678682E+02  0.12066595547E+03  0.74542435095E+02  0.14509779937E+03  0.00000000000E+00 0.  1.
          5    1    3    3  501    0  0.30697599269E+02  0.11840095102E+03 -0.19419918261E+00  0.12240610898E+03  0.47000000000E+01 0. -1.
         11    1    6    6    0    0  0.40933473284E+02 -0.86271952157E+02 -0.10992353130E+02  0.96120917554E+02  0.00000000000E+00 0. -1.
        -12    1    6    6    0    0  0.28380417286E+01 -0.12413606320E+03 -0.96033842603E+02  0.15697234022E+03  0.00000000000E+00 0.  1.
         -5    1    5    5    0  502  0.60916371333E+02 -0.45892972967E+03 -0.67890184131E+02  0.46792998212E+03  0.47000000000E+01 0.  1.
</event>
<event>
12    1  0.9749377E-001  0.4150189E+03  0.7818608E-02  0.1038700E+00
         21   -1    0    0  501  502  0.00000000000E+00  0.00000000000E+00  0.38038276533E+03  0.38038276533E+03  0.00000000000E+00 0. -1.
         21   -1    0    0  502  503 -0.00000000000E+00 -0.00000000000E+00 -0.55120508714E+03  0.55120508714E+03  0.00000000000E+00 0.  1.
         -6    2    1    2    0  503 -0.21772956805E+03  0.32598079068E+03 -0.24610179345E+03  0.49658670573E+03  0.17989614469E+03 0.  0.
        -24    2    3    3    0    0 -0.95736035276E+02  0.25339173189E+03 -0.20469219935E+03  0.34863928947E+03  0.79231934510E+02 0.  0.
          6    2    1    2  501    0  0.21772956805E+03 -0.32598079068E+03  0.75279471630E+02  0.43500114674E+03  0.17288539014E+03 0.  0.
         24    2    5    5    0    0  0.81498283045E+02 -0.19730083593E+03 -0.11544744064E+02  0.22841453488E+03  0.80438353003E+02 0.  0.
         12    1    6    6    0    0 -0.57339853079E+01 -0.62595921779E+02  0.17668629933E+02  0.65294015764E+02  0.00000000000E+00 0. -1.
        -11    1    6    6    0    0  0.87232268353E+02 -0.13470491415E+03 -0.29213373997E+02  0.16312051912E+03  0.00000000000E+00 0.  1.
          5    1    5    5  501    0  0.13623128500E+03 -0.12867995475E+03  0.86824215693E+02  0.20658661186E+03  0.47000000000E+01 0. -1.
         13    1    4    4    0    0 -0.13328869052E+02  0.30815242573E+01 -0.28571147184E+02  0.31677515581E+02  0.00000000000E+00 0. -1.
        -14    1    4    4    0    0 -0.82407166224E+02  0.25031020764E+03 -0.17612105216E+03  0.31696177389E+03  0.00000000000E+00 0.  1.
         -5    1    3    3    0  503 -0.12199353277E+03  0.72589058783E+02 -0.41409594099E+02  0.14794741626E+03  0.47000000000E+01 0.  1.
</event>
<event>
12    1  0.9749377E-001  0.6293477E+03  0.7818608E-02  0.9846322E-01
         21   -1    0    0  501  502  0.00000000000E+00  0.00000000000E+00  0.65382228975E+03  0.65382228975E+03  0.00000000000E+00 0. -1.
         21   -1    0    0  502  503 -0.00000000000E+00 -0.00000000000E+00 -0.77854065480E+03  0.77854065480E+03  0.00000000000E+00 0.  1.
         -6    2    1    2    0  503  0.45553185712E+03 -0.42705227414E+03 -0.36108401745E+03  0.74145948840E+03  0.17174861743E+03 0.  0.
        -24    2    3    3    0    0  0.13370028404E+03 -0.19446722180E+03 -0.11431463570E+03  0.27392490597E+03  0.79207019060E+02 0.  0.
          6    2    1    2  501    0 -0.45553185712E+03  0.42705227414E+03  0.23636565240E+03  0.69090345614E+03  0.17775248629E+03 0.  0.
         24    2    5    5    0    0 -0.37900111546E+03  0.34233051358E+03  0.25454981292E+03  0.57519915707E+03  0.72294100618E+02 0.  0.
         12    1    6    6    0    0 -0.26593868096E+03  0.25241616875E+03  0.14666408769E+03  0.39490208773E+03  0.00000000000E+00 0. -1.
        -11    1    6    6    0    0 -0.11306243450E+03  0.89914344827E+02  0.10788572524E+03  0.18029706933E+03  0.00000000000E+00 0.  1.
          5    1    5    5  501    0 -0.76530741663E+02  0.84721760555E+02 -0.18184160526E+02  0.11570429908E+03  0.47000000000E+01 0. -1.
         13    1    4    4    0    0  0.21933894158E+01 -0.13762031228E+01  0.92741664962E+01  0.96288657880E+01  0.00000000000E+00 0. -1.
        -14    1    4    4    0    0  0.13150689463E+03 -0.19309101868E+03 -0.12358880219E+03  0.26429604018E+03  0.00000000000E+00 0.  1.
         -5    1    3    3    0  503  0.32183157308E+03 -0.23258505233E+03 -0.24676938175E+03  0.46753458243E+03  0.47000000000E+01 0.  1.
</event>
<event>
12    1  0.9749377E-001  0.3063250E+03  0.7818608E-02  0.1082121E+00
         21   -1    0    0  501  502  0.00000000000E+00  0.00000000000E+00  0.34925157169E+03  0.34925157169E+03  0.00000000000E+00 0. -1.
         21   -1    0    0  502  503 -0.00000000000E+00 -0.00000000000E+00 -0.30340005480E+03  0.30340005480E+03  0.00000000000E+00 0.  1.
         -6    2    1    2    0  503 -0.18529721656E+03 -0.19338686762E+03  0.87457864477E+02  0.33017792044E+03  0.17214831412E+03 0.  0.
        -24    2    3    3    0    0 -0.12205763708E+03 -0.18652310469E+03  0.20508436106E+02  0.23770807879E+03  0.79972491652E+02 0.  0.
          6    2    1    2  501    0  0.18529721656E+03  0.19338686762E+03 -0.41606347587E+02  0.32247370605E+03  0.17471309024E+03 0.  0.
         24    2    5    5    0    0  0.13775831453E+03  0.21440568782E+03 -0.31382403962E+02  0.26929140606E+03  0.81153274183E+02 0.  0.
         14    1    6    6    0    0  0.68511092891E+02  0.17368489215E+03 -0.28800386225E+02  0.18891710843E+03  0.00000000000E+00 0. -1.
        -13    1    6    6    0    0  0.69247221636E+02  0.40720795662E+02 -0.25820177365E+01  0.80374297628E+02  0.00000000000E+00 0.  1.
          5    1    5    5  501    0  0.47538902035E+02 -0.21018820196E+02 -0.10223943625E+02  0.53182299991E+02  0.47000000000E+01 0. -1.
         13    1    4    4    0    0 -0.65767347576E+02 -0.14644007590E+03  0.40900414704E+02  0.16565893807E+03  0.00000000000E+00 0. -1.
        -14    1    4    4    0    0 -0.56290289500E+02 -0.40083028786E+02 -0.20391978598E+02  0.72049140729E+02  0.00000000000E+00 0.  1.
         -5    1    3    3    0  503 -0.63239579486E+02 -0.68637629302E+01  0.66949428371E+02  0.92469841647E+02  0.47000000000E+01 0.  1.
</event>
<event>
12    1  0.9749377E-001  0.4432130E+03  0.7818608E-02  0.1029766E+00
         21   -1    0    0  501  502  0.00000000000E+00  0.00000000000E+00  0.80812962782E+03  0.80812962782E+03  0.00000000000E+00 0. -1.
         21   -1    0    0  502  503 -0.00000000000E+00 -0.00000000000E+00 -0.26975111730E+03  0.26975111730E+03  0.00000000000E+00 0.  1.
         -6    2    1    2    0  503 -0.37916788029E+03  0.21033197575E+03  0.24310592984E+03  0.52629750921E+03  0.17286050334E+03 0.  0.
        -24    2    3    3    0    0 -0.29267233327E+03  0.19820278642E+03  0.13534164737E+03  0.38750331818E+03  0.83066364339E+02 0.  0.
          6    2    1    2  501    0  0.37916788029E+03 -0.21033197575E+03  0.29527258068E+03  0.55158323591E+03  0.17044162569E+03 0.  0.
         24    2    5    5    0    0  0.12803188663E+03 -0.93483878863E+02  0.55534486544E+02  0.18522383745E+03  0.78053770976E+02 0.  0.
         12    1    6    6    0    0  0.20413509716E+02 -0.26575096898E+02 -0.18683998789E+02  0.38367159979E+02  0.00000000000E+00 0. -1.
        -11    1    6    6    0    0  0.10761837691E+03 -0.66908781965E+02  0.74218485333E+02  0.14685667747E+03  0.00000000000E+00 0.  1.
          5    1    5    5  501    0  0.25113599366E+03 -0.11684809689E+03  0.23973809413E+03  0.36635939845E+03  0.47000000000E+01 0. -1.
         13    1    4    4    0    0 -0.15014835541E+03  0.14734912353E+03  0.61841938337E+02  0.21927315881E+03  0.00000000000E+00 0. -1.
        -14    1    4    4    0    0 -0.14252397786E+03  0.50853662886E+02  0.73499709038E+02  0.16823015937E+03  0.00000000000E+00 0.  1.
         -5    1    3    3    0  503 -0.86495547021E+02  0.12129189333E+02  0.10776428247E+03  0.13879419103E+03  0.47000000000E+01 0.  1.
</event>
<event>
12    1  0.9749377E-001  0.6551923E+03  0.7818608E-02  0.9797085E-01
         21   -1    0    0  501  502  0.00000000000E+00  0.00000000000E+00  0.20954267256E+04  0.20954267256E+04  0.00000000000E+00 0.  1.
         21   -1    0    0  502  503 -0.00000000000E+00 -0.00000000000E+00 -0.24337944820E+03  0.24337944820E+03  0.00000000000E+00 0. -1.
         -6    2    1    2    0  503  0.60369277501E+03 -0.22794676223E+03  0.13394815268E+04  0.14967371662E+04  0.17206595033E+03 0.  0.
        -24    2    3    3    0    0  0.53133655429E+03 -0.22051457348E+03  0.10647725214E+04  0.12125228321E+04  0.74336296526E+02 0.  0.
          6    2    1    2  501    0 -0.60369277501E+03  0.22794676223E+03  0.51256575064E+03  0.84206900756E+03  0.17306609069E+03 0.  0.
         24    2    5    5    0    0 -0.57743067844E+03  0.18086233562E+03  0.49271650018E+03  0.78442593608E+03  0.80106970958E+02 0.  0.
         12    1    6    6    0    0 -0.13336066940E+03  0.61735722929E+02  0.15760304495E+03  0.21548802149E+03  0.00000000000E+00 0. -1.
        -11    1    6    6    0    0 -0.44407000905E+03  0.11912661269E+03  0.33511345523E+03  0.56893791459E+03  0.00000000000E+00 0.  1.
          5    1    5    5  501    0 -0.26262096564E+02  0.47084426607E+02  0.19849250462E+02  0.57643071472E+02  0.47000000000E+01 0. -1.
         11    1    4    4    0    0  0.25874158250E+03 -0.85894854587E+02  0.56929421735E+03  0.63120601903E+03  0.00000000000E+00 0. -1.
        -12    1    4    4    0    0  0.27259497179E+03 -0.13461971889E+03  0.49547830402E+03  0.58131681303E+03  0.00000000000E+00 0.  1.
         -5    1    3    3    0  503  0.72356220721E+02 -0.74321887502E+01  0.27470900539E+03  0.28421433418E+03  0.47000000000E+01 0.  1.
</event>
<event>
12    1  0.9749377E-001  0.6586938E+03  0.7818608E-02  0.9790601E-01
         21   -1    0    0  503  502  0.00000000000E+00  0.00000000000E+00  0.41452874403E+03  0.41452874403E+03  0.00000000000E+00 0. -1.
         21   -1    0    0  501  503 -0.00000000000E+00 -0.00000000000E+00 -0.12928944472E+04  0.12928944472E+04  0.00000000000E+00 0.  1.
          6    2    1    2  501    0  0.33495483114E+03  0.54451979136E+03 -0.80367136416E+03  0.10414453135E+04  0.17327474531E+03 0.  0.
         24    2    3    3    0    0  0.29738049436E+03  0.54474449985E+03 -0.75539319710E+03  0.98008773294E+03  0.69074984547E+02 0.  0.
         -6    2    1    2    0  502 -0.33495483114E+03 -0.54451979136E+03 -0.74694339028E+02  0.66597787775E+03  0.17102849843E+03 0.  0.
        -24    2    5    5    0    0 -0.25988428296E+03 -0.51229008119E+03 -0.67130722859E+02  0.58379734653E+03  0.79572859995E+02 0.  0.
         12    1    4    4    0    0  0.16185517881E+03  0.34479149825E+03 -0.42333926548E+03  0.56946853281E+03  0.00000000000E+00 0. -1.
        -11    1    4    4    0    0  0.13552531555E+03  0.19995300160E+03 -0.33205393163E+03  0.41061920013E+03  0.00000000000E+00 0.  1.
          5    1    3    3  501    0  0.37574336783E+02 -0.22470848451E+00 -0.48278167060E+02  0.61357580569E+02  0.47000000000E+01 0. -1.
         11    1    6    6    0    0 -0.16146492434E+03 -0.34985969346E+03 -0.99306054123E+01  0.38544953473E+03  0.00000000000E+00 0. -1.
        -12    1    6    6    0    0 -0.98419358624E+02 -0.16243038773E+03 -0.57200117447E+02  0.19834781180E+03  0.00000000000E+00 0.  1.
         -5    1    5    5    0  502 -0.75070548180E+02 -0.32229710177E+02 -0.75636161686E+01  0.82180531220E+02  0.47000000000E+01 0.  1.
</event>
<event>
12    1  0.1566389E+000  0.7814004E+03  0.7818608E-02  0.9587336E-01
         21   -1    0    0  501  502  0.00000000000E+00  0.00000000000E+00  0.63971014097E+03  0.63971014097E+03  0.00000000000E+00 0. -1.
         21   -1    0    0  502  503 -0.00000000000E+00 -0.00000000000E+00 -0.97646665019E+03  0.97646665019E+03  0.00000000000E+00 0.  1.
         -6    2    1    2    0  503 -0.29701675724E+03  0.71094749608E+03 -0.15785016532E+03  0.80538343952E+03  0.17337968077E+03 0.  0.
        -24    2    3    3    0    0 -0.15217804632E+03  0.45454358115E+03 -0.15509277158E+03  0.51084836013E+03  0.84523690794E+02 0.  0.
          6    2    1    2  501    0  0.29701675724E+03 -0.71094749608E+03 -0.17890634390E+03  0.81079335164E+03  0.17808167484E+03 0.  0.
         24    2    5    5    0    0  0.18302114126E+03 -0.33505466776E+03 -0.14660947189E+03  0.41664160829E+03  0.79608567206E+02 0.  0.
         14    1    6    6    0    0  0.14719967477E+03 -0.31773999753E+03 -0.13014512790E+03  0.37358292868E+03  0.00000000000E+00 0. -1.
        -13    1    6    6    0    0  0.35821466494E+02 -0.17314670230E+02 -0.16464343989E+02  0.43058679612E+02  0.00000000000E+00 0.  1.
          5    1    5    5  501    0  0.11399561597E+03 -0.37589282832E+03 -0.32296872005E+02  0.39415174335E+03  0.47000000000E+01 0. -1.
         11    1    4    4    0    0 -0.89196626704E+02  0.15016236944E+03 -0.73479960159E+02  0.18948371950E+03  0.00000000000E+00 0. -1.
        -12    1    4    4    0    0 -0.62981419612E+02  0.30438121170E+03 -0.81612811422E+02  0.32136464062E+03  0.00000000000E+00 0.  1.
         -5    1    3    3    0  503 -0.14483871092E+03  0.25640391493E+03 -0.27573937410E+01  0.29453507940E+03  0.47000000000E+01 0.  1.
</event>
<event>
12    1  0.9749377E-001  0.2930925E+03  0.7818608E-02  0.1088746E+00
         21   -1    0    0  503  502  0.00000000000E+00  0.00000000000E+00  0.16530654846E+04  0.16530654846E+04  0.00000000000E+00 0.  1.
         21   -1    0    0  501  503 -0.00000000000E+00 -0.00000000000E+00 -0.71303606017E+02  0.71303606017E+02  0.00000000000E+00 0. -1.
          6    2    1    2  501    0 -0.25584447508E+03  0.55132268901E+02  0.11429500315E+04  0.11852003067E+04  0.17282658916E+03 0.  0.
         24    2    3    3    0    0 -0.64211596511E+02  0.61707502985E+02  0.49908541132E+03  0.51337433741E+03  0.80845639752E+02 0.  0.
         -6    2    1    2    0  502  0.25584447508E+03 -0.55132268901E+02  0.43881184711E+03  0.53916878398E+03  0.17219517399E+03 0.  0.
        -24    2    5    5    0    0  0.23002897255E+03 -0.15373682916E+02  0.42404752786E+03  0.48929634215E+03  0.80280297852E+02 0.  0.
         14    1    4    4    0    0 -0.62813467896E+02  0.22669194032E+02  0.41879292652E+03  0.42408364671E+03  0.00000000000E+00 0. -1.
        -13    1    4    4    0    0 -0.13981286144E+01  0.39038308953E+02  0.80292484805E+02  0.89290690700E+02  0.00000000000E+00 0.  1.
          5    1    3    3  501    0 -0.19163287857E+03 -0.65752340834E+01  0.64386462017E+03  0.67182596925E+03  0.47000000000E+01 0. -1.
         11    1    6    6    0    0 -0.49871573401E+01 -0.23839903092E+01  0.16888967138E+01  0.57799238956E+01  0.00000000000E+00 0. -1.
        -12    1    6    6    0    0  0.23501612989E+03 -0.12989692607E+02  0.42235863114E+03  0.48351641826E+03  0.00000000000E+00 0.  1.
         -5    1    5    5    0  502  0.25815502530E+02 -0.39758585985E+02  0.14764319257E+02  0.49872441825E+02  0.47000000000E+01 0.  1.
</event>
<event>
12    1  0.9749377E-001  0.3639788E+03  0.7818608E-02  0.1057019E+00
         21   -1    0    0  501  502  0.00000000000E+00  0.00000000000E+00  0.64313956583E+02  0.64313956583E+02  0.00000000000E+00 0.  1.
         21   -1    0    0  502  503 -0.00000000000E+00 -0.00000000000E+00 -0.24350539027E+04  0.24350539027E+04  0.00000000000E+00 0. -1.
         -6    2    1    2    0  503  0.32462339877E+03 -0.20076937551E+02 -0.16438201703E+04  0.16845995415E+04  0.17305325307E+03 0.  0.
        -24    2    3    3    0    0  0.82427604146E+02 -0.27162720388E+02 -0.65205188898E+03  0.66365124451E+03  0.87915784169E+02 0.  0.
          6    2    1    2  501    0 -0.32462339877E+03  0.20076937551E+02 -0.72691977585E+03  0.81476831784E+03  0.17219644824E+03 0.  0.
         24    2    5    5    0    0 -0.78024001576E+02  0.40239967437E+02 -0.27726286894E+03  0.30151279239E+03  0.79550397126E+02 0.  0.
         14    1    6    6    0    0 -0.39437255121E+01 -0.19551064732E+02 -0.80441875460E+02  0.82877574956E+02  0.00000000000E+00 0. -1.
        -13    1    6    6    0    0 -0.74080276063E+02  0.59791032169E+02 -0.19682099348E+03  0.21863521744E+03  0.00000000000E+00 0.  1.
          5    1    5    5  501    0 -0.24659939720E+03 -0.20163029887E+02 -0.44965690691E+03  0.51325552545E+03  0.47000000000E+01 0. -1.
         13    1    4    4    0    0  0.70866059786E+01  0.28475059164E+02 -0.13069064831E+03  0.13394437104E+03  0.00000000000E+00 0. -1.
        -14    1    4    4    0    0  0.75340998167E+02 -0.55637779552E+02 -0.52136124067E+03  0.52970687347E+03  0.00000000000E+00 0.  1.
         -5    1    3    3    0  503  0.24219579463E+03  0.70857828373E+01 -0.99176828132E+03  0.10209482970E+04  0.47000000000E+01 0.  1.
</event>
<event>
12    1  0.9749377E-001  0.4347235E+03  0.7818608E-02  0.1032378E+00
         21   -1    0    0  501  502  0.00000000000E+00  0.00000000000E+00  0.50662443942E+03  0.50662443942E+03  0.00000000000E+00 0.  1.
         21   -1    0    0  502  503 -0.00000000000E+00 -0.00000000000E+00 -0.39134492819E+03  0.39134492819E+03  0.00000000000E+00 0. -1.
         -6    2    1    2    0  503 -0.27117236705E+03  0.30698540168E+03  0.87948896028E+02  0.45276272136E+03  0.17171075693E+03 0.  0.
        -24    2    3    3    0    0 -0.11278595978E+03  0.20983979715E+03  0.10758701603E+02  0.25150681808E+03  0.79915684898E+02 0.  0.
          6    2    1    2  501    0  0.27117236705E+03 -0.30698540168E+03  0.27330615205E+02  0.44520664624E+03  0.17230062634E+03 0.  0.
         24    2    5    5    0    0  0.17424652886E+03 -0.11854517465E+03 -0.26161818610E+02  0.22660228273E+03  0.79052783208E+02 0.  0.
         14    1    6    6    0    0  0.17782095894E+03 -0.97567240169E+02 -0.29821176164E+02  0.20500966402E+03  0.00000000000E+00 0. -1.
        -13    1    6    6    0    0 -0.35744300743E+01 -0.20977934478E+02  0.36593575537E+01  0.21592618716E+02  0.00000000000E+00 0.  1.
          5    1    5    5  501    0  0.96925838188E+02 -0.18844022703E+03  0.53492433815E+02  0.21860436351E+03  0.47000000000E+01 0. -1.
         13    1    4    4    0    0 -0.73526576096E+02  0.18957347307E+03  0.25511662020E+02  0.20492706991E+03  0.00000000000E+00 0. -1.
        -14    1    4    4    0    0 -0.39259383680E+02  0.20266324078E+02 -0.14752960417E+02  0.46579748170E+02  0.00000000000E+00 0.  1.
         -5    1    3    3    0  503 -0.15838640728E+03  0.97145604530E+02  0.77190194425E+02  0.20125590328E+03  0.47000000000E+01 0.  1.
</event>
<event>
12    1  0.9749377E-001  0.5569884E+03  0.7818608E-02  0.9998892E-01
         21   -1    0    0  503  502  0.00000000000E+00  0.00000000000E+00  0.93234277465E+03  0.93234277465E+03  0.00000000000E+00 0. -1.
         21   -1    0    0  501  503 -0.00000000000E+00 -0.00000000000E+00 -0.35194265834E+03  0.35194265834E+03  0.00000000000E+00 0.  1.
          6    2    1    2  501    0  0.52696061602E+03  0.14100498015E+03  0.32618411528E+03  0.65833529551E+03  0.17157910416E+03 0.  0.
         24    2    3    3    0    0  0.13986731019E+03  0.39875517771E+02  0.55888317559E+02  0.17547889466E+03  0.80724327510E+02 0.  0.
         -6    2    1    2    0  502 -0.52696061602E+03 -0.14100498015E+03  0.25421600103E+03  0.62595013747E+03  0.17209853038E+03 0.  0.
        -24    2    5    5    0    0 -0.34771049839E+03 -0.37499083805E+02  0.11619891852E+03  0.37712312866E+03  0.80068055612E+02 0.  0.
         12    1    4    4    0    0  0.24980914236E+02 -0.48200760010E+01 -0.18538222003E+02  0.31479277053E+02  0.00000000000E+00 0. -1.
        -11    1    4    4    0    0  0.11488639596E+03  0.44695593772E+02  0.74426539563E+02  0.14399961760E+03  0.00000000000E+00 0.  1.
          5    1    3    3  501    0  0.38709330583E+03  0.10112946238E+03  0.27029579772E+03  0.48285640085E+03  0.47000000000E+01 0. -1.
         13    1    6    6    0    0 -0.14558370013E+03 -0.54071985344E+02  0.61830933309E+02  0.16715698507E+03  0.00000000000E+00 0. -1.
        -14    1    6    6    0    0 -0.20212679826E+03  0.16572901539E+02  0.54367985208E+02  0.20996614360E+03  0.00000000000E+00 0.  1.
         -5    1    5    5    0  502 -0.17925011763E+03 -0.10350589635E+03  0.13801708251E+03  0.24882700881E+03  0.47000000000E+01 0.  1.
</event>
<event>
12    1  0.9749377E-001  0.7314351E+03  0.7818608E-02  0.9664934E-01
         21   -1    0    0  503  502  0.00000000000E+00  0.00000000000E+00  0.66518439961E+03  0.66518439961E+03  0.00000000000E+00 0.  1.
         21   -1    0    0  501  503 -0.00000000000E+00 -0.00000000000E+00 -0.12672424608E+04  0.12672424608E+04  0.00000000000E+00 0. -1.
          6    2    1    2  501    0  0.61996313628E+03 -0.36515549333E+03 -0.87336911037E+03  0.11444520226E+04  0.17118412411E+03 0.  0.
         24    2    3    3    0    0  0.61830660231E+03 -0.34733188101E+03 -0.81397814776E+03  0.10822442923E+04  0.75827390945E+02 0.  0.
         -6    2    1    2    0  502 -0.61996313628E+03  0.36515549333E+03  0.27131104917E+03  0.78797483786E+03  0.17205183826E+03 0.  0.
        -24    2    5    5    0    0 -0.26282900755E+03  0.13779350761E+03  0.17353267687E+03  0.35343950150E+03  0.82096000717E+02 0.  0.
         14    1    4    4    0    0  0.18923719608E+03 -0.14723007893E+03 -0.27799641487E+03  0.36710954660E+03  0.00000000000E+00 0. -1.
        -13    1    4    4    0    0  0.42906940623E+03 -0.20010180207E+03 -0.53598173289E+03  0.71513474573E+03  0.00000000000E+00 0.  1.
          5    1    3    3  501    0  0.16565339629E+01 -0.17823612321E+02 -0.59390962616E+02  0.62207730239E+02  0.47000000000E+01 0. -1.
         11    1    6    6    0    0  0.18385175606E+00 -0.73598486956E+01  0.26175081372E+01  0.78136114019E+01  0.00000000000E+00 0. -1.
        -12    1    6    6    0    0 -0.26301285930E+03  0.14515335630E+03  0.17091516873E+03  0.34562589010E+03  0.00000000000E+00 0.  1.
         -5    1    5    5    0  502 -0.35713412873E+03  0.22736198572E+03  0.97778372305E+02  0.43453533636E+03  0.47000000000E+01 0.  1.
</event>
<event>
12    1  0.9749377E-001  0.2866999E+03  0.7818608E-02  0.1092085E+00
         21   -1    0    0  503  502  0.00000000000E+00  0.00000000000E+00  0.13145239635E+03  0.13145239635E+03  0.00000000000E+00 0. -1.
         21   -1    0    0  501  503 -0.00000000000E+00 -0.00000000000E+00 -0.19476132645E+04  0.19476132645E+04  0.00000000000E+00 0.  1.
          6    2    1    2  501    0  0.19124559905E+03 -0.15459366113E+03 -0.71116216594E+02  0.30847725630E+03  0.17212385708E+03 0.  0.
         24    2    3    3    0    0  0.70320469715E+02 -0.10708754283E+02 -0.56876642789E+02  0.11992856555E+03  0.78027318677E+02 0.  0.
         -6    2    1    2    0  502 -0.19124559905E+03  0.15459366113E+03 -0.17450446516E+04  0.17705884046E+04  0.17125531570E+03 0.  0.
        -24    2    5    5    0    0 -0.10052057869E+03  0.46089989328E+02 -0.56503086851E+03  0.58211934971E+03  0.85874216621E+02 0.  0.
         12    1    4    4    0    0  0.60395373539E+02  0.26190180623E+02 -0.45629163989E+02  0.80097111761E+02  0.00000000000E+00 0. -1.
        -11    1    4    4    0    0  0.99250961754E+01 -0.36898934907E+02 -0.11247478800E+02  0.39831453786E+02  0.00000000000E+00 0.  1.
          5    1    3    3  501    0  0.12092512933E+03 -0.14388490685E+03 -0.14239573805E+02  0.18854869075E+03  0.47000000000E+01 0. -1.
         13    1    6    6    0    0  0.73018145506E+01 -0.14442663199E+02 -0.56606655888E+02  0.58874616830E+02  0.00000000000E+00 0. -1.
        -14    1    6    6    0    0 -0.10782239324E+03  0.60532652527E+02 -0.50842421262E+03  0.52324473288E+03  0.00000000000E+00 0.  1.
         -5    1    5    5    0  502 -0.90725020359E+02  0.10850367180E+03 -0.11800137831E+04  0.11884690549E+04  0.47000000000E+01 0.  1.
</event>
<event>
12    1  0.9749377E-001  0.1047767E+04  0.7818608E-02  0.9257652E-01
         21   -1    0    0  503  502  0.00000000000E+00  0.00000000000E+00  0.54315034867E+03  0.54315034867E+03  0.00000000000E+00 0.  1.
         21   -1    0    0  501  503 -0.00000000000E+00 -0.00000000000E+00 -0.23329989685E+04  0.23329989685E+04  0.00000000000E+00 0. -1.
          6    2    1    2  501    0  0.69203343894E+03 -0.77766065391E+03 -0.13963385962E+04  0.17501867468E+04  0.17241171694E+03 0.  0.
         24    2    3    3    0    0  0.55196285916E+03 -0.69825303288E+03 -0.11630893447E+04  0.14667213328E+04  0.79210785463E+02 0.  0.
         -6    2    1    2    0  502 -0.69203343894E+03  0.77766065391E+03 -0.39351002359E+03  0.11259625703E+04  0.17109996461E+03 0.  0.
        -24    2    5    5    0    0 -0.30839228876E+03  0.34419129415E+03 -0.11038462985E+03  0.48155718818E+03  0.78352461708E+02 0.  0.
         12    1    4    4    0    0  0.49496313645E+03 -0.63401385527E+03 -0.10851592357E+04  0.13507526206E+04  0.00000000000E+00 0. -1.
        -11    1    4    4    0    0  0.56999722712E+02 -0.64239177609E+02 -0.77930108912E+02  0.11596871218E+03  0.00000000000E+00 0.  1.
          5    1    3    3  501    0  0.14007057978E+03 -0.79407621037E+02 -0.23324925155E+03  0.28346541403E+03  0.47000000000E+01 0. -1.
         13    1    6    6    0    0  0.20193086942E+01  0.58658276062E+01  0.51849328371E+01  0.80851140767E+01  0.00000000000E+00 0. -1.
        -14    1    6    6    0    0 -0.31041159745E+03  0.33832546654E+03 -0.11556956269E+03  0.47347207411E+03  0.00000000000E+00 0.  1.
         -5    1    5    5    0  502 -0.38364115019E+03  0.43346935977E+03 -0.28312539374E+03  0.64440538216E+03  0.47000000000E+01 0.  1.
</event>
<event>
12    1  0.9749377E-001  0.4537952E+03  0.7818608E-02  0.1026596E+00
         21   -1    0    0  503  502  0.00000000000E+00  0.00000000000E+00  0.99587096611E+03  0.99587096611E+03  0.00000000000E+00 0.  1.
         21   -1    0    0  501  503 -0.00000000000E+00 -0.00000000000E+00 -0.34489398127E+03  0.34489398127E+03  0.00000000000E+00 0. -1.
          6    2    1    2  501    0  0.33067788689E+03 -0.28693292709E+03 -0.74373504590E+02  0.47611287739E+03  0.17167901535E+03 0.  0.
         24    2    3    3    0    0  0.30679150916E+03 -0.28228825897E+03 -0.30447815816E+02  0.42567788838E+03  0.80417062367E+02 0.  0.
         -6    2    1    2    0  502 -0.33067788689E+03  0.28693292709E+03  0.72535048943E+03  0.86465206998E+03  0.17266007091E+03 0.  0.
        -24    2    5    5    0    0 -0.22369182891E+03  0.11129793122E+03  0.45416221483E+03  0.52427163773E+03  0.78563152572E+02 0.  0.
         14    1    4    4    0    0  0.18241572887E+03 -0.14608762336E+03 -0.53642180892E+02  0.23978026485E+03  0.00000000000E+00 0. -1.
        -13    1    4    4    0    0  0.12437578029E+03 -0.13620063561E+03  0.23194365075E+02  0.18589762353E+03  0.00000000000E+00 0.  1.
          5    1    3    3  501    0  0.23886377723E+02 -0.46446681177E+01 -0.43925688774E+02  0.50434989015E+02  0.47000000000E+01 0. -1.
         13    1    6    6    0    0 -0.20281146185E+03  0.73406511899E+02  0.34530350936E+03  0.40713083723E+03  0.00000000000E+00 0. -1.
        -14    1    6    6    0    0 -0.20880367053E+02  0.37891419322E+02  0.10885870547E+03  0.11714080050E+03  0.00000000000E+00 0.  1.
         -5    1    5    5    0  502 -0.10698605798E+03  0.17563499587E+03  0.27118827460E+03  0.34038043225E+03  0.47000000000E+01 0.  1.
</event>
<event>
12    1  0.9749377E-001  0.6949839E+03  0.7818608E-02  0.9725849E-01
         21   -1    0    0  503  502  0.00000000000E+00  0.00000000000E+00  0.10606541816E+04  0.10606541816E+04  0.00000000000E+00 0.  1.
         21   -1    0    0  501  503 -0.00000000000E+00 -0.00000000000E+00 -0.51395406648E+03  0.51395406648E+03  0.00000000000E+00 0. -1.
          6    2    1    2  501    0 -0.10701310786E+02 -0.68921235415E+03  0.59991807717E+02  0.71364077089E+03  0.17480259073E+03 0.  0.
         24    2    3    3    0    0 -0.31082161442E+01 -0.14105516840E+03  0.10819343820E+02  0.16321005175E+03  0.81327985656E+02 0.  0.
         -6    2    1    2    0  502  0.10701310786E+02  0.68921235415E+03  0.48670830740E+03  0.86096747719E+03  0.17103167288E+03 0.  0.
        -24    2    5    5    0    0 -0.79549506248E+01  0.19557269233E+03  0.19967027706E+03  0.28961724076E+03  0.75484881798E+02 0.  0.
         12    1    4    4    0    0  0.16522794907E+01 -0.55830346831E+02  0.44533738501E+02  0.71435366029E+02  0.00000000000E+00 0. -1.
        -11    1    4    4    0    0 -0.47604956348E+01 -0.85224821572E+02 -0.33714394681E+02  0.91774685722E+02  0.00000000000E+00 0.  1.
          5    1    3    3  501    0 -0.75930946414E+01 -0.54815718574E+03  0.49172463897E+02  0.55043071914E+03  0.47000000000E+01 0. -1.
         13    1    6    6    0    0 -0.45407953498E+01 -0.45095602050E+01  0.18871643810E+02  0.19927214952E+02  0.00000000000E+00 0. -1.
        -14    1    6    6    0    0 -0.34141552750E+01  0.20008225254E+03  0.18079863325E+03  0.26969002581E+03  0.00000000000E+00 0.  1.
         -5    1    5    5    0  502  0.18656261410E+02  0.49363966181E+03  0.28703803034E+03  0.57135023643E+03  0.47000000000E+01 0.  1.
</event>
<event>
12    1  0.9749377E-001  0.2840430E+03  0.7818608E-02  0.1093501E+00
         21   -1    0    0  503  502  0.00000000000E+00  0.00000000000E+00  0.22249524478E+03  0.22249524478E+03  0.00000000000E+00 0.  1.
         21   -1    0    0  501  503 -0.00000000000E+00 -0.00000000000E+00 -0.40906676603E+03  0.40906676603E+03  0.00000000000E+00 0. -1.
          6    2    1    2  501    0 -0.23222090216E+03  0.80523091374E+02 -0.13066130974E+03  0.32689638542E+03  0.17140114729E+03 0.  0.
         24    2    3    3    0    0 -0.75401180792E+02  0.66584603438E+02 -0.10449404885E+02  0.12875578250E+03  0.79686975001E+02 0.  0.
         -6    2    1    2    0  502  0.23222090216E+03 -0.80523091374E+02 -0.55910211507E+02  0.30466562539E+03  0.17112765965E+03 0.  0.
        -24    2    5    5    0    0  0.11218634013E+03 -0.10887485570E+03 -0.36549379698E+02  0.17972943996E+03  0.80791740390E+02 0.  0.
         14    1    4    4    0    0 -0.66428042766E+02  0.28512867429E+02 -0.37267912783E+02  0.81329980929E+02  0.00000000000E+00 0. -1.
        -13    1    4    4    0    0 -0.89731380256E+01  0.38071736008E+02  0.26818507898E+02  0.47425801570E+02  0.00000000000E+00 0.  1.
          5    1    3    3  501    0 -0.15681972137E+03  0.13938487936E+02 -0.12021190486E+03  0.19814060292E+03  0.47000000000E+01 0. -1.
         11    1    6    6    0    0 -0.15053878950E+01 -0.45617707280E+02 -0.55160136202E+01  0.45974643190E+02  0.00000000000E+00 0. -1.
        -12    1    6    6    0    0  0.11369172803E+03 -0.63257148415E+02 -0.31033366078E+02  0.13375479676E+03  0.00000000000E+00 0.  1.
         -5    1    5    5    0  502  0.12003456203E+03  0.28351764322E+02 -0.19360831809E+02  0.12493618543E+03  0.47000000000E+01 0.  1.
</event>
<event>
12    1  0.9749377E-001  0.2913344E+03  0.7818608E-02  0.1089654E+00
         21   -1    0    0  503  502  0.00000000000E+00  0.00000000000E+00  0.18768813958E+04  0.18768813958E+04  0.00000000000E+00 0. -1.
         21   -1    0    0  501  503 -0.00000000000E+00 -0.00000000000E+00 -0.68552013505E+02  0.68552013505E+02  0.00000000000E+00 0.  1.
          6    2    1    2  501    0  0.21763258208E+03 -0.15055685203E+03  0.13702743963E+04  0.14059492256E+04  0.17032321416E+03 0.  0.
         24    2    3    3    0    0  0.11517456615E+03 -0.10910718365E+03  0.55598771508E+03  0.58418246472E+03  0.83529962048E+02 0.  0.
         -6    2    1    2    0  502 -0.21763258208E+03  0.15055685203E+03  0.43805498606E+03  0.53948418379E+03  0.17064497436E+03 0.  0.
        -24    2    5    5    0    0 -0.79401548743E+02  0.77085673216E+02  0.11734774347E+03  0.18257935314E+03  0.85544844015E+02 0.  0.
         14    1    4    4    0    0  0.12168099257E+03 -0.78759333442E+02  0.49449998624E+03  0.51530528131E+03  0.00000000000E+00 0. -1.
        -13    1    4    4    0    0 -0.65064264169E+01 -0.30347850207E+02  0.61487728836E+02  0.68877183409E+02  0.00000000000E+00 0.  1.
          5    1    3    3  501    0  0.10245801592E+03 -0.41449668377E+02  0.81428668120E+03  0.82176676084E+03  0.47000000000E+01 0. -1.
         11    1    6    6    0    0 -0.97783265378E+02  0.63560386556E+02  0.10318984323E+03  0.15572293817E+03  0.00000000000E+00 0. -1.
        -12    1    6    6    0    0  0.18381716635E+02  0.13525286660E+02  0.14157900240E+02  0.26856414968E+02  0.00000000000E+00 0.  1.
         -5    1    5    5    0  502 -0.13823103333E+03  0.73471178810E+02  0.32070724259E+03  0.35690483065E+03  0.47000000000E+01 0.  1.
</event>
<event>
12    1  0.9749377E-001  0.2582925E+03  0.7818608E-02  0.1108174E+00
         21   -1    0    0  501  502  0.00000000000E+00  0.00000000000E+00  0.13803770804E+04  0.13803770804E+04  0.00000000000E+00 0. -1.
         21   -1    0    0  502  503 -0.00000000000E+00 -0.00000000000E+00 -0.24995495351E+03  0.24995495351E+03  0.00000000000E+00 0.  1.
         -6    2    1    2    0  503  0.73392232525E+02  0.19110310933E+03  0.12912277485E+04  0.13183648057E+04  0.17002895156E+03 0.  0.
        -24    2    3    3    0    0  0.40445672401E+02  0.20417430254E+02  0.41567382128E+03  0.42570818289E+03  0.79937521931E+02 0.  0.
          6    2    1    2  501    0 -0.73392232525E+02 -0.19110310933E+03 -0.16080562159E+03  0.31196722818E+03  0.17192523181E+03 0.  0.
         24    2    5    5    0    0 -0.50267909333E+01 -0.14353396245E+03 -0.15138631597E+03  0.22801801343E+03  0.91908273733E+02 0.  0.
         14    1    6    6    0    0 -0.43290681257E+02 -0.10476406215E+03 -0.12032996549E+03  0.16531452567E+03  0.00000000000E+00 0. -1.
        -13    1    6    6    0    0  0.38263890323E+02 -0.38769900301E+02 -0.31056350475E+02  0.62703487756E+02  0.00000000000E+00 0.  1.
          5    1    5    5  501    0 -0.68365441592E+02 -0.47569146877E+02 -0.94193056198E+01  0.83949214750E+02  0.47000000000E+01 0. -1.
         13    1    4    4    0    0 -0.22234817984E+02 -0.65832540015E+01  0.12468015173E+03  0.12681824237E+03  0.00000000000E+00 0. -1.
        -14    1    4    4    0    0  0.62680490386E+02  0.27000684256E+02  0.29099366955E+03  0.29888994052E+03  0.00000000000E+00 0.  1.
         -5    1    3    3    0  503  0.32946560124E+02  0.17068567908E+03  0.87555392721E+03  0.89265662285E+03  0.47000000000E+01 0.  1.
</event>
<event>
12    1  0.9902231E-001  0.6465570E+03  0.7818608E-02  0.9813261E-01
         21   -1    0    0  501  502  0.00000000000E+00  0.00000000000E+00  0.35796490881E+03  0.35796490881E+03  0.00000000000E+00 0.  1.
         21   -1    0    0  502  503 -0.00000000000E+00 -0.00000000000E+00 -0.20105033816E+04  0.20105033816E+04  0.00000000000E+00 0. -1.
         -6    2    1    2    0  503 -0.18831867548E+03  0.61211218242E+03 -0.87845162927E+02  0.66907683784E+03  0.17263196367E+03 0.  0.
        -24    2    3    3    0    0 -0.88828723257E+02  0.38283459472E+03 -0.11640367726E+03  0.41747369486E+03  0.79256550730E+02 0.  0.
          6    2    1    2  501    0  0.18831867548E+03 -0.61211218242E+03 -0.15646933099E+04  0.16993914526E+04  0.17181649445E+03 0.  0.
         24    2    5    5    0    0  0.14565759943E+03 -0.48877618116E+03 -0.13783359658E+04  0.14718329188E+04  0.79773521076E+02 0.  0.
         14    1    6    6    0    0  0.15410762690E+03 -0.47908655109E+03 -0.13482711328E+04  0.14391345079E+04  0.00000000000E+00 0. -1.
        -13    1    6    6    0    0 -0.84500274752E+01 -0.96896300672E+01 -0.30064832936E+02  0.32698410889E+02  0.00000000000E+00 0.  1.
          5    1    5    5  501    0  0.42661076048E+02 -0.12333600126E+03 -0.18635734408E+03  0.22755853381E+03  0.47000000000E+01 0. -1.
         13    1    4    4    0    0  0.62536016769E+01  0.46247322748E+02 -0.35084569529E+02  0.58385352738E+02  0.00000000000E+00 0. -1.
        -14    1    4    4    0    0 -0.95082324934E+02  0.33658727197E+03 -0.81319107729E+02  0.35908834212E+03  0.00000000000E+00 0.  1.
         -5    1    3    3    0  503 -0.99489952220E+02  0.22927758770E+03  0.28558514331E+02  0.25160314298E+03  0.47000000000E+01 0.  1.
</event>
<event>
12    1  0.9749377E-001  0.1804239E+03  0.7818608E-02  0.1167393E+00
         21   -1    0    0  503  502  0.00000000000E+00  0.00000000000E+00  0.55662945103E+02  0.55662945103E+02  0.00000000000E+00 0. -1.
         21   -1    0    0  501  503 -0.00000000000E+00 -0.00000000000E+00 -0.72956196189E+03  0.72956196189E+03  0.00000000000E+00 0. -1.
          6    2    1    2  501    0 -0.66165345888E+02  0.77585866067E+02 -0.28163649114E+03  0.34493562038E+03  0.17106738280E+03 0.  0.
         24    2    3    3    0    0 -0.59221622512E+02  0.12570259573E+02 -0.61403570159E+02  0.11515338899E+03  0.76319673532E+02 0.  0.
         -6    2    1    2    0  502  0.66165345888E+02 -0.77585866067E+02 -0.39226252565E+03  0.44028928661E+03  0.17200973015E+03 0.  0.
        -24    2    5    5    0    0  0.35542714835E+02  0.25125319625E+02 -0.20994262483E+03  0.22874740084E+03  0.79717635497E+02 0.  0.
         12    1    4    4    0    0 -0.22808286920E+01 -0.27561461099E+02 -0.15142485990E+02  0.31529846168E+02  0.00000000000E+00 0. -1.
        -11    1    4    4    0    0 -0.56940793820E+02  0.40131720672E+02 -0.46261084169E+02  0.83623542818E+02  0.00000000000E+00 0.  1.
          5    1    3    3  501    0 -0.69437233758E+01  0.65015606493E+02 -0.22023292098E+03  0.22978223140E+03  0.47000000000E+01 0. -1.
         11    1    6    6    0    0 -0.24354502533E+02  0.18187598154E+02 -0.64628163133E+02  0.71419395056E+02  0.00000000000E+00 0. -1.
        -12    1    6    6    0    0  0.59897217368E+02  0.69377214714E+01 -0.14531446170E+03  0.15732800579E+03  0.00000000000E+00 0.  1.
         -5    1    5    5    0  502  0.30622631052E+02 -0.10271118569E+03 -0.18231990082E+03  0.21154188577E+03  0.47000000000E+01 0.  1.
</event>
<event>
12    1  0.9749377E-001  0.3540442E+03  0.7818608E-02  0.1060967E+00
         21   -1    0    0  503  502  0.00000000000E+00  0.00000000000E+00  0.39128446344E+03  0.39128446344E+03  0.00000000000E+00 0. -1.
         21   -1    0    0  501  503 -0.00000000000E+00 -0.00000000000E+00 -0.47683294436E+03  0.47683294436E+03  0.00000000000E+00 0.  1.
          6    2    1    2  501    0  0.32440481139E+03 -0.88633651329E+02  0.16447802338E+03  0.41631109301E+03  0.18211946679E+03 0.  0.
         24    2    3    3    0    0  0.19074896700E+03 -0.65579022442E+02  0.20006331831E+02  0.21809514937E+03  0.80495119530E+02 0.  0.
         -6    2    1    2    0  502 -0.32440481139E+03  0.88633651329E+02 -0.25002650430E+03  0.45180631479E+03  0.16888246632E+03 0.  0.
        -24    2    5    5    0    0 -0.74181359110E+02 -0.14212525371E+02 -0.51239507144E+02  0.11605719361E+03  0.71686227268E+02 0.  0.
         14    1    4    4    0    0  0.18225762240E+03 -0.75934213429E+02  0.32118541340E+02  0.20003861225E+03  0.00000000000E+00 0. -1.
        -13    1    4    4    0    0  0.84913445953E+01  0.10355190987E+02 -0.12112209509E+02  0.18056537116E+02  0.00000000000E+00 0.  1.
          5    1    3    3  501    0  0.13365584439E+03 -0.23054628887E+02  0.14447169155E+03  0.19821594364E+03  0.47000000000E+01 0. -1.
         11    1    6    6    0    0 -0.12223800567E+02  0.17514504537E+02 -0.40278511867E+02  0.45590982526E+02  0.00000000000E+00 0. -1.
        -12    1    6    6    0    0 -0.61957558544E+02 -0.31727029908E+02 -0.10960995277E+02  0.70466211087E+02  0.00000000000E+00 0.  1.
         -5    1    5    5    0  502 -0.25022345228E+03  0.10284617670E+03 -0.19878699716E+03  0.33574912118E+03  0.47000000000E+01 0.  1.
</event>
<event>
12    1  0.9749377E-001  0.2024256E+03  0.7818608E-02  0.1147709E+00
         21   -1    0    0  501  502  0.00000000000E+00  0.00000000000E+00  0.37250640716E+03  0.37250640716E+03  0.00000000000E+00 0.  1.
         21   -1    0    0  502  503 -0.00000000000E+00 -0.00000000000E+00 -0.30369031694E+03  0.30369031694E+03  0.00000000000E+00 0. -1.
         -6    2    1    2    0  503 -0.91491101788E+02 -0.13361014817E+03  0.27417671745E+03  0.36251032759E+03  0.17325868468E+03 0.  0.
        -24    2    3    3    0    0 -0.76102962546E+02 -0.11887401499E+03  0.10654696948E+03  0.19346663249E+03  0.78449912881E+02 0.  0.
          6    2    1    2  501    0  0.91491101788E+02  0.13361014817E+03 -0.20536062724E+03  0.31368639651E+03  0.17321626579E+03 0.  0.
         24    2    5    5    0    0  0.17895624465E+02 -0.34854303488E+01 -0.65827735616E+02  0.10463374817E+03  0.79262405213E+02 0.  0.
         12    1    6    6    0    0 -0.14713780988E+02  0.22650661828E+02 -0.55290117044E+02  0.61534907775E+02  0.00000000000E+00 0. -1.
        -11    1    6    6    0    0  0.32609405453E+02 -0.26136092177E+02 -0.10537618572E+02  0.43098840395E+02  0.00000000000E+00 0.  1.
          5    1    5    5  501    0  0.73595477322E+02  0.13709557852E+03 -0.13953289162E+03  0.20905264834E+03  0.47000000000E+01 0. -1.
         13    1    4    4    0    0  0.98134904017E+01 -0.42459368678E+02  0.13709557570E+02  0.45684292171E+02  0.00000000000E+00 0. -1.
        -14    1    4    4    0    0 -0.85916452948E+02 -0.76414646313E+02  0.92837411912E+02  0.14778234031E+03  0.00000000000E+00 0.  1.
         -5    1    3    3    0  503 -0.15388139241E+02 -0.14736133184E+02  0.16762974797E+03  0.16904369511E+03  0.47000000000E+01 0.  1.
</event>
<event>
12    1  0.9749377E-001  0.5553202E+03  0.7818608E-02  0.1000270E+00
         21   -1    0    0  501  502  0.00000000000E+00  0.00000000000E+00  0.58530471772E+03  0.58530471772E+03  0.00000000000E+00 0. -1.
         21   -1    0    0  502  503 -0.00000000000E+00 -0.00000000000E+00 -0.12547139481E+04  0.12547139481E+04  0.00000000000E+00 0.  1.
         -6    2    1    2    0  503 -0.46898669371E+03  0.25081470509E+03  0.36264717265E+03  0.66633518626E+03  0.17214259628E+03 0.  0.
        -24    2    3    3    0    0 -0.36364969548E+03  0.25573492921E+03  0.31358453795E+03  0.54993362302E+03  0.80313586905E+02 0.  0.
          6    2    1    2  501    0  0.46898669371E+03 -0.25081470509E+03 -0.10320564030E+04  0.11736834795E+04  0.17186028043E+03 0.  0.
         24    2    5    5    0    0  0.35078293307E+03 -0.25248321662E+03 -0.84204670918E+03  0.94985165269E+03  0.79869023252E+02 0.  0.
         14    1    6    6    0    0  0.18395490140E+02 -0.33461641165E+02 -0.11206655882E+03  0.11839336592E+03  0.00000000000E+00 0. -1.
        -13    1    6    6    0    0  0.33238744293E+03 -0.21902157546E+03 -0.72998015036E+03  0.83145828678E+03  0.00000000000E+00 0.  1.
          5    1    5    5  501    0  0.11820376064E+03  0.16685115353E+01 -0.19000969381E+03  0.22383182683E+03  0.47000000000E+01 0. -1.
         11    1    4    4    0    0 -0.21006451768E+03  0.10311095276E+03  0.18314701324E+03  0.29715618558E+03  0.00000000000E+00 0. -1.
        -12    1    4    4    0    0 -0.15358517780E+03  0.15262397645E+03  0.13043752471E+03  0.25277743744E+03  0.00000000000E+00 0.  1.
         -5    1    3    3    0  503 -0.10533699823E+03 -0.49202241254E+01  0.49062634696E+02  0.11640156324E+03  0.47000000000E+01 0.  1.
</event>
<event>
12    1  0.9749377E-001  0.5222247E+03  0.7818608E-02  0.1008135E+00
         21   -1    0    0  501  502  0.00000000000E+00  0.00000000000E+00  0.30311704792E+03  0.30311704792E+03  0.00000000000E+00 0. -1.
         21   -1    0    0  502  503 -0.00000000000E+00 -0.00000000000E+00 -0.19880597381E+04  0.19880597381E+04  0.00000000000E+00 0.  1.
         -6    2    1    2    0  503  0.12710606692E+03  0.47950195390E+03 -0.16855096380E+04  0.17653714385E+04  0.17180075638E+03 0.  0.
        -24    2    3    3    0    0  0.13073919612E+02  0.25312890446E+03 -0.73350616653E+03  0.78019085205E+03  0.80133012225E+02 0.  0.
          6    2    1    2  501    0 -0.12710606692E+03 -0.47950195390E+03  0.56694785274E+00  0.52580534753E+03  0.17433549844E+03 0.  0.
         24    2    5    5    0    0 -0.91650477817E+02 -0.47436946242E+03  0.52900329582E-01  0.48966955485E+03  0.79687346511E+02 0.  0.
         14    1    6    6    0    0 -0.98047665608E+02 -0.47226802657E+03 -0.28251208159E+01  0.48234677874E+03  0.00000000000E+00 0. -1.
        -13    1    6    6    0    0  0.63971877915E+01 -0.21014358411E+01  0.28780211455E+01  0.73227761093E+01  0.00000000000E+00 0.  1.
          5    1    5    5  501    0 -0.35455589106E+02 -0.51324914887E+01  0.51404752315E+00  0.36135792680E+02  0.47000000000E+01 0. -1.
         13    1    4    4    0    0 -0.13638307399E+02  0.27287549559E+01 -0.33821567390E+02  0.36569768294E+02  0.00000000000E+00 0. -1.
        -14    1    4    4    0    0  0.26712227011E+02  0.25040014950E+03 -0.69968459913E+03  0.74362108376E+03  0.00000000000E+00 0.  1.
         -5    1    3    3    0  503  0.11403214731E+03  0.22637304945E+03 -0.95200347148E+03  0.98518058641E+03  0.47000000000E+01 0.  1.
</event>
<event>
12    1  0.9749377E-001  0.7640030E+03  0.7818608E-02  0.9613634E-01
         21   -1    0    0  503  502  0.00000000000E+00  0.00000000000E+00  0.39916217717E+03  0.39916217717E+03  0.00000000000E+00 0.  1.
         21   -1    0    0  501  503 -0.00000000000E+00 -0.00000000000E+00 -0.14971590500E+04  0.14971590500E+04  0.00000000000E+00 0. -1.
          6    2    1    2  501    0  0.82512985504E+02  0.74893867205E+03 -0.53087085923E+03  0.93759632856E+03  0.17188798351E+03 0.  0.
         24    2    3    3    0    0  0.10886251055E+03  0.38889539488E+03 -0.28295354254E+03  0.49963452107E+03  0.80506354056E+02 0.  0.
         -6    2    1    2    0  502 -0.82512985504E+02 -0.74893867205E+03 -0.56712601362E+03  0.95872489863E+03  0.17263831748E+03 0.  0.
        -24    2    5    5    0    0 -0.89748541706E+02 -0.74873853221E+03 -0.57125457190E+03  0.94915785505E+03  0.76841769495E+02 0.  0.
         12    1    4    4    0    0  0.41332482816E+02  0.18017039771E+03 -0.17732394973E+03  0.25615138004E+03  0.00000000000E+00 0. -1.
        -11    1    4    4    0    0  0.67530027736E+02  0.20872499717E+03 -0.10562959282E+03  0.24348314103E+03  0.00000000000E+00 0.  1.
          5    1    3    3  501    0 -0.26349525049E+02  0.36004327717E+03 -0.24791731669E+03  0.43796180749E+03  0.47000000000E+01 0. -1.
         13    1    6    6    0    0 -0.29760804271E+02 -0.23133413563E+03 -0.13336063353E+03  0.26867498275E+03  0.00000000000E+00 0. -1.
        -14    1    6    6    0    0 -0.59987737435E+02 -0.51740439658E+03 -0.43789393836E+03  0.68048287231E+03  0.00000000000E+00 0.  1.
         -5    1    5    5    0  502  0.72355562026E+01 -0.20013984014E+00  0.41285582712E+01  0.95670435829E+01  0.47000000000E+01 0.  1.
</event>
<event>
12    1  0.9749377E-001  0.1955230E+03  0.7818608E-02  0.1153572E+00
         21   -1    0    0  501  502  0.00000000000E+00  0.00000000000E+00  0.83386226189E+02  0.83386226189E+02  0.00000000000E+00 0. -1.
         21   -1    0    0  502  503 -0.00000000000E+00 -0.00000000000E+00 -0.78312589709E+03  0.78312589709E+03  0.00000000000E+00 0.  1.
         -6    2    1    2    0  503 -0.84970556670E+02  0.10324546152E+03 -0.12378992095E+03  0.25080535298E+03  0.17233618230E+03 0.  0.
        -24    2    3    3    0    0 -0.23313003442E+02  0.10277099553E+03 -0.26574892266E+02  0.13558933504E+03  0.81073233727E+02 0.  0.
          6    2    1    2  501    0  0.84970556670E+02 -0.10324546152E+03 -0.57594974994E+03  0.61570677029E+03  0.17174717377E+03 0.  0.
         24    2    5    5    0    0  0.60751622880E+02  0.11419018301E+02 -0.31187468499E+03  0.32675655033E+03  0.75384815336E+02 0.  0.
         12    1    6    6    0    0  0.74634447405E+02  0.18553068092E+02 -0.20892048481E+03  0.22262588809E+03  0.00000000000E+00 0. -1.
        -11    1    6    6    0    0 -0.13882824525E+02 -0.71340497913E+01 -0.10295420018E+03  0.10413066224E+03  0.00000000000E+00 0.  1.
          5    1    5    5  501    0  0.24218933791E+02 -0.11466447982E+03 -0.26407506495E+03  0.28895021996E+03  0.47000000000E+01 0. -1.
         13    1    4    4    0    0  0.15773032273E+02  0.57360674505E+02 -0.43070995465E+02  0.73444851263E+02  0.00000000000E+00 0. -1.
        -14    1    4    4    0    0 -0.39086035715E+02  0.45410321022E+02  0.16496103199E+02  0.62144483778E+02  0.00000000000E+00 0.  1.
         -5    1    3    3    0  503 -0.61657553228E+02  0.47446599309E+00 -0.97215028688E+02  0.11521601794E+03  0.47000000000E+01 0.  1.
</event>
<event>
12    1  0.9749377E-001  0.2812161E+03  0.7818608E-02  0.1095027E+00
         21   -1    0    0  501  502  0.00000000000E+00  0.00000000000E+00  0.84992813310E+03  0.84992813310E+03  0.00000000000E+00 0.  1.
         21   -1    0    0  502  503 -0.00000000000E+00 -0.00000000000E+00 -0.44350384769E+03  0.44350384769E+03  0.00000000000E+00 0. -1.
         -6    2    1    2    0  503 -0.24895854451E+03 -0.46984303177E+02  0.76398177691E+03  0.82286394464E+03  0.17102349051E+03 0.  0.
        -24    2    3    3    0    0 -0.23661758136E+03 -0.13621761237E+02  0.53036182484E+03  0.58650461950E+03  0.80811949966E+02 0.  0.
          6    2    1    2  501    0  0.24895854451E+03  0.46984303177E+02 -0.35755749150E+03  0.47056803615E+03  0.17146146881E+03 0.  0.
         24    2    5    5    0    0  0.10903965923E+03  0.77477129984E+02 -0.23673238279E+03  0.28314364115E+03  0.78966749388E+02 0.  0.
         14    1    6    6    0    0 -0.30190741399E+01 -0.20268802088E+01 -0.55982844335E+02  0.56100819173E+02  0.00000000000E+00 0. -1.
        -13    1    6    6    0    0  0.11205873337E+03  0.79504010193E+02 -0.18074953845E+03  0.22704282198E+03  0.00000000000E+00 0.  1.
          5    1    5    5  501    0  0.13991888527E+03 -0.30492826807E+02 -0.12082510871E+03  0.18742439499E+03  0.47000000000E+01 0. -1.
         11    1    4    4    0    0 -0.11418570591E+03 -0.31635870483E+02  0.33407228191E+03  0.35446225931E+03  0.00000000000E+00 0. -1.
        -12    1    4    4    0    0 -0.12243187544E+03  0.18014109246E+02  0.19628954293E+03  0.23204236018E+03  0.00000000000E+00 0.  1.
         -5    1    3    3    0  503 -0.12340963151E+02 -0.33362541940E+02  0.23361995207E+03  0.23635932514E+03  0.47000000000E+01 0.  1.
</event>
<event>
12    1  0.9749377E-001  0.1538773E+03  0.7818608E-02  0.1195788E+00
         21   -1    0    0  503  502  0.00000000000E+00  0.00000000000E+00  0.17467427664E+03  0.17467427664E+03  0.00000000000E+00 0. -1.
         21   -1    0    0  501  503 -0.00000000000E+00 -0.00000000000E+00 -0.25241967263E+03  0.25241967263E+03  0.00000000000E+00 0. -1.
          6    2    1    2  501    0 -0.24076860181E+02 -0.91070836328E+02  0.39426430829E+02  0.19949235767E+03  0.17137434141E+03 0.  0.
         24    2    3    3    0    0  0.50827830385E+01 -0.10160996420E+03  0.77465235075E+02  0.15019328427E+03  0.78782869259E+02 0.  0.
         -6    2    1    2    0  502  0.24076860181E+02  0.91070836328E+02 -0.11717182682E+03  0.22760159160E+03  0.17087906563E+03 0.  0.
        -24    2    5    5    0    0  0.43018946865E+02  0.10512675420E+01 -0.97897987976E+02  0.13349581985E+03  0.79908590998E+02 0.  0.
         14    1    4    4    0    0  0.41042322214E+02 -0.55789114140E+02  0.52078663280E+02  0.86654974688E+02  0.00000000000E+00 0. -1.
        -13    1    4    4    0    0 -0.35959539176E+02 -0.45820850056E+02  0.25386571795E+02  0.63538309586E+02  0.00000000000E+00 0.  1.
          5    1    3    3  501    0 -0.29159643220E+02  0.10539127868E+02 -0.38038804246E+02  0.49299073392E+02  0.47000000000E+01 0. -1.
         11    1    6    6    0    0  0.36211571901E+02  0.16576798433E+02 -0.62738548963E+01  0.40316614951E+02  0.00000000000E+00 0. -1.
        -12    1    6    6    0    0  0.68073749638E+01 -0.15525530891E+02 -0.91624133079E+02  0.93179204901E+02  0.00000000000E+00 0.  1.
         -5    1    5    5    0  502 -0.18942086684E+02  0.90019568786E+02 -0.19273838846E+02  0.94105771748E+02  0.47000000000E+01 0.  1.
</event>
<event>
12    1  0.9749377E-001  0.1230850E+03  0.7818608E-02  0.1238093E+00
         21   -1    0    0  503  502  0.00000000000E+00  0.00000000000E+00  0.88799175960E+03  0.88799175960E+03  0.00000000000E+00 0. -1.
         21   -1    0    0  501  503 -0.00000000000E+00 -0.00000000000E+00 -0.36880832845E+02  0.36880832845E+02  0.00000000000E+00 0. -1.
          6    2    1    2  501    0 -0.34951072461E+02  0.80913630854E+01  0.53879025601E+03  0.56658929585E+03  0.17158508846E+03 0.  0.
         24    2    3    3    0    0 -0.90577513945E+02  0.59614041501E+01  0.30615714842E+03  0.32734237223E+03  0.71979196682E+02 0.  0.
         -6    2    1    2    0  502  0.34951072461E+02 -0.80913630854E+01  0.31232067075E+03  0.35828329660E+03  0.17185945310E+03 0.  0.
        -24    2    5    5    0    0  0.12323647064E+02  0.34541991628E+01  0.53660539313E+02  0.98336275104E+02  0.81404949194E+02 0.  0.
         14    1    4    4    0    0 -0.90354847821E+02  0.13534731579E+02  0.30643074802E+03  0.31976083377E+03  0.00000000000E+00 0. -1.
        -13    1    4    4    0    0 -0.22266612367E+00 -0.75733274293E+01 -0.27359960187E+00  0.75815384518E+01  0.00000000000E+00 0.  1.
          5    1    3    3  501    0  0.55626441484E+02  0.21299589353E+01  0.23263310759E+03  0.23924692362E+03  0.47000000000E+01 0. -1.
         11    1    6    6    0    0  0.18034170294E+02 -0.28141197183E+02 -0.26357696603E+01  0.33527683469E+02  0.00000000000E+00 0. -1.
        -12    1    6    6    0    0 -0.57105232302E+01  0.31595396346E+02  0.56296308973E+02  0.64808591636E+02  0.00000000000E+00 0.  1.
         -5    1    5    5    0  502  0.22627425397E+02 -0.11545562248E+02  0.25866013144E+03  0.25994702149E+03  0.47000000000E+01 0.  1.
</event>
<event>
12    1  0.9749377E-001  0.2658738E+03  0.7818608E-02  0.1103665E+00
         21   -1    0    0  503  502  0.00000000000E+00  0.00000000000E+00  0.43073601035E+03  0.43073601035E+03  0.00000000000E+00 0.  1.
         21   -1    0    0  501  503 -0.00000000000E+00 -0.00000000000E+00 -0.20370228976E+03  0.20370228976E+03  0.00000000000E+00 0. -1.
          6    2    1    2  501    0 -0.18047273357E+03  0.12666008496E+03  0.22029470303E+03  0.35680416747E+03  0.17368440649E+03 0.  0.
         24    2    3    3    0    0 -0.55849039547E+02  0.11045366150E+03  0.74286166115E+02  0.16410155689E+03  0.78049727354E+02 0.  0.
         -6    2    1    2    0  502  0.18047273357E+03 -0.12666008496E+03  0.67390175633E+01  0.27763413265E+03  0.16858858968E+03 0.  0.
        -24    2    5    5    0    0  0.10130941678E+03 -0.97054897892E+01 -0.27045774301E+02  0.13234576348E+03  0.80163163244E+02 0.  0.
         12    1    4    4    0    0  0.98604567873E+00  0.74892749888E+02  0.19176536864E+02  0.77315172108E+02  0.00000000000E+00 0. -1.
        -11    1    4    4    0    0 -0.56835085225E+02  0.35560911613E+02  0.55109629251E+02  0.86786384782E+02  0.00000000000E+00 0.  1.
          5    1    3    3  501    0 -0.12462369402E+03  0.16206423460E+02  0.14600853691E+03  0.19270261058E+03  0.47000000000E+01 0. -1.
         11    1    6    6    0    0 -0.97334897365E+01  0.46218761822E+01 -0.16741374502E+02  0.19909198430E+02  0.00000000000E+00 0. -1.
        -12    1    6    6    0    0  0.11104290652E+03 -0.14327365971E+02 -0.10304399799E+02  0.11243656505E+03  0.00000000000E+00 0.  1.
         -5    1    5    5    0  502  0.79163316782E+02 -0.11695459517E+03  0.33784791864E+02  0.14528836917E+03  0.47000000000E+01 0.  1.
</event>
<event>
12    1  0.9749377E-001  0.3323410E+03  0.7818608E-02  0.1070106E+00
         21   -1    0    0  503  502  0.00000000000E+00  0.00000000000E+00  0.22904549106E+03  0.22904549106E+03  0.00000000000E+00 0.  1.
         21   -1    0    0  501  503 -0.00000000000E+00 -0.00000000000E+00 -0.80666157280E+03  0.80666157280E+03  0.00000000000E+00 0. -1.
          6    2    1    2  501    0 -0.78403512980E+02 -0.28755611028E+03  0.15071904305E+02  0.35048600687E+03  0.18378697263E+03 0.  0.
         24    2    3    3    0    0 -0.15223049636E+02 -0.22693215430E+03  0.55868016773E+02  0.25377278245E+03  0.97721266450E+02 0.  0.
         -6    2    1    2    0  502  0.78403512980E+02  0.28755611028E+03 -0.59268798604E+03  0.68522105699E+03  0.17150283013E+03 0.  0.
        -24    2    5    5    0    0  0.45979994722E+02  0.28544937391E+03 -0.57327348495E+03  0.64708005901E+03  0.80464956582E+02 0.  0.
         12    1    4    4    0    0 -0.51944733280E+00  0.83655963968E+01  0.10926056626E+02  0.13770684151E+02  0.00000000000E+00 0. -1.
        -11    1    4    4    0    0 -0.14703602303E+02 -0.23529775070E+03  0.44941960147E+02  0.24000209830E+03  0.00000000000E+00 0.  1.
          5    1    3    3  501    0 -0.63180463344E+02 -0.60623955973E+02 -0.40796112468E+02  0.96713224425E+02  0.47000000000E+01 0. -1.
         11    1    6    6    0    0  0.62725919272E+02  0.13749841746E+03 -0.28080663556E+03  0.31889296375E+03  0.00000000000E+00 0. -1.
        -12    1    6    6    0    0 -0.16745924550E+02  0.14795095645E+03 -0.29246684939E+03  0.32818709526E+03  0.00000000000E+00 0.  1.
         -5    1    5    5    0  502  0.32423518259E+02  0.21067363637E+01 -0.19414501084E+02  0.38140997978E+02  0.47000000000E+01 0.  1.
</event>
<event>
12    1  0.9749377E-001  0.3080030E+03  0.7818608E-02  0.1081307E+00
         21   -1    0    0  501  502  0.00000000000E+00  0.00000000000E+00  0.68485002068E+03  0.68485002068E+03  0.00000000000E+00 0. -1.
         21   -1    0    0  502  503 -0.00000000000E+00 -0.00000000000E+00 -0.25620883464E+03  0.25620883464E+03  0.00000000000E+00 0.  1.
         -6    2    1    2    0  503 -0.25554644880E+03  0.15076581530E+03  0.48382854639E+03  0.59315662517E+03  0.17236705346E+03 0.  0.
        -24    2    3    3    0    0 -0.12684017366E+03  0.11667772105E+03  0.18051609117E+03  0.26187451137E+03  0.79310026418E+02 0.  0.
          6    2    1    2  501    0  0.25554644880E+03 -0.15076581530E+03 -0.55187360347E+02  0.34790223015E+03  0.17307801259E+03 0.  0.
         24    2    5    5    0    0  0.19182852312E+03 -0.89886548433E+02 -0.10173665918E+03  0.24812654970E+03  0.79615720646E+02 0.  0.
         12    1    6    6    0    0  0.12681497494E+03 -0.27484478380E+02 -0.88448221444E+02  0.15703669093E+03  0.00000000000E+00 0. -1.
        -11    1    6    6    0    0  0.65013548177E+02 -0.62402070053E+02 -0.13288437735E+02  0.91089858770E+02  0.00000000000E+00 0.  1.
          5    1    5    5  501    0  0.63717925685E+02 -0.60879266870E+02  0.46549298832E+02  0.99775680454E+02  0.47000000000E+01 0. -1.
         11    1    4    4    0    0 -0.23334299544E+02  0.82420449227E+01 -0.29848619484E+01  0.24926496757E+02  0.00000000000E+00 0. -1.
        -12    1    4    4    0    0 -0.10350587411E+03  0.10843567613E+03  0.18350095312E+03  0.23694801461E+03  0.00000000000E+00 0.  1.
         -5    1    3    3    0  503 -0.12870627515E+03  0.34088094253E+02  0.30331245522E+03  0.33128211380E+03  0.47000000000E+01 0.  1.
</event>
<event>
12    1  0.9749377E-001  0.3176008E+03  0.7818608E-02  0.1076759E+00
         21   -1    0    0  501  502  0.00000000000E+00  0.00000000000E+00  0.14467337893E+04  0.14467337893E+04  0.00000000000E+00 0. -1.
         21   -1    0    0  502  503 -0.00000000000E+00 -0.00000000000E+00 -0.22928364662E+03  0.22928364662E+03  0.00000000000E+00 0.  1.
         -6    2    1    2    0  503 -0.10413958984E+03  0.25929198044E+03  0.12972184568E+04  0.13380736784E+04  0.17201179841E+03 0.  0.
        -24    2    3    3    0    0 -0.36697678201E+02  0.41061545293E+02  0.46204026346E+03  0.47221131119E+03  0.80433495942E+02 0.  0.
          6    2    1    2  501    0  0.10413958984E+03 -0.25929198044E+03 -0.79768314111E+02  0.33794375757E+03  0.17252714003E+03 0.  0.
         24    2    5    5    0    0  0.47514149156E+02 -0.22696846664E+03 -0.10623725190E+03  0.26741755857E+03  0.80333789396E+02 0.  0.
         12    1    6    6    0    0  0.70014630981E+02 -0.18470282568E+03 -0.85597097780E+02  0.21527667202E+03  0.00000000000E+00 0. -1.
        -11    1    6    6    0    0 -0.22500481825E+02 -0.42265640960E+02 -0.20640154117E+02  0.52140886549E+02  0.00000000000E+00 0.  1.
          5    1    5    5  501    0  0.56625440689E+02 -0.32323513801E+02  0.26468937787E+02  0.70526198998E+02  0.47000000000E+01 0. -1.
         13    1    4    4    0    0 -0.37404677466E+02  0.63398903688E+02  0.31527961747E+03  0.32375881158E+03  0.00000000000E+00 0. -1.
        -14    1    4    4    0    0  0.70699926467E+00 -0.22337358395E+02  0.14676064599E+03  0.14845249961E+03  0.00000000000E+00 0.  1.
         -5    1    3    3    0  503 -0.67441911643E+02  0.21823043515E+03  0.83517819336E+03  0.86586236720E+03  0.47000000000E+01 0.  1.
</event>
<event>
12    1  0.1020022E+000  0.7180709E+03  0.7818608E-02  0.9686818E-01
         21   -1    0    0  503  502  0.00000000000E+00  0.00000000000E+00  0.68947144877E+03  0.68947144877E+03  0.00000000000E+00 0.  1.
         21   -1    0    0  501  503 -0.00000000000E+00 -0.00000000000E+00 -0.90863157105E+03  0.90863157105E+03  0.00000000000E+00 0. -1.
          6    2    1    2  501    0  0.63749127136E+03 -0.30569359297E+03  0.20140618787E+03  0.75792210901E+03  0.18449329788E+03 0.  0.
         24    2    3    3    0    0  0.32666369508E+03 -0.23913735867E+03  0.11536972103E+03  0.42857748991E+03  0.80452758375E+02 0.  0.
         -6    2    1    2    0  502 -0.63749127136E+03  0.30569359297E+03 -0.42056631015E+03  0.84018091081E+03  0.17083397733E+03 0.  0.
        -24    2    5    5    0    0 -0.59830584627E+03  0.27520994982E+03 -0.42844273364E+03  0.78969449594E+03  0.79648093160E+02 0.  0.
         14    1    4    4    0    0  0.15229997294E+03 -0.10251810382E+03  0.11577375585E+02  0.18395455688E+03  0.00000000000E+00 0. -1.
        -13    1    4    4    0    0  0.17436372213E+03 -0.13661925485E+03  0.10379234544E+03  0.24462293303E+03  0.00000000000E+00 0.  1.
          5    1    3    3  501    0  0.31082757628E+03 -0.66556234295E+02  0.86036466843E+02  0.32934461910E+03  0.47000000000E+01 0. -1.
         13    1    6    6    0    0 -0.33949202592E+03  0.19875433510E+03 -0.24729172177E+03  0.46466258408E+03  0.00000000000E+00 0. -1.
        -14    1    6    6    0    0 -0.25881382035E+03  0.76455614718E+02 -0.18115101187E+03  0.32503191186E+03  0.00000000000E+00 0.  1.
         -5    1    5    5    0  502 -0.39185425093E+02  0.30483643150E+02  0.78764234955E+01  0.50486414870E+02  0.47000000000E+01 0.  1.
</event>
<event>
12    1  0.9749377E-001  0.2819825E+03  0.7818608E-02  0.1094611E+00
         21   -1    0    0  503  502  0.00000000000E+00  0.00000000000E+00  0.47338235740E+03  0.47338235740E+03  0.00000000000E+00 0. -1.
         21   -1    0    0  501  503 -0.00000000000E+00 -0.00000000000E+00 -0.17431728944E+03  0.17431728944E+03  0.00000000000E+00 0.  1.
          6    2    1    2  501    0 -0.17728224117E+03 -0.14521502231E+03  0.17297074800E+03  0.33507446540E+03  0.17274148882E+03 0.  0.
         24    2    3    3    0    0 -0.19119571729E+03 -0.99298589587E+02  0.10766691777E+03  0.25390437328E+03  0.80369480417E+02 0.  0.
         -6    2    1    2    0  502  0.17728224117E+03  0.14521502231E+03  0.12609431995E+03  0.31262518144E+03  0.17122596417E+03 0.  0.
        -24    2    5    5    0    0  0.16722086413E+03  0.17460077132E+03  0.11190464363E+03  0.27815504267E+03  0.79995823316E+02 0.  0.
         12    1    4    4    0    0 -0.14174048600E+03 -0.30512301050E+02  0.73517075526E+02  0.16256114628E+03  0.00000000000E+00 0. -1.
        -11    1    4    4    0    0 -0.49455231299E+02 -0.68786288536E+02  0.34149842239E+02  0.91343226998E+02  0.00000000000E+00 0.  1.
          5    1    3    3  501    0  0.13913476124E+02 -0.45916432727E+02  0.65303830238E+02  0.81170092128E+02  0.47000000000E+01 0. -1.
         13    1    6    6    0    0  0.77311232815E+02  0.27157795500E+02  0.37447796430E+02  0.90093895649E+02  0.00000000000E+00 0. -1.
        -14    1    6    6    0    0  0.89909631320E+02  0.14744297582E+03  0.74456847198E+02  0.18806114702E+03  0.00000000000E+00 0.  1.
         -5    1    5    5    0  502  0.10061377036E+02 -0.29385749010E+02  0.14189676322E+02  0.34470138770E+02  0.47000000000E+01 0.  1.
</event>
<event>
12    1  0.9749377E-001  0.2098187E+03  0.7818608E-02  0.1141710E+00
         21   -1    0    0  503  502  0.00000000000E+00  0.00000000000E+00  0.62914126129E+02  0.62914126129E+02  0.00000000000E+00 0.  1.
         21   -1    0    0  501  503 -0.00000000000E+00 -0.00000000000E+00 -0.10134187679E+04  0.10134187679E+04  0.00000000000E+00 0. -1.
          6    2    1    2  501    0  0.14477852130E+03 -0.64912541112E+02 -0.27065665485E+03  0.35720940734E+03  0.17078957126E+03 0.  0.
         24    2    3    3    0    0  0.12957561682E+03 -0.86265972574E+02 -0.16029704894E+03  0.24368218612E+03  0.97232738499E+02 0.  0.
         -6    2    1    2    0  502 -0.14477852130E+03  0.64912541112E+02 -0.67984798688E+03  0.71912348665E+03  0.17254230079E+03 0.  0.
        -24    2    5    5    0    0 -0.29085964696E+01  0.46844080188E+01 -0.25189843417E+03  0.26424172921E+03  0.79627047577E+02 0.  0.
         12    1    4    4    0    0  0.77352357464E+02 -0.31809954395E+02 -0.22548889897E+02  0.86623973815E+02  0.00000000000E+00 0. -1.
        -11    1    4    4    0    0  0.52223259355E+02 -0.54456018179E+02 -0.13774815904E+03  0.15705821231E+03  0.00000000000E+00 0.  1.
          5    1    3    3  501    0  0.15202904485E+02  0.21353431462E+02 -0.11035960592E+03  0.11352722122E+03  0.47000000000E+01 0. -1.
         11    1    6    6    0    0 -0.40269835728E+02 -0.63460233907E+01 -0.12234734467E+03  0.12896047623E+03  0.00000000000E+00 0. -1.
        -12    1    6    6    0    0  0.37361239258E+02  0.11030431409E+02 -0.12955108950E+03  0.13528125298E+03  0.00000000000E+00 0.  1.
         -5    1    5    5    0  502 -0.14186992484E+03  0.60228133093E+02 -0.42794955271E+03  0.45488175744E+03  0.47000000000E+01 0.  1.
</event>
<event>
12    1  0.9749377E-001  0.7510235E+03  0.7818608E-02  0.9633746E-01
         21   -1    0    0  503  502  0.00000000000E+00  0.00000000000E+00  0.36327936720E+03  0.36327936720E+03  0.00000000000E+00 0. -1.
         21   -1    0    0  501  503 -0.00000000000E+00 -0.00000000000E+00 -0.17360242867E+04  0.17360242867E+04  0.00000000000E+00 0.  1.
          6    2    1    2  501    0  0.29135057468E+03 -0.68127107927E+03 -0.38553928168E+03  0.85280690980E+03  0.17211521392E+03 0.  0.
         24    2    3    3    0    0  0.22746552460E+03 -0.45277408488E+03 -0.19675911400E+03  0.54957066892E+03  0.81048345947E+02 0.  0.
         -6    2    1    2    0  502 -0.29135057468E+03  0.68127107927E+03 -0.98720563780E+03  0.12464967441E+04  0.17367705912E+03 0.  0.
        -24    2    5    5    0    0 -0.19333662355E+03  0.56842773741E+03 -0.72915160656E+03  0.94824462345E+03  0.83765493423E+02 0.  0.
         12    1    4    4    0    0  0.89717378439E+02 -0.10250303335E+03 -0.41276039406E+02  0.14233689356E+03  0.00000000000E+00 0. -1.
        -11    1    4    4    0    0  0.13774814616E+03 -0.35027105153E+03 -0.15548307459E+03  0.40723377536E+03  0.00000000000E+00 0.  1.
          5    1    3    3  501    0  0.63885050082E+02 -0.22849699440E+03 -0.18878016768E+03  0.30323624088E+03  0.47000000000E+01 0. -1.
         11    1    6    6    0    0 -0.14692166425E+03  0.35541960864E+03 -0.51394773424E+03  0.64191225815E+03  0.00000000000E+00 0. -1.
        -12    1    6    6    0    0 -0.46414959308E+02  0.21300812877E+03 -0.21520387233E+03  0.30633236531E+03  0.00000000000E+00 0.  1.
         -5    1    5    5    0  502 -0.98013951123E+02  0.11284334186E+03 -0.25805403124E+03  0.29825212063E+03  0.47000000000E+01 0.  1.
</event>
<event>
12    1  0.9749377E-001  0.4407681E+03  0.7818608E-02  0.1030511E+00
         21   -1    0    0  503  502  0.00000000000E+00  0.00000000000E+00  0.10414106292E+04  0.10414106292E+04  0.00000000000E+00 0. -1.
         21   -1    0    0  501  503 -0.00000000000E+00 -0.00000000000E+00 -0.19683327926E+03  0.19683327926E+03  0.00000000000E+00 0.  1.
          6    2    1    2  501    0  0.41591062202E+03  0.27923424160E+02  0.37253110817E+03  0.58547409986E+03  0.17389402499E+03 0.  0.
         24    2    3    3    0    0  0.17972790690E+03  0.44119862164E+02  0.98427496068E+02  0.22325941257E+03  0.76864234600E+02 0.  0.
         -6    2    1    2    0  502 -0.41591062202E+03 -0.27923424160E+02  0.47204624180E+03  0.65276980862E+03  0.17181212274E+03 0.  0.
        -24    2    5    5    0    0 -0.10599378537E+03 -0.34883987642E+02  0.15133415413E+03  0.20670341416E+03  0.85864428546E+02 0.  0.
         14    1    4    4    0    0  0.13804540119E+02  0.29558297291E+02  0.25619892126E+02  0.41480563390E+02  0.00000000000E+00 0. -1.
        -13    1    4    4    0    0  0.16592336678E+03  0.14561564873E+02  0.72807603942E+02  0.18177884918E+03  0.00000000000E+00 0.  1.
          5    1    3    3  501    0  0.23618271512E+03 -0.16196438005E+02  0.27410361210E+03  0.36221468729E+03  0.47000000000E+01 0. -1.
         13    1    6    6    0    0 -0.87278100063E+02 -0.58749053015E+02  0.90702711068E+02  0.13890968208E+03  0.00000000000E+00 0. -1.
        -14    1    6    6    0    0 -0.18715685302E+02  0.23865065372E+02  0.60631443059E+02  0.67793732077E+02  0.00000000000E+00 0.  1.
         -5    1    5    5    0  502 -0.30991683666E+03  0.69605634825E+01  0.32071208768E+03  0.44606639446E+03  0.47000000000E+01 0.  1.
</event>
<event>
12    1  0.9749377E-001  0.1811725E+03  0.7818608E-02  0.1166673E+00
         21   -1    0    0  501  502  0.00000000000E+00  0.00000000000E+00  0.14790377342E+03  0.14790377342E+03  0.00000000000E+00 0.  1.
         21   -1    0    0  502  503 -0.00000000000E+00 -0.00000000000E+00 -0.52369783642E+03  0.52369783642E+03  0.00000000000E+00 0. -1.
         -6    2    1    2    0  503 -0.13293871002E+03  0.10588594693E+02  0.23108764894E+02  0.21663498977E+03  0.16915047981E+03 0.  0.
        -24    2    3    3    0    0 -0.88431513455E+02 -0.50449484888E+02 -0.18246578817E+02  0.13038597726E+03  0.79386915364E+02 0.  0.
          6    2    1    2  501    0  0.13293871002E+03 -0.10588594693E+02 -0.39890282789E+03  0.45496662006E+03  0.17345414469E+03 0.  0.
         24    2    5    5    0    0 -0.37366022277E+01 -0.16702655905E+02 -0.14111727040E+03  0.16308820981E+03  0.79942099431E+02 0.  0.
         12    1    6    6    0    0  0.13364069575E+02  0.51655201387E+01  0.43675323375E+01  0.14978527719E+02  0.00000000000E+00 0. -1.
        -11    1    6    6    0    0 -0.17100671803E+02 -0.21868176044E+02 -0.14548480274E+03  0.14810968209E+03  0.00000000000E+00 0.  1.
          5    1    5    5  501    0  0.13667531225E+03  0.61140612120E+01 -0.25778555749E+03  0.29187841025E+03  0.47000000000E+01 0. -1.
         13    1    4    4    0    0  0.32765233607E+01 -0.72691731119E+00  0.19243370247E+02  0.19533850428E+02  0.00000000000E+00 0. -1.
        -14    1    4    4    0    0 -0.91708036816E+02 -0.49722567577E+02 -0.37489949063E+02  0.11085212683E+03  0.00000000000E+00 0.  1.
         -5    1    3    3    0  503 -0.44507196570E+02  0.61038079582E+02  0.41355343711E+02  0.86249012510E+02  0.47000000000E+01 0.  1.
</event>
<event>
12    1  0.9749377E-001  0.5510580E+03  0.7818608E-02  0.1001249E+00
         21   -1    0    0  503  502  0.00000000000E+00  0.00000000000E+00  0.29312510859E+03  0.29312510859E+03  0.00000000000E+00 0.  1.
         21   -1    0    0  501  503 -0.00000000000E+00 -0.00000000000E+00 -0.22809324095E+04  0.22809324095E+04  0.00000000000E+00 0. -1.
          6    2    1    2  501    0  0.31010076551E+03  0.45216340784E+03 -0.78075196819E+02  0.57981256069E+03  0.17167596520E+03 0.  0.
         24    2    3    3    0    0  0.28706400167E+03  0.43517371093E+03 -0.10736532415E+03  0.53858946222E+03  0.82276340729E+02 0.  0.
         -6    2    1    2    0  502 -0.31010076551E+03 -0.45216340784E+03 -0.19097321040E+04  0.19942449573E+04  0.17123670325E+03 0.  0.
        -24    2    5    5    0    0 -0.16242743067E+03 -0.21735656363E+03 -0.11996755430E+04  0.12319168930E+04  0.69074428257E+02 0.  0.
         12    1    4    4    0    0  0.24538203394E+03  0.33396325860E+03 -0.57794651316E+02  0.41843042718E+03  0.00000000000E+00 0. -1.
        -11    1    4    4    0    0  0.41681967730E+02  0.10121045234E+03 -0.49570672829E+02  0.12015903504E+03  0.00000000000E+00 0.  1.
          5    1    3    3  501    0  0.23036763837E+02  0.16989696902E+02  0.29290127326E+02  0.41223098472E+02  0.47000000000E+01 0. -1.
         13    1    6    6    0    0 -0.31395659121E+02 -0.53134914826E+02 -0.41667598917E+03  0.42122189702E+03  0.00000000000E+00 0. -1.
        -14    1    6    6    0    0 -0.13103177155E+03 -0.16422164880E+03 -0.78299955387E+03  0.81069499595E+03  0.00000000000E+00 0.  1.
         -5    1    5    5    0  502 -0.14767333484E+03 -0.23480684421E+03 -0.71005656101E+03  0.76232806438E+03  0.47000000000E+01 0.  1.
</event>
<event>
12    1  0.9749377E-001  0.8088472E+03  0.7818608E-02  0.9547299E-01
         21   -1    0    0  501  502  0.00000000000E+00  0.00000000000E+00  0.26832065688E+03  0.26832065688E+03  0.00000000000E+00 0.  1.
         21   -1    0    0  502  503 -0.00000000000E+00 -0.00000000000E+00 -0.24872918216E+04  0.24872918216E+04  0.00000000000E+00 0. -1.
         -6    2    1    2    0  503 -0.50176005833E+03  0.62111988916E+03 -0.10747379225E+04  0.13498956971E+04  0.17205731126E+03 0.  0.
        -24    2    3    3    0    0 -0.12431411863E+03  0.16395257908E+03 -0.34648777778E+03  0.41083353199E+03  0.79974762141E+02 0.  0.
          6    2    1    2  501    0  0.50176005833E+03 -0.62111988916E+03 -0.11442332423E+04  0.14057167813E+04  0.17092947013E+03 0.  0.
         24    2    5    5    0    0  0.24022355341E+03 -0.37217748839E+03 -0.55390075887E+03  0.71369930087E+03  0.79606550663E+02 0.  0.
         12    1    6    6    0    0  0.12576079127E+02 -0.20659276312E+02 -0.76160806287E+01  0.25356816600E+02  0.00000000000E+00 0. -1.
        -11    1    6    6    0    0  0.22764747428E+03 -0.35151821208E+03 -0.54628467824E+03  0.68834248427E+03  0.00000000000E+00 0.  1.
          5    1    5    5  501    0  0.26153650492E+03 -0.24894240077E+03 -0.59033248342E+03  0.69201748048E+03  0.47000000000E+01 0. -1.
         11    1    4    4    0    0 -0.25523359844E+02  0.99659200668E+02 -0.16276643319E+03  0.19255209672E+03  0.00000000000E+00 0. -1.
        -12    1    4    4    0    0 -0.98790758782E+02  0.64293378416E+02 -0.18372134459E+03  0.21828143528E+03  0.00000000000E+00 0.  1.
         -5    1    3    3    0  503 -0.37744593971E+03  0.45716731008E+03 -0.72825014468E+03  0.93906216516E+03  0.47000000000E+01 0.  1.
</event>
<event>
12    1  0.9749377E-001  0.7047711E+03  0.7818608E-02  0.9709108E-01
         21   -1    0    0  501  502  0.00000000000E+00  0.00000000000E+00  0.51275695760E+03  0.51275695760E+03  0.00000000000E+00 0.  1.
         21   -1    0    0  502  503 -0.00000000000E+00 -0.00000000000E+00 -0.11437042606E+04  0.11437042606E+04  0.00000000000E+00 0. -1.
         -6    2    1    2    0  503 -0.27339934993E+03  0.63828040434E+03 -0.61066091387E+03  0.94052782455E+03  0.17186261353E+03 0.  0.
        -24    2    3    3    0    0 -0.49134620271E+02  0.14389788105E+03 -0.16001218462E+03  0.23496768150E+03  0.80530125045E+02 0.  0.
          6    2    1    2  501    0  0.27339934993E+03 -0.63828040434E+03 -0.20286389139E+02  0.71593339366E+03  0.17320510233E+03 0.  0.
         24    2    5    5    0    0  0.79169220464E+02 -0.30689398130E+03 -0.50888397307E+02  0.33057527779E+03  0.78985467507E+02 0.  0.
         14    1    6    6    0    0  0.39304021907E+02 -0.15508654642E+03 -0.65635080177E+02  0.17292948496E+03  0.00000000000E+00 0. -1.
        -13    1    6    6    0    0  0.39865198558E+02 -0.15180743489E+03  0.14746682870E+02  0.15764579283E+03  0.00000000000E+00 0.  1.
          5    1    5    5  501    0  0.19423012946E+03 -0.33138642303E+03  0.30602008168E+02  0.38535811587E+03  0.47000000000E+01 0. -1.
         11    1    4    4    0    0 -0.65070278012E+02  0.12434389614E+03 -0.15528063784E+03  0.20930270441E+03  0.00000000000E+00 0. -1.
        -12    1    4    4    0    0  0.15935657741E+02  0.19553984918E+02 -0.47315467830E+01  0.25664977084E+02  0.00000000000E+00 0.  1.
         -5    1    3    3    0  503 -0.22426472965E+03  0.49438252328E+03 -0.45064872925E+03  0.70556014305E+03  0.47000000000E+01 0.  1.
</event>
<event>
12    1  0.9749377E-001  0.7489899E+03  0.7818608E-02  0.9636936E-01
         21   -1    0    0  503  502  0.00000000000E+00  0.00000000000E+00  0.56906922341E+03  0.56906922341E+03  0.00000000000E+00 0.  1.
         21   -1    0    0  501  503 -0.00000000000E+00 -0.00000000000E+00 -0.12463580806E+04  0.12463580806E+04  0.00000000000E+00 0. -1.
          6    2    1    2  501    0  0.65539204330E+03  0.32900091173E+03 -0.74383847294E+03  0.10589033574E+04  0.17378238172E+03 0.  0.
         24    2    3    3    0    0  0.46555092705E+03  0.15776680230E+03 -0.49415067803E+03  0.70151441722E+03  0.79432709807E+02 0.  0.
         -6    2    1    2    0  502 -0.65539204330E+03 -0.32900091173E+03  0.66549615778E+02  0.75652394655E+03  0.17354912846E+03 0.  0.
        -24    2    5    5    0    0 -0.38270804803E+03 -0.25595265912E+03  0.27497089627E+01  0.46706734082E+03  0.78531052615E+02 0.  0.
         14    1    4    4    0    0  0.10233593401E+03  0.53084880451E+01 -0.12529881692E+03  0.16186604634E+03  0.00000000000E+00 0. -1.
        -13    1    4    4    0    0  0.36321499304E+03  0.15245831425E+03 -0.36885186111E+03  0.53964837088E+03  0.00000000000E+00 0.  1.
          5    1    3    3  501    0  0.18984111626E+03  0.17123410943E+03 -0.24968779491E+03  0.35738894020E+03  0.47000000000E+01 0. -1.
         13    1    6    6    0    0 -0.18928845062E+03 -0.15893822813E+03 -0.27034789417E+02  0.24864102183E+03  0.00000000000E+00 0. -1.
        -14    1    6    6    0    0 -0.19341959741E+03 -0.97014430984E+02  0.29784498380E+02  0.21842631899E+03  0.00000000000E+00 0.  1.
         -5    1    5    5    0  502 -0.27268399527E+03 -0.73048252616E+02  0.63799906815E+02  0.28945660572E+03  0.47000000000E+01 0.  1.
</event>
<event>
12    1  0.9749377E-001  0.4454219E+03  0.7818608E-02  0.1029096E+00
         21   -1    0    0  501  502  0.00000000000E+00  0.00000000000E+00  0.39793114318E+03  0.39793114318E+03  0.00000000000E+00 0.  1.
         21   -1    0    0  502  503 -0.00000000000E+00 -0.00000000000E+00 -0.55364601257E+03  0.55364601257E+03  0.00000000000E+00 0. -1.
         -6    2    1    2    0  503 -0.14300315635E+03  0.40660000370E+03 -0.14704699702E+03  0.48691449237E+03  0.17230623264E+03 0.  0.
        -24    2    3    3    0    0 -0.16951019595E+02  0.15959354186E+03 -0.10221075257E+03  0.20596305139E+03  0.78843547157E+02 0.  0.
          6    2    1    2  501    0  0.14300315635E+03 -0.40660000370E+03 -0.86678723629E+01  0.46466266338E+03  0.17338625375E+03 0.  0.
         24    2    5    5    0    0 -0.75254013939E+01 -0.15927635862E+03  0.18057726136E+02  0.17386345477E+03  0.66909112600E+02 0.  0.
         14    1    6    6    0    0 -0.17424779466E+02 -0.12444744403E+03 -0.12770906897E+02  0.12630869063E+03  0.00000000000E+00 0. -1.
        -13    1    6    6    0    0  0.98993780721E+01 -0.34828914593E+02  0.30828633033E+02  0.47554764142E+02  0.00000000000E+00 0.  1.
          5    1    5    5  501    0  0.15052855774E+03 -0.24732364508E+03 -0.26725598499E+02  0.29079920861E+03  0.47000000000E+01 0. -1.
         13    1    4    4    0    0 -0.99138034164E+01  0.20379980731E+02  0.12102657222E+02  0.25692439055E+02  0.00000000000E+00 0. -1.
        -14    1    4    4    0    0 -0.70372161790E+01  0.13921356113E+03 -0.11431340979E+03  0.18027061234E+03  0.00000000000E+00 0.  1.
         -5    1    3    3    0  503 -0.12605213675E+03  0.24700646184E+03 -0.44836244457E+02  0.28095144098E+03  0.47000000000E+01 0.  1.
</event>
<event>
12    1  0.9749377E-001  0.1073210E+04  0.7818608E-02  0.9231704E-01
         21   -1    0    0  501  502  0.00000000000E+00  0.00000000000E+00  0.22181900536E+04  0.22181900536E+04  0.00000000000E+00 0.  1.
         21   -1    0    0  502  503 -0.00000000000E+00 -0.00000000000E+00 -0.53060879313E+03  0.53060879313E+03  0.00000000000E+00 0. -1.
         -6    2    1    2    0  503 -0.14882528876E+03  0.10581939010E+04  0.75081328410E+03  0.13173322797E+04  0.17239619749E+03 0.  0.
        -24    2    3    3    0    0 -0.16239347333E+03  0.76391353618E+03  0.58593972434E+03  0.97970762205E+03  0.81031680330E+02 0.  0.
          6    2    1    2  501    0  0.14882528876E+03 -0.10581939010E+04  0.93676797633E+03  0.14314665670E+04  0.17215978688E+03 0.  0.
         24    2    5    5    0    0  0.10291433095E+03 -0.75571772248E+03  0.75112349286E+03  0.10735760546E+04  0.81721526361E+02 0.  0.
         12    1    6    6    0    0  0.68226595625E+02 -0.35301198724E+03  0.30401110726E+03  0.47084507518E+03  0.00000000000E+00 0. -1.
        -11    1    6    6    0    0  0.34687735320E+02 -0.40270573524E+03  0.44711238560E+03  0.60273097940E+03  0.00000000000E+00 0.  1.
          5    1    5    5  501    0  0.45910957814E+02 -0.30247617852E+03  0.18564448347E+03  0.35789051239E+03  0.47000000000E+01 0. -1.
         13    1    4    4    0    0 -0.33776235355E+02  0.93091634139E+02  0.46828086127E+02  0.10954339812E+03  0.00000000000E+00 0. -1.
        -14    1    4    4    0    0 -0.12861723797E+03  0.67082190204E+03  0.53911163821E+03  0.87016422393E+03  0.00000000000E+00 0.  1.
         -5    1    3    3    0  503  0.13568184570E+02  0.29428036482E+03  0.16487355976E+03  0.33762465766E+03  0.47000000000E+01 0.  1.
</event>
<event>
12    1  0.9749377E-001  0.2947415E+03  0.7818608E-02  0.1087899E+00
         21   -1    0    0  501  502  0.00000000000E+00  0.00000000000E+00  0.33945805657E+03  0.33945805657E+03  0.00000000000E+00 0.  1.
         21   -1    0    0  502  503 -0.00000000000E+00 -0.00000000000E+00 -0.34514590220E+03  0.34514590220E+03  0.00000000000E+00 0. -1.
         -6    2    1    2    0  503  0.97776163720E+02  0.26424290526E+03  0.91394105171E+02  0.34082247752E+03  0.16858999836E+03 0.  0.
        -24    2    3    3    0    0  0.65135936098E+02  0.26563954869E+03  0.52515748336E+02  0.28982295102E+03  0.80202114181E+02 0.  0.
          6    2    1    2  501    0 -0.97776163720E+02 -0.26424290526E+03 -0.97081950802E+02  0.34378148126E+03  0.17139518813E+03 0.  0.
         24    2    5    5    0    0 -0.73529731321E+02 -0.21665746467E+03 -0.11567097389E+02  0.24285009965E+03  0.80593391602E+02 0.  0.
         12    1    6    6    0    0 -0.35097171198E+02 -0.12610233248E+03 -0.45821083827E+02  0.13868374601E+03  0.00000000000E+00 0. -1.
        -11    1    6    6    0    0 -0.38432560123E+02 -0.90555132191E+02  0.34253986438E+02  0.10416635364E+03  0.00000000000E+00 0.  1.
          5    1    5    5  501    0 -0.24246432400E+02 -0.47585440588E+02 -0.85514853413E+02  0.10093138161E+03  0.47000000000E+01 0. -1.
         11    1    4    4    0    0  0.53553314096E+02  0.20646283520E+03  0.74064877232E+02  0.22578854224E+03  0.00000000000E+00 0. -1.
        -12    1    4    4    0    0  0.11582622002E+02  0.59176713490E+02 -0.21549128896E+02  0.64034408782E+02  0.00000000000E+00 0.  1.
         -5    1    3    3    0  503  0.32640227622E+02 -0.13966434274E+01  0.38878356835E+02  0.50999526491E+02  0.47000000000E+01 0.  1.
</event>
<event>
12    1  0.9749377E-001  0.4318848E+03  0.7818608E-02  0.1033266E+00
         21   -1    0    0  501  502  0.00000000000E+00  0.00000000000E+00  0.68104441372E+03  0.68104441372E+03  0.00000000000E+00 0.  1.
         21   -1    0    0  502  503 -0.00000000000E+00 -0.00000000000E+00 -0.38626312878E+03  0.38626312878E+03  0.00000000000E+00 0. -1.
         -6    2    1    2    0  503  0.39586268637E+03 -0.13974854284E+03 -0.10096139793E+03  0.46533527136E+03  0.17351308080E+03 0.  0.
        -24    2    3    3    0    0  0.30572456024E+03 -0.11000832788E+03 -0.11427333719E+02  0.33476804414E+03  0.79810528670E+02 0.  0.
          6    2    1    2  501    0 -0.39586268637E+03  0.13974854284E+03  0.39574268287E+03  0.60197227115E+03  0.17181799237E+03 0.  0.
         24    2    5    5    0    0 -0.33701548770E+03  0.62329787194E+02  0.26869351305E+03  0.44190903968E+03  0.74986359259E+02 0.  0.
         12    1    6    6    0    0 -0.12713646488E+03  0.48435256547E+02  0.14054315955E+03  0.19560683647E+03  0.00000000000E+00 0. -1.
        -11    1    6    6    0    0 -0.20987902282E+03  0.13894530647E+02  0.12815035350E+03  0.24630220320E+03  0.00000000000E+00 0.  1.
          5    1    5    5  501    0 -0.58847198675E+02  0.77418755651E+02  0.12704916982E+03  0.16006323147E+03  0.47000000000E+01 0. -1.
         13    1    4    4    0    0  0.14844341631E+03 -0.49735606906E+02  0.34236176361E+02  0.16025353105E+03  0.00000000000E+00 0. -1.
        -14    1    4    4    0    0  0.15728114393E+03 -0.60272720970E+02 -0.45663510080E+02  0.17451451310E+03  0.00000000000E+00 0.  1.
         -5    1    3    3    0  503  0.90138126130E+02 -0.29740214970E+02 -0.89534064208E+02  0.13056722721E+03  0.47000000000E+01 0.  1.
</event>
<event>
12    1  0.9749377E-001  0.1841329E+03  0.7818608E-02  0.1163862E+00
         21   -1    0    0  503  502  0.00000000000E+00  0.00000000000E+00  0.12582064208E+03  0.12582064208E+03  0.00000000000E+00 0.  1.
         21   -1    0    0  501  503 -0.00000000000E+00 -0.00000000000E+00 -0.74079047733E+03  0.74079047733E+03  0.00000000000E+00 0.  1.
          6    2    1    2  501    0 -0.99244826880E+02 -0.98486873327E+01  0.17722879228E+02  0.20302552235E+03  0.17595093058E+03 0.  0.
         24    2    3    3    0    0 -0.11780530953E+03  0.16568701337E+02 -0.30254024410E+02  0.14500618744E+03  0.77193753539E+02 0.  0.
         -6    2    1    2    0  502  0.99244826880E+02  0.98486873327E+01 -0.63269271447E+03  0.66358559706E+03  0.17349132940E+03 0.  0.
        -24    2    5    5    0    0  0.76959072918E+02  0.71866686067E+02 -0.40891972368E+03  0.43026322693E+03  0.82604991146E+02 0.  0.
         14    1    4    4    0    0 -0.75574749167E+02 -0.27242743968E+02 -0.23951632696E+02  0.83829532501E+02  0.00000000000E+00 0. -1.
        -13    1    4    4    0    0 -0.42230560366E+02  0.43811445305E+02 -0.63023917140E+01  0.61176654942E+02  0.00000000000E+00 0.  1.
          5    1    3    3  501    0  0.18560482653E+02 -0.26417388670E+02  0.47976903638E+02  0.58019334907E+02  0.47000000000E+01 0. -1.
         11    1    6    6    0    0 -0.74203809906E+01  0.35902890416E+02 -0.17913257100E+03  0.18284572073E+03  0.00000000000E+00 0. -1.
        -12    1    6    6    0    0  0.84379453908E+02  0.35963795651E+02 -0.22978715268E+03  0.24741750620E+03  0.00000000000E+00 0.  1.
         -5    1    5    5    0  502  0.22285753962E+02 -0.62017998734E+02 -0.22377299079E+03  0.23332237013E+03  0.47000000000E+01 0.  1.
</event>
<event>
12    1  0.9749377E-001  0.3840024E+03  0.7818608E-02  0.1049464E+00
         21   -1    0    0  501  502  0.00000000000E+00  0.00000000000E+00  0.24137123413E+03  0.24137123413E+03  0.00000000000E+00 0. -1.
         21   -1    0    0  502  503 -0.00000000000E+00 -0.00000000000E+00 -0.67912808491E+03  0.67912808491E+03  0.00000000000E+00 0.  1.
         -6    2    1    2    0  503  0.18074504192E+03  0.31667221137E+03 -0.17803127989E+03  0.44098582711E+03  0.17269424847E+03 0.  0.
        -24    2    3    3    0    0  0.15746191480E+03  0.16492491283E+03 -0.59589583859E+02  0.24702739862E+03  0.74007673113E+02 0.  0.
          6    2    1    2  501    0 -0.18074504192E+03 -0.31667221137E+03 -0.25972557089E+03  0.47951349193E+03  0.17183060595E+03 0.  0.
         24    2    5    5    0    0 -0.10221419504E+03 -0.12778183101E+03 -0.19094235959E+03  0.26364341559E+03  0.79201817503E+02 0.  0.
         12    1    6    6    0    0 -0.20362254094E+02  0.90710359077E+01 -0.25243448748E+02  0.33676947441E+02  0.00000000000E+00 0. -1.
        -11    1    6    6    0    0 -0.81851940949E+02 -0.13685286692E+03 -0.16569891084E+03  0.22996646815E+03  0.00000000000E+00 0.  1.
          5    1    5    5  501    0 -0.78530846879E+02 -0.18889038035E+03 -0.68783211307E+02  0.21587007634E+03  0.47000000000E+01 0. -1.
         13    1    4    4    0    0  0.81780538332E+02  0.87475085298E+02 -0.69214109610E+02  0.13831319520E+03  0.00000000000E+00 0. -1.
        -14    1    4    4    0    0  0.75681376465E+02  0.77449827529E+02  0.96245257516E+01  0.10871420341E+03  0.00000000000E+00 0.  1.
         -5    1    3    3    0  503  0.23283127125E+02  0.15174729854E+03 -0.11844169604E+03  0.19395842849E+03  0.47000000000E+01 0.  1.
</event>
<event>
12    1  0.9749377E-001  0.5580699E+03  0.7818608E-02  0.9996431E-01
         21   -1    0    0  503  502  0.00000000000E+00  0.00000000000E+00  0.19510707332E+04  0.19510707332E+04  0.00000000000E+00 0.  1.
         21   -1    0    0  501  503 -0.00000000000E+00 -0.00000000000E+00 -0.22669161618E+03  0.22669161618E+03  0.00000000000E+00 0. -1.
          6    2    1    2  501    0  0.24739072913E+03  0.48443434866E+03  0.14195378262E+04  0.15308970193E+04  0.18077398187E+03 0.  0.
         24    2    3    3    0    0  0.23541005041E+03  0.32722875843E+03  0.10888730446E+04  0.11645386946E+04  0.89494758252E+02 0.  0.
         -6    2    1    2    0  502 -0.24739072913E+03 -0.48443434866E+03  0.30484129083E+03  0.64686533014E+03  0.17212708017E+03 0.  0.
        -24    2    5    5    0    0 -0.20698832891E+03 -0.43637850437E+03  0.20899306157E+03  0.53218886714E+03  0.79224510998E+02 0.  0.
         14    1    4    4    0    0  0.44215030477E+02  0.33180466226E+02  0.87327479451E+02  0.10335376590E+03  0.00000000000E+00 0. -1.
        -13    1    4    4    0    0  0.19119501993E+03  0.29404829220E+03  0.10015455651E+04  0.10611849286E+04  0.00000000000E+00 0.  1.
          5    1    3    3  501    0  0.11980678720E+02  0.15720559023E+03  0.33066478165E+03  0.36635832472E+03  0.47000000000E+01 0. -1.
         11    1    6    6    0    0 -0.11004893360E+03 -0.31751890821E+03  0.14208465142E+03  0.36485212488E+03  0.00000000000E+00 0. -1.
        -12    1    6    6    0    0 -0.96939395314E+02 -0.11885959616E+03  0.66908410142E+02  0.16733674226E+03  0.00000000000E+00 0.  1.
         -5    1    5    5    0  502 -0.40402400216E+02 -0.48055844290E+02  0.95848229268E+02  0.11467646301E+03  0.47000000000E+01 0. -1.
</event>
<event>
12    1  0.9749377E-001  0.3461570E+03  0.7818608E-02  0.1064204E+00
         21   -1    0    0  503  502  0.00000000000E+00  0.00000000000E+00  0.83584416369E+03  0.83584416369E+03  0.00000000000E+00 0.  1.
         21   -1    0    0  501  503 -0.00000000000E+00 -0.00000000000E+00 -0.19447596997E+03  0.19447596997E+03  0.00000000000E+00 0. -1.
          6    2    1    2  501    0  0.32625789203E+03 -0.14860259239E+02  0.11306069594E+03  0.38608856305E+03  0.17209479405E+03 0.  0.
         24    2    3    3    0    0  0.21043198964E+03 -0.31023566727E+02  0.57695725679E+01  0.22731083373E+03  0.79955257542E+02 0.  0.
         -6    2    1    2    0  502 -0.32625789203E+03  0.14860259239E+02  0.52830749778E+03  0.64423157061E+03  0.17105690556E+03 0.  0.
        -24    2    5    5    0    0 -0.10390451561E+03 -0.39523731085E+02  0.13378436351E+03  0.18808550202E+03  0.71551565104E+02 0.  0.
         12    1    4    4    0    0  0.37436096304E+02  0.47687888739E+01 -0.28584024221E+02  0.47341832395E+02  0.00000000000E+00 0. -1.
        -11    1    4    4    0    0  0.17299589333E+03 -0.35792355601E+02  0.34353596789E+02  0.17996900134E+03  0.00000000000E+00 0.  1.
          5    1    3    3  501    0  0.11582590239E+03  0.16163307488E+02  0.10729112338E+03  0.15877772932E+03  0.47000000000E+01 0. -1.
         13    1    6    6    0    0 -0.17814686301E+02  0.20355925883E+02  0.32609637436E+02  0.42368800081E+02  0.00000000000E+00 0. -1.
        -14    1    6    6    0    0 -0.86089829307E+02 -0.59879656968E+02  0.10117472607E+03  0.14571670194E+03  0.00000000000E+00 0.  1.
         -5    1    5    5    0  502 -0.22235337642E+03  0.54383990323E+02  0.39452313427E+03  0.45614606858E+03  0.47000000000E+01 0.  1.
</event>
<event>
12    1  0.9749377E-001  0.2200963E+03  0.7818608E-02  0.1133811E+00
         21   -1    0    0  503  502  0.00000000000E+00  0.00000000000E+00  0.59272067106E+03  0.59272067106E+03  0.00000000000E+00 0.  1.
         21   -1    0    0  501  503 -0.00000000000E+00 -0.00000000000E+00 -0.10395433095E+03  0.10395433095E+03  0.00000000000E+00 0. -1.
          6    2    1    2  501    0  0.17200716446E+03  0.48882942110E+02  0.24544211529E+03  0.34885793861E+03  0.17170912239E+03 0.  0.
         24    2    3    3    0    0  0.68915643603E+02 -0.38226629917E+02  0.10504213835E+03  0.15404987220E+03  0.80541114515E+02 0.  0.
         -6    2    1    2    0  502 -0.17200716446E+03 -0.48882942110E+02  0.24332422482E+03  0.34781706341E+03  0.17260945674E+03 0.  0.
        -24    2    5    5    0    0 -0.10663673574E+03 -0.60631263463E+02  0.24276979588E+03  0.28123092823E+03  0.71457103812E+02 0.  0.
         14    1    4    4    0    0  0.78858272157E+02 -0.99158370285E+01  0.58555601089E+02  0.98720359250E+02  0.00000000000E+00 0. -1.
        -13    1    4    4    0    0 -0.99426285548E+01 -0.28310792889E+02  0.46486537261E+02  0.55329512948E+02  0.00000000000E+00 0.  1.
          5    1    3    3  501    0  0.10309152086E+03  0.87109572027E+02  0.14039997695E+03  0.19480806641E+03  0.47000000000E+01 0. -1.
         11    1    6    6    0    0 -0.35634269211E+01 -0.16622377491E+02  0.39973800207E+01  0.17463690672E+02  0.00000000000E+00 0. -1.
        -12    1    6    6    0    0 -0.10307330882E+03 -0.44008885972E+02  0.23877241586E+03  0.26376723756E+03  0.00000000000E+00 0.  1.
         -5    1    5    5    0  502 -0.65370428720E+02  0.11748321353E+02  0.55442893966E+00  0.66586135172E+02  0.47000000000E+01 0.  1.
</event>
<event>
12    1  0.1086579E+000  0.8063298E+03  0.7818608E-02  0.9550900E-01
         21   -1    0    0  501  502  0.00000000000E+00  0.00000000000E+00  0.11795750350E+04  0.11795750350E+04  0.00000000000E+00 0. -1.
         21   -1    0    0  502  503 -0.00000000000E+00 -0.00000000000E+00 -0.59522523647E+03  0.59522523647E+03  0.00000000000E+00 0.  1.
         -6    2    1    2    0  503  0.79370209587E+03  0.81208903634E+02  0.49521443479E+03  0.95424681612E+03  0.16968130905E+03 0.  0.
        -24    2    3    3    0    0  0.24878980905E+03  0.23943958916E+02  0.11441760895E+03  0.28698600745E+03  0.82461487853E+02 0.  0.
          6    2    1    2  501    0 -0.79370209587E+03 -0.81208903634E+02  0.89135363796E+02  0.82055345539E+03  0.16972023172E+03 0.  0.
         24    2    5    5    0    0 -0.31458364881E+03 -0.89233398415E+02  0.25371776510E+02  0.33712118103E+03  0.77983922474E+02 0.  0.
         12    1    6    6    0    0 -0.25450095132E+03 -0.56499958788E+02  0.47952343632E+02  0.26507056952E+03  0.00000000000E+00 0. -1.
        -11    1    6    6    0    0 -0.60082697495E+02 -0.32733439627E+02 -0.22580567122E+02  0.72050611515E+02  0.00000000000E+00 0.  1.
          5    1    5    5  501    0 -0.47911844706E+03  0.80244947812E+01  0.63763587286E+02  0.48343227436E+03  0.47000000000E+01 0. -1.
         13    1    4    4    0    0  0.46550891158E+02 -0.17906559990E+02  0.50063092523E+02  0.70667839866E+02  0.00000000000E+00 0. -1.
        -14    1    4    4    0    0  0.20223891789E+03  0.41850518906E+02  0.64354516423E+02  0.21631816758E+03  0.00000000000E+00 0.  1.
         -5    1    3    3    0  503  0.54491228683E+03  0.57264944718E+02  0.38079682584E+03  0.66726080868E+03  0.47000000000E+01 0.  1.
</event>
<event>
12    1  0.9749377E-001  0.1469442E+03  0.7818608E-02  0.1204279E+00
         21   -1    0    0  503  502  0.00000000000E+00  0.00000000000E+00  0.16044965399E+03  0.16044965399E+03  0.00000000000E+00 0.  1.
         21   -1    0    0  501  503 -0.00000000000E+00 -0.00000000000E+00 -0.27462849594E+03  0.27462849594E+03  0.00000000000E+00 0.  1.
          6    2    1    2  501    0  0.57308817534E+02 -0.56190445687E+01  0.31080031294E+02  0.20295732176E+03  0.19211931678E+03 0.  0.
         24    2    3    3    0    0  0.32559074673E+01  0.12561063998E+02 -0.55123544529E+02  0.99490515880E+02  0.81800833286E+02 0.  0.
         -6    2    1    2    0  502 -0.57308817534E+02  0.56190445687E+01 -0.14525887324E+03  0.23212082817E+03  0.17165099588E+03 0.  0.
        -24    2    5    5    0    0 -0.83345287387E+02  0.52595221276E+02 -0.11052533650E+03  0.16798684720E+03  0.79316055077E+02 0.  0.
         14    1    4    4    0    0 -0.14033859768E+02  0.43196327637E+02 -0.42249118511E+02  0.62031120869E+02  0.00000000000E+00 0. -1.
        -13    1    4    4    0    0  0.17289767236E+02 -0.30635263639E+02 -0.12874426018E+02  0.37459395011E+02  0.00000000000E+00 0.  1.
          5    1    3    3  501    0  0.54052910067E+02 -0.18180108567E+02  0.86203575823E+02  0.10346680588E+03  0.47000000000E+01 0. -1.
         11    1    6    6    0    0 -0.51398865129E+02  0.16564177896E+02 -0.10681529979E+03  0.11969011486E+03  0.00000000000E+00 0. -1.
        -12    1    6    6    0    0 -0.31946422258E+02  0.36031043379E+02 -0.37100367060E+01  0.48296732337E+02  0.00000000000E+00 0.  1.
         -5    1    5    5    0  502  0.26036469853E+02 -0.46976176707E+02 -0.34733536748E+02  0.64133980973E+02  0.47000000000E+01 0.  1.
</event>
<event>
12    1  0.9749377E-001  0.4599938E+03  0.7818608E-02  0.1024783E+00
         21   -1    0    0  501  502  0.00000000000E+00  0.00000000000E+00  0.74930089283E+03  0.74930089283E+03  0.00000000000E+00 0.  1.
         21   -1    0    0  502  503 -0.00000000000E+00 -0.00000000000E+00 -0.10661362852E+04  0.10661362852E+04  0.00000000000E+00 0. -1.
         -6    2    1    2    0  503 -0.26148212564E+03 -0.35659432860E+03 -0.92767217160E+03  0.10419064203E+04  0.17164181722E+03 0.  0.
        -24    2    3    3    0    0 -0.23953760035E+03 -0.21113559897E+03 -0.61276473851E+03  0.69430235581E+03  0.67960528137E+02 0.  0.
          6    2    1    2  501    0  0.26148212564E+03  0.35659432860E+03  0.61083677923E+03  0.77353075777E+03  0.17232482449E+03 0.  0.
         24    2    5    5    0    0  0.21974033475E+03  0.27099897630E+03  0.56192437762E+03  0.66636987651E+03  0.81015716228E+02 0.  0.
         12    1    6    6    0    0  0.22380110255E+03  0.27010874236E+03  0.56166661168E+03  0.66220468805E+03  0.00000000000E+00 0. -1.
        -11    1    6    6    0    0 -0.40607677979E+01  0.89023393639E+00  0.25776594292E+00  0.41651884533E+01  0.00000000000E+00 0.  1.
          5    1    5    5  501    0  0.41741790897E+02  0.85595352296E+02  0.48912401603E+02  0.10716088126E+03  0.47000000000E+01 0. -1.
         13    1    4    4    0    0 -0.16245824458E+03 -0.11372794621E+03 -0.42740667902E+03  0.47117215140E+03  0.00000000000E+00 0. -1.
        -14    1    4    4    0    0 -0.77079355766E+02 -0.97407652761E+02 -0.18535805949E+03  0.22313020441E+03  0.00000000000E+00 0.  1.
         -5    1    3    3    0  503 -0.21944525296E+02 -0.14545872963E+03 -0.31490743309E+03  0.34760406446E+03  0.47000000000E+01 0.  1.
</event>
<event>
12    1  0.9749377E-001  0.1968309E+03  0.7818608E-02  0.1152441E+00
         21   -1    0    0  503  502  0.00000000000E+00  0.00000000000E+00  0.41218619015E+03  0.41218619015E+03  0.00000000000E+00 0.  1.
         21   -1    0    0  501  503 -0.00000000000E+00 -0.00000000000E+00 -0.16490389146E+03  0.16490389146E+03  0.00000000000E+00 0. -1.
          6    2    1    2  501    0 -0.21106989906E+02 -0.14576219988E+03  0.26658318231E+03  0.35026596862E+03  0.17299575645E+03 0.  0.
         24    2    3    3    0    0  0.15881559583E+02 -0.12707143512E+02  0.64288017662E+02  0.10528183759E+03  0.80855554420E+02 0.  0.
         -6    2    1    2    0  502  0.21106989906E+02  0.14576219988E+03 -0.19300883616E+02  0.22682411299E+03  0.17141916517E+03 0.  0.
        -24    2    5    5    0    0  0.42212371948E+02  0.67685060302E+02 -0.68834173927E+02  0.13186562877E+03  0.79292173741E+02 0.  0.
         14    1    4    4    0    0  0.36055238284E+02  0.99901440087E+01  0.64896550123E+02  0.74908914042E+02  0.00000000000E+00 0. -1.
        -13    1    4    4    0    0 -0.20173678701E+02 -0.22697287521E+02 -0.60853246121E+00  0.30372923549E+02  0.00000000000E+00 0.  1.
          5    1    3    3  501    0 -0.36988549490E+02 -0.13305505637E+03  0.20229516465E+03  0.24498413103E+03  0.47000000000E+01 0. -1.
         11    1    6    6    0    0 -0.19076190132E+02  0.66856845598E+01  0.16869138716E+01  0.20284109209E+02  0.00000000000E+00 0. -1.
        -12    1    6    6    0    0  0.61288562080E+02  0.60999375743E+02 -0.70521087799E+02  0.11158151956E+03  0.00000000000E+00 0.  1.
         -5    1    5    5    0  502 -0.21105382041E+02  0.78077139577E+02  0.49533290311E+02  0.94958484217E+02  0.47000000000E+01 0.  1.
</event>
<event>
12    1  0.9749377E-001  0.4686600E+03  0.7818608E-02  0.1022299E+00
         21   -1    0    0  503  502  0.00000000000E+00  0.00000000000E+00  0.20952786978E+03  0.20952786978E+03  0.00000000000E+00 0. -1.
         21   -1    0    0  501  503 -0.00000000000E+00 -0.00000000000E+00 -0.12114367970E+04  0.12114367970E+04  0.00000000000E+00 0.  1.
          6    2    1    2  501    0 -0.17494459826E+03  0.42810359097E+03 -0.62039276732E+03  0.79149430673E+03  0.16642642456E+03 0.  0.
         24    2    3    3    0    0 -0.15776818503E+03  0.37338296600E+03 -0.60367304164E+03  0.73156922688E+03  0.80416124097E+02 0.  0.
         -6    2    1    2    0  502  0.17494459826E+03 -0.42810359097E+03 -0.38151615990E+03  0.62947036004E+03  0.19183340910E+03 0.  0.
        -24    2    5    5    0    0  0.37135117573E+02 -0.78519129411E+02 -0.52803070334E+02  0.13019575225E+03  0.81354158023E+02 0.  0.
         14    1    4    4    0    0 -0.14093036608E+03  0.26967425616E+03 -0.48989729110E+03  0.57670176725E+03  0.00000000000E+00 0. -1.
        -13    1    4    4    0    0 -0.16837818951E+02  0.10370870983E+03 -0.11377575053E+03  0.15486745963E+03  0.00000000000E+00 0.  1.
          5    1    3    3  501    0 -0.17176413227E+02  0.54720624972E+02 -0.16719725683E+02  0.59925079855E+02  0.47000000000E+01 0. -1.
         13    1    6    6    0    0  0.44473164447E+02 -0.59780884511E+02 -0.71105886738E+02  0.10299351260E+03  0.00000000000E+00 0. -1.
        -14    1    6    6    0    0 -0.73380468743E+01 -0.18738244900E+02  0.18302816404E+02  0.27202239654E+02  0.00000000000E+00 0.  1.
         -5    1    5    5    0  502  0.13780948069E+03 -0.34958446156E+03 -0.32871308957E+03  0.49927460779E+03  0.47000000000E+01 0.  1.
</event>
<event>
12    1  0.9749377E-001  0.6661377E+03  0.7818608E-02  0.9776960E-01
         21   -1    0    0  503  502  0.00000000000E+00  0.00000000000E+00  0.54169550533E+03  0.54169550533E+03  0.00000000000E+00 0.  1.
         21   -1    0    0  501  503 -0.00000000000E+00 -0.00000000000E+00 -0.90514412988E+03  0.90514412988E+03  0.00000000000E+00 0. -1.
          6    2    1    2  501    0 -0.62649376863E+03 -0.17213585842E+03  0.19455072905E+02  0.67258536268E+03  0.17282179935E+03 0.  0.
         24    2    3    3    0    0 -0.28326150813E+03 -0.14472590142E+03 -0.19412195331E+01  0.32756423039E+03  0.78178565910E+02 0.  0.
         -6    2    1    2    0  502  0.62649376863E+03  0.17213585842E+03 -0.38290369746E+03  0.77425427253E+03  0.17529757876E+03 0.  0.
        -24    2    5    5    0    0  0.14506028260E+03  0.24277282505E+02 -0.66220357613E+02  0.17931663909E+03  0.78341874244E+02 0.  0.
         12    1    4    4    0    0 -0.25770770116E+03 -0.14342363613E+03  0.17470991512E+02  0.29544683817E+03  0.00000000000E+00 0. -1.
        -11    1    4    4    0    0 -0.25553806968E+02 -0.13022652894E+01 -0.19412211046E+02  0.32117392222E+02  0.00000000000E+00 0.  1.
          5    1    3    3  501    0 -0.34323226050E+03 -0.27409957000E+02  0.21396292438E+02  0.34502113228E+03  0.47000000000E+01 0. -1.
         13    1    6    6    0    0  0.15622818628E+02  0.30390289332E+02 -0.85370253807E+00  0.34181441683E+02  0.00000000000E+00 0. -1.
        -14    1    6    6    0    0  0.12943746397E+03 -0.61130068267E+01 -0.65366655075E+02  0.14513519741E+03  0.00000000000E+00 0.  1.
         -5    1    5    5    0  502  0.48143348604E+03  0.14785857592E+03 -0.31668333984E+03  0.59493763344E+03  0.47000000000E+01 0.  1.
</event>
<event>
12    1  0.9749377E-001  0.3138665E+03  0.7818608E-02  0.1078507E+00
         21   -1    0    0  501  502  0.00000000000E+00  0.00000000000E+00  0.85562390859E+02  0.85562390859E+02  0.00000000000E+00 0. -1.
         21   -1    0    0  502  503 -0.00000000000E+00 -0.00000000000E+00 -0.13004271579E+04  0.13004271579E+04  0.00000000000E+00 0.  1.
         -6    2    1    2    0  503  0.19230341835E+03  0.20398752438E+03 -0.72162132829E+03  0.79306440458E+03  0.17211128246E+03 0.  0.
        -24    2    3    3    0    0  0.19365752575E+03  0.18520243765E+03 -0.51953535893E+03  0.59004829166E+03  0.80229777021E+02 0.  0.
          6    2    1    2  501    0 -0.19230341835E+03 -0.20398752438E+03 -0.49324343870E+03  0.59292514414E+03  0.17227774642E+03 0.  0.
         24    2    5    5    0    0 -0.21696982463E+03 -0.17183325557E+03 -0.42589036099E+03  0.51417963201E+03  0.79972006816E+02 0.  0.
         14    1    6    6    0    0 -0.14689452357E+03 -0.15918201144E+03 -0.31048018778E+03  0.37856949273E+03  0.00000000000E+00 0. -1.
        -13    1    6    6    0    0 -0.70075301059E+02 -0.12651244129E+02 -0.11541017320E+03  0.13561013928E+03  0.00000000000E+00 0.  1.
          5    1    5    5  501    0  0.24666406283E+02 -0.32154268813E+02 -0.67353077718E+02  0.78745512126E+02  0.47000000000E+01 0. -1.
         11    1    4    4    0    0  0.65810380056E+02  0.11841081997E+03 -0.25075239892E+03  0.28500683145E+03  0.00000000000E+00 0. -1.
        -12    1    4    4    0    0  0.12784714570E+03  0.66791617677E+02 -0.26878296001E+03  0.30504146021E+03  0.00000000000E+00 0.  1.
         -5    1    3    3    0  503 -0.13541074057E+01  0.18785086732E+02 -0.20208596936E+03  0.20301611291E+03  0.47000000000E+01 0.  1.
</event>
<event>
12    1  0.9749377E-001  0.4098655E+03  0.7818608E-02  0.1040416E+00
         21   -1    0    0  503  502  0.00000000000E+00  0.00000000000E+00  0.38761049621E+03  0.38761049621E+03  0.00000000000E+00 0.  1.
         21   -1    0    0  501  503 -0.00000000000E+00 -0.00000000000E+00 -0.47110916106E+03  0.47110916106E+03  0.00000000000E+00 0. -1.
          6    2    1    2  501    0  0.36524831867E+03  0.89118718745E+02  0.66626249075E+02  0.41882787614E+03  0.17213149755E+03 0.  0.
         24    2    3    3    0    0  0.25943221290E+03  0.12488979956E+03  0.27739303772E+02  0.30046021596E+03  0.81267073752E+02 0.  0.
         -6    2    1    2    0  502 -0.36524831867E+03 -0.89118718745E+02 -0.15012491393E+03  0.43989178113E+03  0.17210115921E+03 0.  0.
        -24    2    5    5    0    0 -0.30787204260E+03 -0.13469759063E+02 -0.10808251171E+03  0.33594729719E+03  0.78817054808E+02 0.  0.
         12    1    4    4    0    0  0.73595311862E+02  0.75965023285E+02 -0.31977215496E+01  0.10581672889E+03  0.00000000000E+00 0. -1.
        -11    1    4    4    0    0  0.18583690104E+03  0.48924776273E+02  0.30937025322E+02  0.19464348707E+03  0.00000000000E+00 0.  1.
          5    1    3    3  501    0  0.10581610576E+03 -0.35771080814E+02  0.38886945303E+02  0.11836766018E+03  0.47000000000E+01 0. -1.
         11    1    6    6    0    0 -0.42304104711E+02 -0.24956920397E+02 -0.34859825602E+02  0.60230329504E+02  0.00000000000E+00 0. -1.
        -12    1    6    6    0    0 -0.26556793789E+03  0.11487161333E+02 -0.73222686110E+02  0.27571696769E+03  0.00000000000E+00 0.  1.
         -5    1    5    5    0  502 -0.57376276065E+02 -0.75648959681E+02 -0.42042402218E+02  0.10394448393E+03  0.47000000000E+01 0.  1.
</event>
<event>
12    1  0.9749377E-001  0.4730866E+03  0.7818608E-02  0.1021053E+00
         21   -1    0    0  501  502  0.00000000000E+00  0.00000000000E+00  0.24859342537E+03  0.24859342537E+03  0.00000000000E+00 0. -1.
         21   -1    0    0  502  503 -0.00000000000E+00 -0.00000000000E+00 -0.14956687830E+04  0.14956687830E+04  0.00000000000E+00 0.  1.
         -6    2    1    2    0  503 -0.86198519031E+02 -0.44851199935E+03 -0.10058885817E+03  0.49812117002E+03  0.17150330432E+03 0.  0.
        -24    2    3    3    0    0 -0.84678039036E+02 -0.42398888249E+03 -0.13081839692E+03  0.45888330396E+03  0.80768130542E+02 0.  0.
          6    2    1    2  501    0  0.86198519031E+02  0.44851199935E+03 -0.11464864995E+04  0.12461410384E+04  0.17275125397E+03 0.  0.
         24    2    5    5    0    0  0.11859556604E+03  0.25208485425E+03 -0.66362428803E+03  0.72382772507E+03  0.76926574714E+02 0.  0.
         14    1    6    6    0    0  0.45593977699E+02  0.28616171526E+02 -0.13096234994E+03  0.14159390233E+03  0.00000000000E+00 0. -1.
        -13    1    6    6    0    0  0.73001588344E+02  0.22346868272E+03 -0.53266193809E+03  0.58223382274E+03  0.00000000000E+00 0.  1.
          5    1    5    5  501    0 -0.32397047012E+02  0.19642714511E+03 -0.48286221147E+03  0.52231331331E+03  0.47000000000E+01 0. -1.
         11    1    4    4    0    0 -0.45152246843E+02 -0.16310279420E+03 -0.12474695374E+02  0.16969639035E+03  0.00000000000E+00 0. -1.
        -12    1    4    4    0    0 -0.39525792193E+02 -0.26088608828E+03 -0.11834370155E+03  0.28918691361E+03  0.00000000000E+00 0.  1.
         -5    1    3    3    0  503 -0.15204799945E+01 -0.24523116863E+02  0.30229538753E+02  0.39237866065E+02  0.47000000000E+01 0.  1.
</event>
<event>
12    1  0.9749377E-001  0.4082674E+03  0.7818608E-02  0.1040954E+00
         21   -1    0    0  503  502  0.00000000000E+00  0.00000000000E+00  0.52871724593E+03  0.52871724593E+03  0.00000000000E+00 0. -1.
         21   -1    0    0  501  503 -0.00000000000E+00 -0.00000000000E+00 -0.35998509498E+03  0.35998509498E+03  0.00000000000E+00 0.  1.
          6    2    1    2  501    0  0.28757745595E+03  0.26919558799E+03  0.12287269458E+02  0.43120799067E+03  0.17499227543E+03 0.  0.
         24    2    3    3    0    0  0.13246577030E+03  0.63702083182E+02  0.39532671818E+02  0.17226471987E+03  0.80667006060E+02 0.  0.
         -6    2    1    2    0  502 -0.28757745595E+03 -0.26919558799E+03  0.15644488149E+03  0.45749435023E+03  0.17221794851E+03 0.  0.
        -24    2    5    5    0    0 -0.13781224966E+03 -0.12154367725E+03  0.90619058617E+01  0.20063926411E+03  0.80055696430E+02 0.  0.
         14    1    4    4    0    0  0.17841960875E+02  0.14922118787E+01 -0.21746083521E+02  0.28168322858E+02  0.00000000000E+00 0. -1.
        -13    1    4    4    0    0  0.11462380943E+03  0.62209871304E+02  0.61278755339E+02  0.14409639701E+03  0.00000000000E+00 0.  1.
          5    1    3    3  501    0  0.15511168565E+03  0.20549350481E+03 -0.27245402359E+02  0.25894327080E+03  0.47000000000E+01 0. -1.
         11    1    6    6    0    0 -0.10550628720E+03 -0.40349559906E+02  0.81020067537E+01  0.11324886814E+03  0.00000000000E+00 0. -1.
        -12    1    6    6    0    0 -0.32305962466E+02 -0.81194117340E+02  0.95989910807E+00  0.87390395970E+02  0.00000000000E+00 0.  1.
         -5    1    5    5    0  502 -0.14976520629E+03 -0.14765191075E+03  0.14738297563E+03  0.25685508612E+03  0.47000000000E+01 0.  1.
</event>
<event>
12    1  0.9749377E-001  0.4059818E+03  0.7818608E-02  0.1041728E+00
         21   -1    0    0  503  502  0.00000000000E+00  0.00000000000E+00  0.13992836496E+04  0.13992836496E+04  0.00000000000E+00 0. -1.
         21   -1    0    0  501  503 -0.00000000000E+00 -0.00000000000E+00 -0.21604936776E+03  0.21604936776E+03  0.00000000000E+00 0.  1.
          6    2    1    2  501    0  0.32106017963E+03  0.21948478487E+03  0.11040510873E+04  0.11830128613E+04  0.17128168896E+03 0.  0.
         24    2    3    3    0    0  0.12699296573E+03  0.16607822283E+03  0.55926492343E+03  0.60221306904E+03  0.78575673720E+02 0.  0.
         -6    2    1    2    0  502 -0.32106017963E+03 -0.21948478487E+03  0.79183194615E+02  0.43232015610E+03  0.17139874366E+03 0.  0.
        -24    2    5    5    0    0 -0.29775922474E+03 -0.20278066969E+03  0.11382356512E+03  0.38710945791E+03  0.84364521589E+02 0.  0.
         14    1    4    4    0    0 -0.41625181647E+01  0.25117084262E+02  0.31995985503E+02  0.40889333176E+02  0.00000000000E+00 0. -1.
        -13    1    4    4    0    0  0.13115548389E+03  0.14096113857E+03  0.52726893792E+03  0.56132373586E+03  0.00000000000E+00 0.  1.
          5    1    3    3  501    0  0.19406721390E+03  0.53406562036E+02  0.54478616384E+03  0.58079979226E+03  0.47000000000E+01 0. -1.
         11    1    6    6    0    0 -0.42303256097E+02 -0.51642272194E+02  0.50261464897E+02  0.83562578989E+02  0.00000000000E+00 0. -1.
        -12    1    6    6    0    0 -0.25545596864E+03 -0.15113839750E+03  0.63562100224E+02  0.30354687892E+03  0.00000000000E+00 0.  1.
         -5    1    5    5    0  502 -0.23300954887E+02 -0.16704115175E+02 -0.34640370506E+02  0.45210698194E+02  0.47000000000E+01 0.  1.
</event>
<event>
12    1  0.9749377E-001  0.3688739E+03  0.7818608E-02  0.1055124E+00
         21   -1    0    0  503  502  0.00000000000E+00  0.00000000000E+00  0.86562082780E+03  0.86562082780E+03  0.00000000000E+00 0. -1.
         21   -1    0    0  501  503 -0.00000000000E+00 -0.00000000000E+00 -0.17334987002E+03  0.17334987002E+03  0.00000000000E+00 0.  1.
          6    2    1    2  501    0  0.34024122265E+03 -0.27468458052E+02  0.26183640836E+03  0.46362386100E+03  0.17282989894E+03 0.  0.
         24    2    3    3    0    0  0.17126092966E+03  0.14118828104E+02  0.63907938986E+02  0.20003021393E+03  0.79988839737E+02 0.  0.
         -6    2    1    2    0  502 -0.34024122265E+03  0.27468458052E+02  0.43043454942E+03  0.57534683682E+03  0.17097214841E+03 0.  0.
        -24    2    5    5    0    0 -0.74935200155E+02  0.64808882997E+01  0.17722277325E+03  0.20796956854E+03  0.78652043506E+02 0.  0.
         12    1    4    4    0    0  0.13799673071E+03  0.43240141308E+02  0.41410553526E+02  0.15042486979E+03  0.00000000000E+00 0. -1.
        -11    1    4    4    0    0  0.33264198950E+02 -0.29121313205E+02  0.22497385460E+02  0.49605344138E+02  0.00000000000E+00 0.  1.
          5    1    3    3  501    0  0.16898029299E+03 -0.41587286155E+02  0.19792846937E+03  0.26359364707E+03  0.47000000000E+01 0. -1.
         11    1    6    6    0    0 -0.73781864673E+02 -0.24436678550E+02  0.12147699637E+03  0.14421364520E+03  0.00000000000E+00 0. -1.
        -12    1    6    6    0    0 -0.11533354822E+01  0.30917566849E+02  0.55745776874E+02  0.63755923348E+02  0.00000000000E+00 0.  1.
         -5    1    5    5    0  502 -0.26530602249E+03  0.20987569752E+02  0.25321177617E+03  0.36737726828E+03  0.47000000000E+01 0.  1.
</event>
<event>
12    1  0.9749377E-001  0.3071150E+03  0.7818608E-02  0.1081737E+00
         21   -1    0    0  503  502  0.00000000000E+00  0.00000000000E+00  0.29049327678E+03  0.29049327678E+03  0.00000000000E+00 0.  1.
         21   -1    0    0  501  503 -0.00000000000E+00 -0.00000000000E+00 -0.39191065082E+03  0.39191065082E+03  0.00000000000E+00 0. -1.
          6    2    1    2  501    0 -0.27800987672E+03 -0.77931512377E+02 -0.25684424853E+02  0.33651320864E+03  0.17093460076E+03 0.  0.
         24    2    3    3    0    0 -0.19250550398E+03 -0.30360825377E+02 -0.79088739848E+02  0.22494224970E+03  0.79773668273E+02 0.  0.
         -6    2    1    2    0  502  0.27800987672E+03  0.77931512377E+02 -0.75732949186E+02  0.34589071895E+03  0.17476297574E+03 0.  0.
        -24    2    5    5    0    0  0.21217759564E+03  0.24625108432E+01 -0.91736009132E+02  0.24436413449E+03  0.79201886368E+02 0.  0.
         14    1    4    4    0    0 -0.41552241418E+02  0.69532504692E+01 -0.52294462299E+02  0.67153907154E+02  0.00000000000E+00 0. -1.
        -13    1    4    4    0    0 -0.15095326256E+03 -0.37314075846E+02 -0.26794277549E+02  0.15778834255E+03  0.00000000000E+00 0.  1.
          5    1    3    3  501    0 -0.85504372736E+02 -0.47570687001E+02  0.53404314995E+02  0.11157095894E+03  0.47000000000E+01 0. -1.
         11    1    6    6    0    0  0.11012128457E+03  0.27082227654E+02 -0.15141430136E+02  0.11440894754E+03  0.00000000000E+00 0. -1.
        -12    1    6    6    0    0  0.10205631106E+03 -0.24619716811E+02 -0.76594578996E+02  0.12995518695E+03  0.00000000000E+00 0.  1.
         -5    1    5    5    0  502  0.65832281083E+02  0.75469001534E+02  0.16003059946E+02  0.10152658446E+03  0.47000000000E+01 0.  1.
</event>
<event>
12    1  0.9749377E-001  0.1082082E+04  0.7818608E-02  0.9222834E-01
         21   -1    0    0  501  502  0.00000000000E+00  0.00000000000E+00  0.60304758405E+03  0.60304758405E+03  0.00000000000E+00 0.  1.
         21   -1    0    0  502  503 -0.00000000000E+00 -0.00000000000E+00 -0.20147338114E+04  0.20147338114E+04  0.00000000000E+00 0. -1.
         -6    2    1    2    0  503 -0.88349266159E+03  0.61404560334E+03 -0.90644265111E+03  0.14167368743E+04  0.16701438583E+03 0.  0.
        -24    2    3    3    0    0 -0.51328151882E+03  0.31953329544E+03 -0.58253297889E+03  0.84338414208E+03  0.79954331782E+02 0.  0.
          6    2    1    2  501    0  0.88349266159E+03 -0.61404560334E+03 -0.50524357624E+03  0.12010445212E+04  0.17212084269E+03 0.  0.
         24    2    5    5    0    0  0.50780930566E+03 -0.42849168292E+03 -0.27912792903E+03  0.72489473675E+03  0.78003624044E+02 0.  0.
         12    1    6    6    0    0  0.40550850693E+03 -0.36399057586E+03 -0.25478048642E+03  0.60153086768E+03  0.00000000000E+00 0. -1.
        -11    1    6    6    0    0  0.10230079873E+03 -0.64501107059E+02 -0.24347442615E+02  0.12336386908E+03  0.00000000000E+00 0.  1.
          5    1    5    5  501    0  0.37568335593E+03 -0.18555392042E+03 -0.22611564721E+03  0.47614978444E+03  0.47000000000E+01 0. -1.
         11    1    4    4    0    0 -0.37193790675E+02  0.37590153139E+02 -0.80185109647E+02  0.96052326817E+02  0.00000000000E+00 0. -1.
        -12    1    4    4    0    0 -0.47608772814E+03  0.28194314230E+03 -0.50234786924E+03  0.74733181527E+03  0.00000000000E+00 0.  1.
         -5    1    3    3    0  503 -0.37021114277E+03  0.29451230790E+03 -0.32390967222E+03  0.57335273218E+03  0.47000000000E+01 0.  1.
</event>
<event>
12    1  0.9749377E-001  0.3674464E+03  0.7818608E-02  0.1055674E+00
         21   -1    0    0  503  502  0.00000000000E+00  0.00000000000E+00  0.94622883768E+03  0.94622883768E+03  0.00000000000E+00 0.  1.
         21   -1    0    0  501  503 -0.00000000000E+00 -0.00000000000E+00 -0.21031884399E+03  0.21031884399E+03  0.00000000000E+00 0. -1.
          6    2    1    2  501    0  0.25963846081E+03 -0.21672524074E+03  0.66964234219E+03  0.76997805501E+03  0.17338794204E+03 0.  0.
         24    2    3    3    0    0  0.19951270278E+03 -0.23193081352E+03  0.58384551132E+03  0.66400870845E+03  0.80216974413E+02 0.  0.
         -6    2    1    2    0  502 -0.25963846081E+03  0.21672524074E+03  0.66267651504E+02  0.38656962665E+03  0.17510772202E+03 0.  0.
        -24    2    5    5    0    0 -0.89267020165E+02  0.87979684993E+02 -0.27598232376E+02  0.15325708934E+03  0.83767816864E+02 0.  0.
         12    1    4    4    0    0  0.11162258179E+03 -0.18638315421E+03  0.39645364202E+03  0.45207717395E+03  0.00000000000E+00 0. -1.
        -11    1    4    4    0    0  0.87890120987E+02 -0.45547659310E+02  0.18739186930E+03  0.21193153450E+03  0.00000000000E+00 0.  1.
          5    1    3    3  501    0  0.60125758036E+02  0.15205572786E+02  0.85796830871E+02  0.10596934656E+03  0.47000000000E+01 0. -1.
         11    1    6    6    0    0 -0.95770888741E+02  0.57535485752E+02 -0.41473172811E+02  0.11917390366E+03  0.00000000000E+00 0. -1.
        -12    1    6    6    0    0  0.65038685762E+01  0.30444199241E+02  0.13874940435E+02  0.34083185678E+02  0.00000000000E+00 0.  1.
         -5    1    5    5    0  502 -0.17037144065E+03  0.12874555574E+03  0.93865883880E+02  0.23331253731E+03  0.47000000000E+01 0.  1.
</event>
<event>
12    1  0.9749377E-001  0.4025296E+03  0.7818608E-02  0.1042907E+00
         21   -1    0    0  501  502  0.00000000000E+00  0.00000000000E+00  0.20601493832E+03  0.20601493832E+03  0.00000000000E+00 0.  1.
         21   -1    0    0  502  503 -0.00000000000E+00 -0.00000000000E+00 -0.86927432728E+03  0.86927432728E+03  0.00000000000E+00 0. -1.
         -6    2    1    2    0  503  0.16367015658E+03  0.34109988584E+03 -0.43291615791E+03  0.60017962161E+03  0.17222696113E+03 0.  0.
        -24    2    3    3    0    0  0.27520129553E+02  0.61032921111E+02 -0.99383067876E+02  0.14384559182E+03  0.79575028221E+02 0.  0.
          6    2    1    2  501    0 -0.16367015658E+03 -0.34109988584E+03 -0.23034323106E+03  0.47510964399E+03  0.17185493140E+03 0.  0.
         24    2    5    5    0    0 -0.10466380627E+02 -0.95749465771E+02 -0.86886430004E+02  0.15220072593E+03  0.79613465801E+02 0.  0.
         14    1    6    6    0    0 -0.40723285857E+02 -0.82039429858E+02 -0.67055047894E+02  0.11351314246E+03  0.00000000000E+00 0. -1.
        -13    1    6    6    0    0  0.30256905230E+02 -0.13710035913E+02 -0.19831382111E+02  0.38687583476E+02  0.00000000000E+00 0.  1.
          5    1    5    5  501    0 -0.15320377595E+03 -0.24535042007E+03 -0.14345680105E+03  0.32290891806E+03  0.47000000000E+01 0. -1.
         13    1    4    4    0    0  0.14890430883E+02 -0.21833327533E+01  0.91484512636E+01  0.17612099089E+02  0.00000000000E+00 0. -1.
        -14    1    4    4    0    0  0.12629698670E+02  0.63216253864E+02 -0.10853151914E+03  0.12623349273E+03  0.00000000000E+00 0.  1.
         -5    1    3    3    0  503  0.13615002703E+03  0.28006696473E+03 -0.33353309003E+03  0.45633402979E+03  0.47000000000E+01 0.  1.
</event>
<event>
12    1  0.9749377E-001  0.2898021E+03  0.7818608E-02  0.1090453E+00
         21   -1    0    0  503  502  0.00000000000E+00  0.00000000000E+00  0.37716566723E+03  0.37716566723E+03  0.00000000000E+00 0. -1.
         21   -1    0    0  501  503 -0.00000000000E+00 -0.00000000000E+00 -0.28007666996E+03  0.28007666996E+03  0.00000000000E+00 0.  1.
          6    2    1    2  501    0 -0.25755282960E+03 -0.18015155972E+02 -0.48947138991E+02  0.31424298704E+03  0.17232186921E+03 0.  0.
         24    2    3    3    0    0 -0.42132999879E+02  0.20137427452E+02 -0.17017363053E+02  0.93102933565E+02  0.78726488109E+02 0.  0.
         -6    2    1    2    0  502  0.25755282960E+03  0.18015155972E+02  0.14603613627E+03  0.34299935015E+03  0.17223238729E+03 0.  0.
        -24    2    5    5    0    0  0.18665923246E+03 -0.42343316473E+01  0.31018849130E+02  0.20598837193E+03  0.81298473183E+02 0.  0.
         12    1    4    4    0    0  0.16427881684E+02  0.26924083874E+02 -0.12670579734E+02  0.33990074726E+02  0.00000000000E+00 0. -1.
        -11    1    4    4    0    0 -0.58560881563E+02 -0.67866564225E+01 -0.43467833188E+01  0.59112858839E+02  0.00000000000E+00 0.  1.
          5    1    3    3  501    0 -0.21541982972E+03 -0.38152583423E+02 -0.31929775938E+02  0.22114005347E+03  0.47000000000E+01 0. -1.
         13    1    6    6    0    0  0.62538638918E+02  0.26573158621E+02  0.38105623327E+02  0.77905408323E+02  0.00000000000E+00 0. -1.
        -14    1    6    6    0    0  0.12412059354E+03 -0.30807490269E+02 -0.70867741964E+01  0.12808296360E+03  0.00000000000E+00 0.  1.
         -5    1    5    5    0  502  0.70893597140E+02  0.22249487619E+02  0.11501728713E+03  0.13701097823E+03  0.47000000000E+01 0.  1.
</event>
<event>
12    1  0.9749377E-001  0.3543104E+03  0.7818608E-02  0.1060860E+00
         21   -1    0    0  501  502  0.00000000000E+00  0.00000000000E+00  0.66727909964E+03  0.66727909964E+03  0.00000000000E+00 0. -1.
         21   -1    0    0  502  503 -0.00000000000E+00 -0.00000000000E+00 -0.20106099024E+03  0.20106099024E+03  0.00000000000E+00 0.  1.
         -6    2    1    2    0  503  0.31658398772E+03 -0.56987522964E+02  0.27358327308E+03  0.45602875041E+03  0.17216682270E+03 0.  0.
        -24    2    3    3    0    0  0.21702111409E+03 -0.98096486846E+02  0.22658493186E+03  0.33841222608E+03  0.80380462340E+02 0.  0.
          6    2    1    2  501    0 -0.31658398772E+03  0.56987522964E+02  0.19263483632E+03  0.41231133947E+03  0.17152102331E+03 0.  0.
         24    2    5    5    0    0 -0.29181155295E+03  0.58258339972E+01  0.13635231783E+03  0.33218017306E+03  0.81017220512E+02 0.  0.
         14    1    6    6    0    0 -0.23946433957E+03 -0.12223539565E+02  0.13824783238E+03  0.27677616950E+03  0.00000000000E+00 0. -1.
        -13    1    6    6    0    0 -0.52347213388E+02  0.18049373563E+02 -0.18955145557E+01  0.55404003564E+02  0.00000000000E+00 0.  1.
          5    1    5    5  501    0 -0.24772434767E+02  0.51161688966E+02  0.56282518486E+02  0.80131166405E+02  0.47000000000E+01 0. -1.
         13    1    4    4    0    0  0.52184645491E+02  0.77005899564E+01  0.69985468595E+02  0.87638474000E+02  0.00000000000E+00 0. -1.
        -14    1    4    4    0    0  0.16483646860E+03 -0.10579707680E+03  0.15659946327E+03  0.25077375208E+03  0.00000000000E+00 0.  1.
         -5    1    3    3    0  503  0.99562873635E+02  0.41108963882E+02  0.46998341215E+02  0.11761652433E+03  0.47000000000E+01 0.  1.
</event>
<event>
12    1  0.9749377E-001  0.8406902E+03  0.7818608E-02  0.9502918E-01
         21   -1    0    0  501  502  0.00000000000E+00  0.00000000000E+00  0.88813162419E+03  0.88813162419E+03  0.00000000000E+00 0. -1.
         21   -1    0    0  502  503 -0.00000000000E+00 -0.00000000000E+00 -0.97753997366E+03  0.97753997366E+03  0.00000000000E+00 0.  1.
         -6    2    1    2    0  503  0.86290552301E+02 -0.82131323475E+03 -0.44086447214E+03  0.95217499654E+03  0.17399497763E+03 0.  0.
        -24    2    3    3    0    0  0.97055716626E+02 -0.34567990448E+03 -0.17555888645E+03  0.40742542341E+03  0.79121075164E+02 0.  0.
          6    2    1    2  501    0 -0.86290552301E+02  0.82131323475E+03  0.35145612266E+03  0.91349660131E+03  0.17015623834E+03 0.  0.
         24    2    5    5    0    0 -0.12483528947E+03  0.71030495668E+03  0.30513774832E+03  0.78710033409E+03  0.79378268401E+02 0.  0.
         12    1    6    6    0    0 -0.65222583685E+02  0.17239753729E+03  0.74784545652E+02  0.19891612442E+03  0.00000000000E+00 0. -1.
        -11    1    6    6    0    0 -0.59612705789E+02  0.53790741939E+03  0.23035320266E+03  0.58818420967E+03  0.00000000000E+00 0.  1.
          5    1    5    5  501    0  0.38544737173E+02  0.11100827807E+03  0.46318374349E+02  0.12639626722E+03  0.47000000000E+01 0. -1.
         13    1    4    4    0    0  0.10302135970E+03 -0.32359374982E+03 -0.14501491963E+03  0.36926364889E+03  0.00000000000E+00 0. -1.
        -14    1    4    4    0    0 -0.59656430789E+01 -0.22086154665E+02 -0.30543966822E+02  0.38161774519E+02  0.00000000000E+00 0.  1.
         -5    1    3    3    0  503 -0.10765164324E+02 -0.47563333027E+03 -0.26530558569E+03  0.54474957313E+03  0.47000000000E+01 0.  1.
</event>
<event>
12    1  0.9749377E-001  0.3717741E+03  0.7818608E-02  0.1054017E+00
         21   -1    0    0  503  502  0.00000000000E+00  0.00000000000E+00  0.10706060713E+04  0.10706060713E+04  0.00000000000E+00 0. -1.
         21   -1    0    0  501  503 -0.00000000000E+00 -0.00000000000E+00 -0.14395774103E+03  0.14395774103E+03  0.00000000000E+00 0.  1.
          6    2    1    2  501    0  0.33525543650E+03 -0.76885566903E+02  0.33826881237E+03  0.51191697711E+03  0.17124720122E+03 0.  0.
         24    2    3    3    0    0  0.10558784265E+03  0.34721664812E+01  0.72582454135E+02  0.15161724087E+03  0.80985965605E+02 0.  0.
         -6    2    1    2    0  502 -0.33525543650E+03  0.76885566903E+02  0.58837951788E+03  0.70264683519E+03  0.17092255511E+03 0.  0.
        -24    2    5    5    0    0 -0.22836296485E+03 -0.14181208955E+02  0.39859191724E+03  0.46651004958E+03  0.80033489687E+02 0.  0.
         12    1    4    4    0    0  0.23680901621E+02  0.31209958035E+02  0.72752942810E+00  0.39183872719E+02  0.00000000000E+00 0. -1.
        -11    1    4    4    0    0  0.81906941031E+02 -0.27737791554E+02  0.71854924707E+02  0.11243336815E+03  0.00000000000E+00 0.  1.
          5    1    3    3  501    0  0.22966759385E+03 -0.80357733384E+02  0.26568635823E+03  0.36029973624E+03  0.47000000000E+01 0. -1.
         11    1    6    6    0    0 -0.55604880784E+02  0.17693695526E+02  0.15934196893E+03  0.16969040247E+03  0.00000000000E+00 0. -1.
        -12    1    6    6    0    0 -0.17275808407E+03 -0.31874904481E+02  0.23924994831E+03  0.29681964711E+03  0.00000000000E+00 0.  1.
         -5    1    5    5    0  502 -0.10689247165E+03  0.91066775857E+02  0.18978760064E+03  0.23613678561E+03  0.47000000000E+01 0.  1.
</event>
<event>
12    1  0.9749377E-001  0.3674311E+03  0.7818608E-02  0.1055680E+00
         21   -1    0    0  503  502  0.00000000000E+00  0.00000000000E+00  0.33995329328E+03  0.33995329328E+03  0.00000000000E+00 0. -1.
         21   -1    0    0  501  503 -0.00000000000E+00 -0.00000000000E+00 -0.55035489715E+03  0.55035489715E+03  0.00000000000E+00 0.  1.
          6    2    1    2  501    0  0.24515337152E+03  0.24983147430E+03  0.86066939496E+02  0.40029111471E+03  0.17409628749E+03 0.  0.
         24    2    3    3    0    0  0.16774060096E+03  0.25196762989E+03  0.74390238390E+02  0.32183261895E+03  0.80110744160E+02 0.  0.
         -6    2    1    2    0  502 -0.24515337152E+03 -0.24983147430E+03 -0.29646854337E+03  0.49001707573E+03  0.17235775635E+03 0.  0.
        -24    2    5    5    0    0 -0.43382645817E+02 -0.29735336126E+02 -0.64147147802E+02  0.11166663416E+03  0.74755176687E+02 0.  0.
         12    1    4    4    0    0  0.10298698745E+03  0.18846956919E+03  0.19109663579E+02  0.21562067929E+03  0.00000000000E+00 0. -1.
        -11    1    4    4    0    0  0.64753613508E+02  0.63498060699E+02  0.55280574811E+02  0.10621193966E+03  0.00000000000E+00 0.  1.
          5    1    3    3  501    0  0.77412770565E+02 -0.21361555923E+01  0.11676701106E+02  0.78458495754E+02  0.47000000000E+01 0. -1.
         13    1    6    6    0    0 -0.15086933676E+02 -0.59229174189E+01  0.16386156723E+02  0.23047833969E+02  0.00000000000E+00 0. -1.
        -14    1    6    6    0    0 -0.28295712141E+02 -0.23812418707E+02 -0.80533304525E+02  0.88618800195E+02  0.00000000000E+00 0.  1.
         -5    1    5    5    0  502 -0.20177072571E+03 -0.22009613818E+03 -0.23232139557E+03  0.37835044156E+03  0.47000000000E+01 0.  1.
</event>
<event>
12    1  0.9749377E-001  0.2911499E+03  0.7818608E-02  0.1089750E+00
         21   -1    0    0  501  502  0.00000000000E+00  0.00000000000E+00  0.20085634112E+03  0.20085634112E+03  0.00000000000E+00 0.  1.
         21   -1    0    0  502  503 -0.00000000000E+00 -0.00000000000E+00 -0.55319575352E+03  0.55319575352E+03  0.00000000000E+00 0. -1.
         -6    2    1    2    0  503 -0.26171016643E+03  0.92559918512E+02 -0.10728492594E+03  0.34318280667E+03  0.17089421794E+03 0.  0.
        -24    2    3    3    0    0 -0.21312698761E+03  0.85555880264E+02 -0.14296757465E+03  0.28231636899E+03  0.80745794339E+02 0.  0.
          6    2    1    2  501    0  0.26171016643E+03 -0.92559918512E+02 -0.24505448646E+03  0.41086928798E+03  0.17805145531E+03 0.  0.
         24    2    5    5    0    0  0.20763929313E+03 -0.93908685876E+02 -0.10986302388E+03  0.26518366732E+03  0.79495761282E+02 0.  0.
         12    1    6    6    0    0  0.11306438907E+03 -0.78908234937E+01 -0.46601503459E+02  0.12254599665E+03  0.00000000000E+00 0. -1.
        -11    1    6    6    0    0  0.94574904061E+02 -0.86017862383E+02 -0.63261520425E+02  0.14263767067E+03  0.00000000000E+00 0.  1.
          5    1    5    5  501    0  0.54070873305E+02  0.13487673638E+01 -0.13519146258E+03  0.14568562066E+03  0.47000000000E+01 0. -1.
         13    1    4    4    0    0 -0.11599950554E+03  0.13923717907E+02 -0.39437486606E+02  0.12330884217E+03  0.00000000000E+00 0. -1.
        -14    1    4    4    0    0 -0.97127482069E+02  0.71632162357E+02 -0.10353008804E+03  0.15900752683E+03  0.00000000000E+00 0.  1.
         -5    1    3    3    0  503 -0.48583178823E+02  0.70040382481E+01  0.35682648708E+02  0.60866437674E+02  0.47000000000E+01 0.  1.
</event>
<event>
12    1  0.9749377E-001  0.3995158E+03  0.7818608E-02  0.1043947E+00
         21   -1    0    0  501  502  0.00000000000E+00  0.00000000000E+00  0.12945334500E+03  0.12945334500E+03  0.00000000000E+00 0.  1.
         21   -1    0    0  502  503 -0.00000000000E+00 -0.00000000000E+00 -0.14223146926E+04  0.14223146926E+04  0.00000000000E+00 0. -1.
         -6    2    1    2    0  503 -0.37467641599E+03 -0.82672595839E+02 -0.79912791203E+03  0.90324281561E+03  0.17327720382E+03 0.  0.
        -24    2    3    3    0    0 -0.29054924406E+03 -0.10165017840E+03 -0.50619142656E+03  0.59783914140E+03  0.80188881272E+02 0.  0.
          6    2    1    2  501    0  0.37467641599E+03  0.82672595839E+02 -0.49373343556E+03  0.64852522198E+03  0.17203221602E+03 0.  0.
         24    2    5    5    0    0  0.81860385811E+02  0.55215399994E+01 -0.98931693902E+02  0.15094706916E+03  0.79157611511E+02 0.  0.
         14    1    6    6    0    0 -0.38956410712E+01  0.14068911758E+02  0.54529259543E+01  0.15583475186E+02  0.00000000000E+00 0. -1.
        -13    1    6    6    0    0  0.85756026882E+02 -0.85473717589E+01 -0.10438461986E+03  0.13536359397E+03  0.00000000000E+00 0.  1.
          5    1    5    5  501    0  0.29281603017E+03  0.77151055839E+02 -0.39480174166E+03  0.49757815282E+03  0.47000000000E+01 0. -1.
         13    1    4    4    0    0 -0.90404843136E+02 -0.18340097929E+02 -0.22197587278E+03  0.24038028819E+03  0.00000000000E+00 0. -1.
        -14    1    4    4    0    0 -0.20014440093E+03 -0.83310080476E+02 -0.28421555378E+03  0.35745885321E+03  0.00000000000E+00 0.  1.
         -5    1    3    3    0  503 -0.84127171922E+02  0.18977582566E+02 -0.29293648548E+03  0.30540367421E+03  0.47000000000E+01 0.  1.
</event>
<event>
12    1  0.9749377E-001  0.3157730E+03  0.7818608E-02  0.1077611E+00
         21   -1    0    0  501  502  0.00000000000E+00  0.00000000000E+00  0.70692999941E+03  0.70692999941E+03  0.00000000000E+00 0.  1.
         21   -1    0    0  502  503 -0.00000000000E+00 -0.00000000000E+00 -0.30416931092E+03  0.30416931092E+03  0.00000000000E+00 0. -1.
         -6    2    1    2    0  503  0.71876774760E+02  0.27808623109E+03  0.55307397164E+03  0.64666054977E+03  0.17257121963E+03 0.  0.
        -24    2    3    3    0    0  0.21702381317E+02  0.22490721541E+03  0.30525741879E+03  0.38824110132E+03  0.80590397270E+02 0.  0.
          6    2    1    2  501    0 -0.71876774760E+02 -0.27808623109E+03 -0.15031328315E+03  0.36443876056E+03  0.16650316644E+03 0.  0.
         24    2    5    5    0    0 -0.33665529128E+02 -0.27070241822E+03 -0.10057655280E+03  0.30111062833E+03  0.78350497390E+02 0.  0.
         14    1    6    6    0    0 -0.51499730036E+02 -0.20354433088E+03 -0.97670002597E+02  0.23156412985E+03  0.00000000000E+00 0. -1.
        -13    1    6    6    0    0  0.17834200908E+02 -0.67158087336E+02 -0.29065502072E+01  0.69546498479E+02  0.00000000000E+00 0.  1.
          5    1    5    5  501    0 -0.38211245633E+02 -0.73838128712E+01 -0.49736730349E+02  0.63328132225E+02  0.47000000000E+01 0. -1.
         13    1    4    4    0    0 -0.28982744293E+02  0.52916007448E+02  0.69223418751E+02  0.91825840669E+02  0.00000000000E+00 0. -1.
        -14    1    4    4    0    0  0.50685125610E+02  0.17199120796E+03  0.23603400004E+03  0.29641526065E+03  0.00000000000E+00 0.  1.
         -5    1    3    3    0  503  0.50174393444E+02  0.53179015680E+02  0.24781655285E+03  0.25841944845E+03  0.47000000000E+01 0.  1.
</event>
<event>
12    1  0.9749377E-001  0.1032319E+04  0.7818608E-02  0.9273791E-01
         21   -1    0    0  503  502  0.00000000000E+00  0.00000000000E+00  0.11683233598E+04  0.11683233598E+04  0.00000000000E+00 0.  1.
         21   -1    0    0  501  503 -0.00000000000E+00 -0.00000000000E+00 -0.93729466161E+03  0.93729466161E+03  0.00000000000E+00 0. -1.
          6    2    1    2  501    0  0.13565733580E+03  0.10184524009E+04  0.15921368515E+02  0.10419913977E+04  0.17275525225E+03 0.  0.
         24    2    3    3    0    0  0.39344302192E+02  0.57680737799E+03  0.68323542558E+02  0.58691491558E+03  0.74473392857E+02 0.  0.
         -6    2    1    2    0  502 -0.13565733580E+03 -0.10184524009E+04  0.21510732967E+03  0.10636266237E+04  0.17141244325E+03 0.  0.
        -24    2    5    5    0    0 -0.72802982198E+02 -0.44847743964E+03  0.15921378875E+03  0.48745971719E+03  0.76391473845E+02 0.  0.
         14    1    4    4    0    0  0.16253965864E+02  0.43160608201E+02  0.21002598645E+02  0.50676805902E+02  0.00000000000E+00 0. -1.
        -13    1    4    4    0    0  0.23090336328E+02  0.53364676979E+03  0.47320943914E+02  0.53623810967E+03  0.00000000000E+00 0.  1.
          5    1    3    3  501    0  0.96313033605E+02  0.44164502294E+03 -0.52402174043E+02  0.45507648212E+03  0.47000000000E+01 0. -1.
         13    1    6    6    0    0 -0.82878555379E+02 -0.34107405022E+03  0.10290498253E+03  0.36577287776E+03  0.00000000000E+00 0. -1.
        -14    1    6    6    0    0  0.10075573181E+02 -0.10740338942E+03  0.56308806214E+02  0.12168683943E+03  0.00000000000E+00 0.  1.
         -5    1    5    5    0  502 -0.62854353599E+02 -0.56997496129E+03  0.55893540924E+02  0.57616690653E+03  0.47000000000E+01 0.  1.
</event>
<event>
12    1  0.9749377E-001  0.3832495E+03  0.7818608E-02  0.1049739E+00
         21   -1    0    0  503  502  0.00000000000E+00  0.00000000000E+00  0.15205042597E+04  0.15205042597E+04  0.00000000000E+00 0.  1.
         21   -1    0    0  501  503 -0.00000000000E+00 -0.00000000000E+00 -0.13168845719E+03  0.13168845719E+03  0.00000000000E+00 0. -1.
          6    2    1    2  501    0 -0.35650304708E+03  0.94407925639E+02  0.35053565769E+03  0.53701663933E+03  0.17176828756E+03 0.  0.
         24    2    3    3    0    0 -0.79835586282E+02 -0.22773467916E+02  0.11353958815E+03  0.15430840865E+03  0.63462549780E+02 0.  0.
         -6    2    1    2    0  502  0.35650304708E+03 -0.94407925639E+02  0.10382801449E+04  0.11151760776E+04  0.17200216813E+03 0.  0.
        -24    2    5    5    0    0  0.65855641223E+02 -0.13090037068E+02  0.29683471395E+03  0.31464379809E+03  0.79884652561E+02 0.  0.
         14    1    4    4    0    0 -0.74768838044E+02 -0.79434802821E+01  0.11620759139E+03  0.13841127959E+03  0.00000000000E+00 0. -1.
        -13    1    4    4    0    0 -0.50667482374E+01 -0.14829987634E+02 -0.26680032421E+01  0.15897129056E+02  0.00000000000E+00 0.  1.
          5    1    3    3  501    0 -0.27666746079E+03  0.11718139355E+03  0.23699606954E+03  0.38270823068E+03  0.47000000000E+01 0. -1.
         11    1    6    6    0    0  0.61901144435E+02 -0.24559646662E+01  0.29690388175E+03  0.30329803567E+03  0.00000000000E+00 0. -1.
        -12    1    6    6    0    0  0.39544967876E+01 -0.10634072402E+02 -0.69167790214E-01  0.11345762419E+02  0.00000000000E+00 0.  1.
         -5    1    5    5    0  502  0.29064740585E+03 -0.81317888571E+02  0.74144543091E+03  0.80053227952E+03  0.47000000000E+01 0.  1.
</event>
<event>
12    1  0.9749377E-001  0.3589830E+03  0.7818608E-02  0.1058987E+00
         21   -1    0    0  503  502  0.00000000000E+00  0.00000000000E+00  0.28628677075E+03  0.28628677075E+03  0.00000000000E+00 0. -1.
         21   -1    0    0  501  503 -0.00000000000E+00 -0.00000000000E+00 -0.62857683341E+03  0.62857683341E+03  0.00000000000E+00 0.  1.
          6    2    1    2  501    0 -0.27624329833E+03 -0.20958791689E+03 -0.35814052746E+03  0.52657855830E+03  0.16965519701E+03 0.  0.
         24    2    3    3    0    0 -0.13075395332E+03 -0.16730686921E+03 -0.26255640008E+03  0.34737685097E+03  0.81526857974E+02 0.  0.
         -6    2    1    2    0  502  0.27624329833E+03  0.20958791689E+03  0.15850464794E+02  0.38828504587E+03  0.17400168055E+03 0.  0.
        -24    2    5    5    0    0  0.25515933455E+03  0.18730266817E+03  0.63673859085E+02  0.33127335513E+03  0.74155916681E+02 0.  0.
         12    1    4    4    0    0 -0.87447218133E+02 -0.12557514276E+03 -0.23682620072E+03  0.28196237654E+03  0.00000000000E+00 0. -1.
        -11    1    4    4    0    0 -0.43306735191E+02 -0.41731726452E+02 -0.25730199363E+02  0.65414474429E+02  0.00000000000E+00 0.  1.
          5    1    3    3  501    0 -0.14548934500E+03 -0.42281047679E+02 -0.95584127379E+02  0.17920170733E+03  0.47000000000E+01 0. -1.
         11    1    6    6    0    0  0.16575086883E+03  0.84859110796E+02  0.58571131885E+02  0.19520501195E+03  0.00000000000E+00 0. -1.
        -12    1    6    6    0    0  0.89408465719E+02  0.10244355737E+03  0.51027271997E+01  0.13606834318E+03  0.00000000000E+00 0.  1.
         -5    1    5    5    0  502  0.21083963781E+02  0.22285248721E+02 -0.47823394291E+02  0.57011690738E+02  0.47000000000E+01 0.  1.
</event>
<event>
12    1  0.9749377E-001  0.3982664E+03  0.7818608E-02  0.1044382E+00
         21   -1    0    0  501  502  0.00000000000E+00  0.00000000000E+00  0.16523980504E+03  0.16523980504E+03  0.00000000000E+00 0.  1.
         21   -1    0    0  502  503 -0.00000000000E+00 -0.00000000000E+00 -0.10658940384E+04  0.10658940384E+04  0.00000000000E+00 0. -1.
         -6    2    1    2    0  503 -0.32066218234E+03  0.20886761785E+03 -0.47384326714E+03  0.63271928529E+03  0.17133690555E+03 0.  0.
        -24    2    3    3    0    0 -0.25498416487E+03  0.10392568468E+03 -0.38673313529E+03  0.48127069208E+03  0.79003093950E+02 0.  0.
          6    2    1    2  501    0  0.32066218234E+03 -0.20886761785E+03 -0.42681096617E+03  0.59841455810E+03  0.17170458800E+03 0.  0.
         24    2    5    5    0    0  0.15922175540E+03 -0.13113409435E+03 -0.32150185150E+03  0.39052609821E+03  0.81237151420E+02 0.  0.
         12    1    6    6    0    0  0.16079105936E+03 -0.11054477332E+03 -0.25624253691E+03  0.32207786233E+03  0.00000000000E+00 0. -1.
        -11    1    6    6    0    0 -0.15693039518E+01 -0.20589321026E+02 -0.65259314582E+02  0.68448235879E+02  0.00000000000E+00 0.  1.
          5    1    5    5  501    0  0.16144042694E+03 -0.77733523501E+02 -0.10530911467E+03  0.20788845990E+03  0.47000000000E+01 0. -1.
         11    1    4    4    0    0 -0.71638714211E+02  0.46871948654E+02 -0.17880336277E+03  0.19824158868E+03  0.00000000000E+00 0. -1.
        -12    1    4    4    0    0 -0.18334545066E+03  0.57053736023E+02 -0.20792977252E+03  0.28302910340E+03  0.00000000000E+00 0.  1.
         -5    1    3    3    0  503 -0.65678017473E+02  0.10494193317E+03 -0.87110131848E+02  0.15144859322E+03  0.47000000000E+01 0.  1.
</event>
<event>
12    1  0.9749377E-001  0.4070950E+03  0.7818608E-02  0.1041350E+00
         21   -1    0    0  501  502  0.00000000000E+00  0.00000000000E+00  0.13826314845E+04  0.13826314845E+04  0.00000000000E+00 0. -1.
         21   -1    0    0  502  503 -0.00000000000E+00 -0.00000000000E+00 -0.12713943166E+03  0.12713943166E+03  0.00000000000E+00 0.  1.
         -6    2    1    2    0  503 -0.35841707945E+03  0.12816075129E+03  0.56270993817E+03  0.70089262445E+03  0.17239494043E+03 0.  0.
        -24    2    3    3    0    0 -0.78581407008E+02  0.22788198278E+02  0.20561217596E+03  0.23511125914E+03  0.79414090456E+02 0.  0.
          6    2    1    2  501    0  0.35841707945E+03 -0.12816075129E+03  0.69278211466E+03  0.80887829170E+03  0.17160725909E+03 0.  0.
         24    2    5    5    0    0  0.35597393790E+03 -0.13966336209E+03  0.60492920393E+03  0.72011736043E+03  0.80039814164E+02 0.  0.
         14    1    6    6    0    0  0.28701494020E+03 -0.14316359158E+03  0.51547692013E+03  0.60711600625E+03  0.00000000000E+00 0. -1.
        -13    1    6    6    0    0  0.68958997701E+02  0.35002294965E+01  0.89452283800E+02  0.11300135418E+03  0.00000000000E+00 0.  1.
          5    1    5    5  501    0  0.24431415521E+01  0.11502610801E+02  0.87852910728E+02  0.88760931267E+02  0.47000000000E+01 0. -1.
         11    1    4    4    0    0 -0.51166969873E+02  0.51772255265E+02  0.14929897549E+03  0.16609819176E+03  0.00000000000E+00 0. -1.
        -12    1    4    4    0    0 -0.27414437135E+02 -0.28984056987E+02  0.56313200466E+02  0.69013067383E+02  0.00000000000E+00 0.  1.
         -5    1    3    3    0  503 -0.27983567245E+03  0.10537255301E+03  0.35709776221E+03  0.46578136531E+03  0.47000000000E+01 0.  1.
</event>
<event>
12    1  0.9749377E-001  0.1414734E+03  0.7818608E-02  0.1211360E+00
         21   -1    0    0  501  502  0.00000000000E+00  0.00000000000E+00  0.20121804550E+03  0.20121804550E+03  0.00000000000E+00 0. -1.
         21   -1    0    0  502  503 -0.00000000000E+00 -0.00000000000E+00 -0.17853738518E+03  0.17853738518E+03  0.00000000000E+00 0. -1.
         -6    2    1    2    0  503  0.62668415054E+01  0.39801149909E+02  0.80933547676E+02  0.19447567513E+03  0.17218346100E+03 0.  0.
        -24    2    3    3    0    0  0.46175079283E+01 -0.12621610522E+02 -0.25412915931E+02  0.75805854056E+02  0.70143316014E+02 0.  0.
          6    2    1    2  501    0 -0.62668415054E+01 -0.39801149909E+02 -0.58252887351E+02  0.18527975555E+03  0.17120684593E+03 0.  0.
         24    2    5    5    0    0  0.50084816179E+02 -0.27978563521E+02  0.15285003444E+01  0.10214620524E+03  0.84499834924E+02 0.  0.
         14    1    6    6    0    0  0.30946170942E+02 -0.58323813211E+02 -0.23052108361E+01  0.66065472681E+02  0.00000000000E+00 0. -1.
        -13    1    6    6    0    0  0.19138645236E+02  0.30345249690E+02  0.38337111804E+01  0.36080732554E+02  0.00000000000E+00 0.  1.
          5    1    5    5  501    0 -0.56351657684E+02 -0.11822586388E+02 -0.59781387695E+02  0.83133550311E+02  0.47000000000E+01 0. -1.
         11    1    4    4    0    0 -0.27921784128E+02  0.11411703218E+02 -0.52879263012E+01  0.30623767955E+02  0.00000000000E+00 0. -1.
        -12    1    4    4    0    0  0.32539292056E+02 -0.24033313740E+02 -0.20124989630E+02  0.45182086101E+02  0.00000000000E+00 0.  1.
         -5    1    3    3    0  503  0.16493335771E+01  0.52422760431E+02  0.10634646361E+03  0.11866982108E+03  0.47000000000E+01 0.  1.
</event>
<event>
12    1  0.9749377E-001  0.4918635E+03  0.7818608E-02  0.1015925E+00
         21   -1    0    0  501  502  0.00000000000E+00  0.00000000000E+00  0.60089270841E+03  0.60089270841E+03  0.00000000000E+00 0. -1.
         21   -1    0    0  502  503 -0.00000000000E+00 -0.00000000000E+00 -0.45345140062E+03  0.45345140062E+03  0.00000000000E+00 0.  1.
         -6    2    1    2    0  503  0.45971884647E+03 -0.11987825380E+03  0.20796975126E+03  0.54637082985E+03  0.17192281042E+03 0.  0.
        -24    2    3    3    0    0  0.34673467577E+03 -0.79548455292E+02  0.21975748247E+03  0.42573519630E+03  0.80026334081E+02 0.  0.
          6    2    1    2  501    0 -0.45971884647E+03  0.11987825380E+03 -0.60528443467E+02  0.50797327917E+03  0.16929544104E+03 0.  0.
         24    2    5    5    0    0 -0.18882208190E+03  0.10452611203E+03 -0.15511488021E+01  0.23026631745E+03  0.80253873281E+02 0.  0.
         14    1    6    6    0    0 -0.15697862586E+03  0.47921303250E+02  0.94148733497E+01  0.16440006120E+03  0.00000000000E+00 0. -1.
        -13    1    6    6    0    0 -0.31843456040E+02  0.56604808780E+02 -0.10966022152E+02  0.65866256243E+02  0.00000000000E+00 0.  1.
          5    1    5    5  501    0 -0.27089676456E+03  0.15352141771E+02 -0.58977294665E+02  0.27770696173E+03  0.47000000000E+01 0. -1.
         13    1    4    4    0    0  0.68716482765E+02  0.13526180976E+02  0.28086324241E+02  0.75456969093E+02  0.00000000000E+00 0. -1.
        -14    1    4    4    0    0  0.27801819300E+03 -0.93074636268E+02  0.19167115823E+03  0.35027822720E+03  0.00000000000E+00 0.  1.
         -5    1    3    3    0  503  0.11298417070E+03 -0.40329798509E+02 -0.11787731207E+02  0.12063563355E+03  0.47000000000E+01 0.  1.
</event>
<event>
12    1  0.9749377E-001  0.4332375E+03  0.7818608E-02  0.1032842E+00
         21   -1    0    0  503  502  0.00000000000E+00  0.00000000000E+00  0.37022994752E+03  0.37022994752E+03  0.00000000000E+00 0. -1.
         21   -1    0    0  501  503 -0.00000000000E+00 -0.00000000000E+00 -0.58048623351E+03  0.58048623351E+03  0.00000000000E+00 0.  1.
          6    2    1    2  501    0 -0.29666514864E+03 -0.27698317087E+03  0.41944704004E+02  0.44288953414E+03  0.17222628688E+03 0.  0.
         24    2    3    3    0    0 -0.28727992775E+03 -0.19773024055E+03  0.55764124906E+02  0.36175892506E+03  0.78312689393E+02 0.  0.
         -6    2    1    2    0  502  0.29666514864E+03  0.27698317087E+03 -0.25220098999E+03  0.50782664688E+03  0.17190891938E+03 0.  0.
        -24    2    5    5    0    0  0.23876672030E+03  0.28670284900E+03 -0.21624260678E+03  0.43882088284E+03  0.81208570279E+02 0.  0.
         14    1    4    4    0    0 -0.15355998742E+03 -0.14339679868E+03  0.55937225888E+02  0.21742190517E+03  0.00000000000E+00 0. -1.
        -13    1    4    4    0    0 -0.13371994033E+03 -0.54333441871E+02 -0.17310098242E+00  0.14433701989E+03  0.00000000000E+00 0.  1.
          5    1    3    3  501    0 -0.93852208982E+01 -0.79252930325E+02 -0.13819420901E+02  0.81130609085E+02  0.47000000000E+01 0. -1.
         13    1    6    6    0    0  0.32637186351E+01  0.25967966622E+01 -0.20846150542E+02  0.21259285140E+02  0.00000000000E+00 0. -1.
        -14    1    6    6    0    0  0.23550300166E+03  0.28410605233E+03 -0.19539645623E+03  0.41756159770E+03  0.00000000000E+00 0.  1.
         -5    1    5    5    0  502  0.57898428346E+02 -0.97196781211E+01 -0.35958383214E+02  0.69005764042E+02  0.47000000000E+01 0.  1.
</event>
<event>
12    1  0.9749377E-001  0.3773408E+03  0.7818608E-02  0.1051921E+00
         21   -1    0    0  503  502  0.00000000000E+00  0.00000000000E+00  0.32626648402E+03  0.32626648402E+03  0.00000000000E+00 0. -1.
         21   -1    0    0  501  503 -0.00000000000E+00 -0.00000000000E+00 -0.45742173575E+03  0.45742173575E+03  0.00000000000E+00 0.  1.
          6    2    1    2  501    0 -0.22923085620E+03  0.25946102662E+03 -0.88631327959E+02  0.39562723623E+03  0.16970146725E+03 0.  0.
         24    2    3    3    0    0 -0.18034709109E+03  0.26101256166E+03 -0.10523862772E+03  0.34376277675E+03  0.80281051988E+02 0.  0.
         -6    2    1    2    0  502  0.22923085620E+03 -0.25946102662E+03 -0.42523923776E+02  0.38806098354E+03  0.17004773767E+03 0.  0.
        -24    2    5    5    0    0  0.39174108402E+02 -0.12492494095E+03 -0.18906759195E+02  0.15396402458E+03  0.78782001012E+02 0.  0.
         12    1    4    4    0    0 -0.55570811500E+02  0.13753138159E+03 -0.23746199927E+02  0.15022276134E+03  0.00000000000E+00 0. -1.
        -11    1    4    4    0    0 -0.12477627959E+03  0.12348118007E+03 -0.81492427793E+02  0.19354001541E+03  0.00000000000E+00 0.  1.
          5    1    3    3  501    0 -0.48883765107E+02 -0.15515350389E+01  0.16607299761E+02  0.51864459482E+02  0.47000000000E+01 0. -1.
         11    1    6    6    0    0  0.58348968360E+02 -0.10980501444E+03 -0.28766891608E+02  0.12762945333E+03  0.00000000000E+00 0. -1.
        -12    1    6    6    0    0 -0.19174859958E+02 -0.15119926511E+02  0.98601324130E+01  0.26334571257E+02  0.00000000000E+00 0.  1.
         -5    1    5    5    0  502  0.19005674779E+03 -0.13453608567E+03 -0.23617164581E+02  0.23409695896E+03  0.47000000000E+01 0.  1.
</event>
<event>
12    1  0.9749377E-001  0.6790907E+03  0.7818608E-02  0.9753674E-01
         21   -1    0    0  503  502  0.00000000000E+00  0.00000000000E+00  0.70837939505E+03  0.70837939505E+03  0.00000000000E+00 0. -1.
         21   -1    0    0  501  503 -0.00000000000E+00 -0.00000000000E+00 -0.66976054614E+03  0.66976054614E+03  0.00000000000E+00 0.  1.
          6    2    1    2  501    0  0.63853263448E+03 -0.19054700046E+03  0.49451218627E+02  0.69002194820E+03  0.17219982954E+03 0.  0.
         24    2    3    3    0    0  0.27427546341E+03 -0.14448700762E+03  0.27346175376E+02  0.32216935197E+03  0.83317182144E+02 0.  0.
         -6    2    1    2    0  502 -0.63853263448E+03  0.19054700046E+03 -0.10832369721E+02  0.68811799299E+03  0.17133869194E+03 0.  0.
        -24    2    5    5    0    0 -0.26170471731E+03  0.50133947992E+02 -0.53976161690E+02  0.28364477848E+03  0.80858905059E+02 0.  0.
         12    1    4    4    0    0  0.39821042374E+02  0.19692072971E+01  0.22304860407E+02  0.45684789492E+02  0.00000000000E+00 0. -1.
        -11    1    4    4    0    0  0.23445442103E+03 -0.14645621492E+03  0.50413149693E+01  0.27648456248E+03  0.00000000000E+00 0.  1.
          5    1    3    3  501    0  0.36425717107E+03 -0.46059992841E+02  0.22105043250E+02  0.36785259624E+03  0.47000000000E+01 0. -1.
         13    1    6    6    0    0 -0.46642968757E+02  0.32268561199E+02  0.12019222444E+02  0.57976618429E+02  0.00000000000E+00 0. -1.
        -14    1    6    6    0    0 -0.21506174855E+03  0.17865386792E+02 -0.65995384134E+02  0.22566816005E+03  0.00000000000E+00 0.  1.
         -5    1    5    5    0  502 -0.37682791718E+03  0.14041305247E+03  0.43143791969E+02  0.40447321451E+03  0.47000000000E+01 0.  1.
</event>
<event>
12    1  0.9749377E-001  0.4904517E+03  0.7818608E-02  0.1016302E+00
         21   -1    0    0  503  502  0.00000000000E+00  0.00000000000E+00  0.99578056776E+03  0.99578056776E+03  0.00000000000E+00 0.  1.
         21   -1    0    0  501  503 -0.00000000000E+00 -0.00000000000E+00 -0.28592616488E+03  0.28592616488E+03  0.00000000000E+00 0. -1.
          6    2    1    2  501    0 -0.34591608913E+03  0.31979698137E+03  0.13523287230E+03  0.51940909093E+03  0.17195878570E+03 0.  0.
         24    2    3    3    0    0 -0.29231147043E+03  0.32843321911E+03  0.13248891993E+03  0.46484116058E+03  0.72177666240E+02 0.  0.
         -6    2    1    2    0  502  0.34591608913E+03 -0.31979698137E+03  0.57462153058E+03  0.76229764170E+03  0.17023437117E+03 0.  0.
        -24    2    5    5    0    0  0.33032127989E+03 -0.28105152121E+03  0.44299784772E+03  0.62412639777E+03  0.72003901243E+02 0.  0.
         14    1    4    4    0    0 -0.71099797756E+02  0.13004254720E+03  0.50804798657E+02  0.15667601249E+03  0.00000000000E+00 0. -1.
        -13    1    4    4    0    0 -0.22121167267E+03  0.19839067191E+03  0.81684121273E+02  0.30816514808E+03  0.00000000000E+00 0.  1.
          5    1    3    3  501    0 -0.53604618700E+02 -0.86362377409E+01  0.27439523696E+01  0.54567930352E+02  0.47000000000E+01 0. -1.
         11    1    6    6    0    0  0.76974581303E+02 -0.10633664675E+03  0.14790261689E+03  0.19775680188E+03  0.00000000000E+00 0. -1.
        -12    1    6    6    0    0  0.25334669859E+03 -0.17471487446E+03  0.29509523083E+03  0.42636959589E+03  0.00000000000E+00 0.  1.
         -5    1    5    5    0  502  0.15594809237E+02 -0.38745460162E+02  0.13162368286E+03  0.13817124393E+03  0.47000000000E+01 0.  1.
</event>
<event>
12    1  0.9749377E-001  0.2694331E+03  0.7818608E-02  0.1101604E+00
         21   -1    0    0  501  502  0.00000000000E+00  0.00000000000E+00  0.17420095646E+04  0.17420095646E+04  0.00000000000E+00 0. -1.
         21   -1    0    0  502  503 -0.00000000000E+00 -0.00000000000E+00 -0.62278844765E+03  0.62278844765E+03  0.00000000000E+00 0.  1.
         -6    2    1    2    0  503 -0.23644079171E+03  0.41476767468E+02 -0.57414289286E+03  0.64579888856E+03  0.17260235463E+03 0.  0.
        -24    2    3    3    0    0 -0.22504094461E+03 -0.12710559391E+02 -0.44347420248E+03  0.50380374938E+03  0.79648380717E+02 0.  0.
          6    2    1    2  501    0  0.23644079171E+03 -0.41476767468E+02  0.16933640098E+04  0.17189991236E+04  0.17277658202E+03 0.  0.
         24    2    5    5    0    0  0.22190773055E+03 -0.33862388180E+02  0.11034337674E+04  0.11288220574E+04  0.79268253857E+02 0.  0.
         14    1    6    6    0    0  0.15361952051E+03  0.66784868078E+01  0.82850925068E+03  0.84265718874E+03  0.00000000000E+00 0. -1.
        -13    1    6    6    0    0  0.68288210036E+02 -0.40540874988E+02  0.27492451674E+03  0.28616486870E+03  0.00000000000E+00 0.  1.
          5    1    5    5  501    0  0.14533061160E+02 -0.76143792877E+01  0.58993024235E+03  0.59017706620E+03  0.47000000000E+01 0. -1.
         13    1    4    4    0    0 -0.11813652907E+02  0.13813096120E+02 -0.11977052394E+02  0.21767264492E+02  0.00000000000E+00 0. -1.
        -14    1    4    4    0    0 -0.21322729171E+03 -0.26523655510E+02 -0.43149715009E+03  0.48203648489E+03  0.00000000000E+00 0.  1.
         -5    1    3    3    0  503 -0.11399847094E+02  0.54187326859E+02 -0.13066869038E+03  0.14199513918E+03  0.47000000000E+01 0.  1.
</event>
<event>
12    1  0.9749377E-001  0.5773913E+03  0.7818608E-02  0.9953455E-01
         21   -1    0    0  503  502  0.00000000000E+00  0.00000000000E+00  0.38616504851E+03  0.38616504851E+03  0.00000000000E+00 0. -1.
         21   -1    0    0  501  503 -0.00000000000E+00 -0.00000000000E+00 -0.10521325275E+04  0.10521325275E+04  0.00000000000E+00 0.  1.
          6    2    1    2  501    0  0.35970717236E+03  0.43473181008E+03 -0.60430730896E+03  0.84469268640E+03  0.17302431695E+03 0.  0.
         24    2    3    3    0    0  0.27268461476E+03  0.32271709498E+03 -0.53573023753E+03  0.68706931676E+03  0.80957619220E+02 0.  0.
         -6    2    1    2    0  502 -0.35970717236E+03 -0.43473181008E+03 -0.61660169999E+02  0.59360488958E+03  0.17373483193E+03 0.  0.
        -24    2    5    5    0    0 -0.26971426758E+03 -0.22730672689E+03 -0.65235318188E+02  0.36742186694E+03  0.79555309930E+02 0.  0.
         14    1    4    4    0    0  0.10244014062E+03  0.18322416256E+03 -0.25182239781E+03  0.32784080923E+03  0.00000000000E+00 0. -1.
        -13    1    4    4    0    0  0.17024447413E+03  0.13949293242E+03 -0.28390783972E+03  0.35922850753E+03  0.00000000000E+00 0.  1.
          5    1    3    3  501    0  0.87022557601E+02  0.11201471511E+03 -0.68577071423E+02  0.15762336964E+03  0.47000000000E+01 0. -1.
         13    1    6    6    0    0 -0.29104221339E+01 -0.16235325549E+02  0.96063984730E+01  0.19087672574E+02  0.00000000000E+00 0. -1.
        -14    1    6    6    0    0 -0.26680384545E+03 -0.21107140134E+03 -0.74841716661E+02  0.34833419437E+03  0.00000000000E+00 0.  1.
         -5    1    5    5    0  502 -0.89992904774E+02 -0.20742508319E+03  0.35751481888E+01  0.22618302264E+03  0.47000000000E+01 0.  1.
</event>
<event>
12    1  0.9749377E-001  0.4380459E+03  0.7818608E-02  0.1031348E+00
         21   -1    0    0  503  502  0.00000000000E+00  0.00000000000E+00  0.51042846509E+03  0.51042846509E+03  0.00000000000E+00 0. -1.
         21   -1    0    0  501  503 -0.00000000000E+00 -0.00000000000E+00 -0.40636343142E+03  0.40636343142E+03  0.00000000000E+00 0.  1.
          6    2    1    2  501    0 -0.26258049400E+03  0.33099716678E+03  0.52631892025E+02  0.45931669903E+03  0.17231968459E+03 0.  0.
         24    2    3    3    0    0 -0.18222339616E+03  0.17456419008E+03  0.89813283456E+02  0.27950266942E+03  0.79857959922E+02 0.  0.
         -6    2    1    2    0  502  0.26258049400E+03 -0.33099716678E+03  0.51433141650E+02  0.45747519749E+03  0.16772163846E+03 0.  0.
        -24    2    5    5    0    0  0.86836288001E+02 -0.21086810081E+03  0.21697905998E+02  0.24247916805E+03  0.79494974439E+02 0.  0.
         12    1    4    4    0    0 -0.11504866147E+03  0.14568665346E+03  0.90183832325E+02  0.20638294289E+03  0.00000000000E+00 0. -1.
        -11    1    4    4    0    0 -0.67174734691E+02  0.28877536618E+02 -0.37054886919E+00  0.73119726534E+02  0.00000000000E+00 0.  1.
          5    1    3    3  501    0 -0.80357097840E+02  0.15643297670E+03 -0.37181391431E+02  0.17981402960E+03  0.47000000000E+01 0. -1.
         11    1    6    6    0    0  0.15918711557E+02 -0.26135629478E+02  0.32073128637E+02  0.44330148730E+02  0.00000000000E+00 0. -1.
        -12    1    6    6    0    0  0.70917576443E+02 -0.18473247133E+03 -0.10375222639E+02  0.19814901932E+03  0.00000000000E+00 0.  1.
         -5    1    5    5    0  502  0.17574420600E+03 -0.12012906597E+03  0.29735235652E+02  0.21499602944E+03  0.47000000000E+01 0.  1.
</event>
<event>
12    1  0.9749377E-001  0.2386350E+03  0.7818608E-02  0.1120706E+00
         21   -1    0    0  501  502  0.00000000000E+00  0.00000000000E+00  0.78358066117E+02  0.78358066117E+02  0.00000000000E+00 0. -1.
         21   -1    0    0  502  503 -0.00000000000E+00 -0.00000000000E+00 -0.94692463694E+03  0.94692463694E+03  0.00000000000E+00 0. -1.
         -6    2    1    2    0  503  0.19109859739E+03  0.63167465548E+02 -0.29747003598E+03  0.39650860191E+03  0.16799359052E+03 0.  0.
        -24    2    3    3    0    0  0.13312471779E+03 -0.11966480930E+02 -0.22680161117E+03  0.27809324440E+03  0.89618606318E+02 0.  0.
          6    2    1    2  501    0 -0.19109859739E+03 -0.63167465548E+02 -0.57109653484E+03  0.62877410114E+03  0.16940134454E+03 0.  0.
         24    2    5    5    0    0 -0.16479982971E+03 -0.79117252318E+02 -0.33125644984E+03  0.38692419469E+03  0.80999835714E+02 0.  0.
         14    1    6    6    0    0 -0.37489149671E+02  0.15104689584E+02 -0.85170817863E+02  0.94274366643E+02  0.00000000000E+00 0. -1.
        -13    1    6    6    0    0 -0.12731068004E+03 -0.94221941902E+02 -0.24608563198E+03  0.29264982804E+03  0.00000000000E+00 0.  1.
          5    1    5    5  501    0 -0.26298767679E+02  0.15949786769E+02 -0.23984008500E+03  0.24184990646E+03  0.47000000000E+01 0. -1.
         11    1    4    4    0    0  0.11795097747E+02 -0.27589307288E+02 -0.15103941508E+02  0.33592011797E+02  0.00000000000E+00 0. -1.
        -12    1    4    4    0    0  0.12132962005E+03  0.15622826358E+02 -0.21169766967E+03  0.24450123261E+03  0.00000000000E+00 0.  1.
         -5    1    3    3    0  503  0.57973879600E+02  0.75133946479E+02 -0.70668424809E+02  0.11841535751E+03  0.47000000000E+01 0.  1.
</event>
<event>
12    1  0.9749377E-001  0.1085355E+04  0.7818608E-02  0.9219584E-01
         21   -1    0    0  503  502  0.00000000000E+00  0.00000000000E+00  0.15984360606E+04  0.15984360606E+04  0.00000000000E+00 0. -1.
         21   -1    0    0  501  503 -0.00000000000E+00 -0.00000000000E+00 -0.75641918914E+03  0.75641918914E+03  0.00000000000E+00 0.  1.
          6    2    1    2  501    0 -0.10681613953E+04 -0.14734707473E+03  0.55885111184E+03  0.12266933387E+04  0.17257478141E+03 0.  0.
         24    2    3    3    0    0 -0.37358766932E+03 -0.92091797333E+02  0.16425100128E+03  0.42593298520E+03  0.79949175419E+02 0.  0.
         -6    2    1    2    0  502  0.10681613953E+04  0.14734707473E+03  0.28316575965E+03  0.11281619111E+04  0.17287719138E+03 0.  0.
        -24    2    5    5    0    0  0.97090832719E+03  0.93243733849E+02  0.27523444549E+03  0.10164912950E+04  0.78378435111E+02 0.  0.
         12    1    4    4    0    0 -0.78342155336E+02 -0.53184220968E+01  0.66933554213E+02  0.10317887185E+03  0.00000000000E+00 0. -1.
        -11    1    4    4    0    0 -0.29524551399E+03 -0.86773375236E+02  0.97317447069E+02  0.32275411335E+03  0.00000000000E+00 0.  1.
          5    1    3    3  501    0 -0.69457372598E+03 -0.55255277395E+02  0.39460011056E+03  0.80076035351E+03  0.47000000000E+01 0. -1.
         13    1    6    6    0    0  0.15697065158E+03  0.30709347357E+02  0.70986634459E+02  0.17499129048E+03  0.00000000000E+00 0. -1.
        -14    1    6    6    0    0  0.81393767561E+03  0.62534386493E+02  0.20424781104E+03  0.84150000451E+03  0.00000000000E+00 0.  1.
         -5    1    5    5    0  502  0.97253068111E+02  0.54103340878E+02  0.79313141595E+01  0.11167061608E+03  0.47000000000E+01 0.  1.
</event>
<event>
12    1  0.9749377E-001  0.3953411E+03  0.7818608E-02  0.1045405E+00
         21   -1    0    0  503  502  0.00000000000E+00  0.00000000000E+00  0.30326937838E+03  0.30326937838E+03  0.00000000000E+00 0.  1.
         21   -1    0    0  501  503 -0.00000000000E+00 -0.00000000000E+00 -0.65888857821E+03  0.65888857821E+03  0.00000000000E+00 0. -1.
          6    2    1    2  501    0 -0.11360145374E+02  0.38594281369E+03 -0.33397684947E+03  0.53887277397E+03  0.17251788950E+03 0.  0.
         24    2    3    3    0    0 -0.15987186719E+02  0.28550329363E+03 -0.16585596453E+03  0.34292321756E+03  0.91216288904E+02 0.  0.
         -6    2    1    2    0  502  0.11360145374E+02 -0.38594281369E+03 -0.21642350349E+02  0.42328518262E+03  0.17210765861E+03 0.  0.
        -24    2    5    5    0    0 -0.34439992865E+01 -0.32728800473E+03  0.36868407844E+02  0.33899314185E+03  0.80173384296E+02 0.  0.
         12    1    4    4    0    0  0.36642484598E+02  0.11161229088E+03 -0.51636104867E+02  0.12832093546E+03  0.00000000000E+00 0. -1.
        -11    1    4    4    0    0 -0.52629671317E+02  0.17389100275E+03 -0.11421985966E+03  0.21460228210E+03  0.00000000000E+00 0.  1.
          5    1    3    3  501    0  0.46270413457E+01  0.10043952006E+03 -0.16812088494E+03  0.19594955641E+03  0.47000000000E+01 0. -1.
         11    1    6    6    0    0 -0.23419761769E+02 -0.15634377928E+03  0.51499291351E+02  0.16626496796E+03  0.00000000000E+00 0. -1.
        -12    1    6    6    0    0  0.19975762483E+02 -0.17094422545E+03 -0.14630883507E+02  0.17272817389E+03  0.00000000000E+00 0.  1.
         -5    1    5    5    0  502  0.14804144660E+02 -0.58654808962E+02 -0.58510758193E+02  0.84292040773E+02  0.47000000000E+01 0.  1.
</event>
<event>
12    1  0.9749377E-001  0.3603802E+03  0.7818608E-02  0.1058433E+00
         21   -1    0    0  501  502  0.00000000000E+00  0.00000000000E+00  0.14072638150E+04  0.14072638150E+04  0.00000000000E+00 0. -1.
         21   -1    0    0  502  503 -0.00000000000E+00 -0.00000000000E+00 -0.12017659369E+03  0.12017659369E+03  0.00000000000E+00 0.  1.
         -6    2    1    2    0  503  0.15858108238E+02  0.34020929285E+03  0.93140726690E+03  0.10063883482E+04  0.17118460206E+03 0.  0.
        -24    2    3    3    0    0 -0.36255443471E+02  0.18907846125E+03  0.65218044192E+03  0.68460261152E+03  0.79223009180E+02 0.  0.
          6    2    1    2  501    0 -0.15858108238E+02 -0.34020929285E+03  0.35567995445E+03  0.52105206054E+03  0.17027383024E+03 0.  0.
         24    2    5    5    0    0  0.30742845887E+02 -0.24912341471E+03  0.31685083010E+03  0.41151632656E+03  0.77095007364E+02 0.  0.
         14    1    6    6    0    0  0.37497252114E+02 -0.25227626212E+03  0.30602578365E+03  0.39837311230E+03  0.00000000000E+00 0. -1.
        -13    1    6    6    0    0 -0.67544062268E+01  0.31528474173E+01  0.10825046450E+02  0.13143214256E+02  0.00000000000E+00 0.  1.
          5    1    5    5  501    0 -0.46600954126E+02 -0.91085878141E+02  0.38829124349E+02  0.10953573399E+03  0.47000000000E+01 0. -1.
         11    1    4    4    0    0 -0.42646585293E+02  0.13834472317E+03  0.36064245074E+03  0.38861416719E+03  0.00000000000E+00 0. -1.
        -12    1    4    4    0    0  0.63911418215E+01  0.50733738081E+02  0.29153799118E+03  0.29598844433E+03  0.00000000000E+00 0.  1.
         -5    1    3    3    0  503  0.52113551710E+02  0.15113083160E+03  0.27922682498E+03  0.32178573666E+03  0.47000000000E+01 0.  1.
</event>
<event>
12    1  0.9749377E-001  0.3142264E+03  0.7818608E-02  0.1078338E+00
         21   -1    0    0  503  502  0.00000000000E+00  0.00000000000E+00  0.44829160126E+03  0.44829160126E+03  0.00000000000E+00 0.  1.
         21   -1    0    0  501  503 -0.00000000000E+00 -0.00000000000E+00 -0.28453469728E+03  0.28453469728E+03  0.00000000000E+00 0. -1.
          6    2    1    2  501    0  0.20444434381E+03  0.16863128104E+03 -0.88427467639E+02  0.32815234174E+03  0.17213524826E+03 0.  0.
         24    2    3    3    0    0  0.69822589451E+02  0.14458300360E+03 -0.48508055432E+02  0.18561467701E+03  0.79500553165E+02 0.  0.
         -6    2    1    2    0  502 -0.20444434381E+03 -0.16863128104E+03  0.25218437162E+03  0.40467395679E+03  0.17300305012E+03 0.  0.
        -24    2    5    5    0    0 -0.17039563767E+03 -0.54982150752E+02  0.13487927222E+03  0.23776675038E+03  0.79264741678E+02 0.  0.
         12    1    4    4    0    0 -0.10856130950E+02  0.63456270457E+02 -0.11757034028E+02  0.65442965157E+02  0.00000000000E+00 0. -1.
        -11    1    4    4    0    0  0.80678720402E+02  0.81126733141E+02 -0.36751021405E+02  0.12017171185E+03  0.00000000000E+00 0.  1.
          5    1    3    3  501    0  0.13462175436E+03  0.24048277444E+02 -0.39919412207E+02  0.14253766473E+03  0.47000000000E+01 0. -1.
         11    1    6    6    0    0 -0.48568570187E+02 -0.53500280496E+02  0.65696249918E+02  0.97658503349E+02  0.00000000000E+00 0. -1.
        -12    1    6    6    0    0 -0.12182706749E+03 -0.14818702562E+01  0.69183022301E+02  0.14010824703E+03  0.00000000000E+00 0.  1.
         -5    1    5    5    0  502 -0.34048706140E+02 -0.11364913029E+03  0.11730509940E+03  0.16690720641E+03  0.47000000000E+01 0.  1.
</event>
<event>
12    1  0.9749377E-001  0.3114842E+03  0.7818608E-02  0.1079637E+00
         21   -1    0    0  501  502  0.00000000000E+00  0.00000000000E+00  0.38487935459E+02  0.38487935459E+02  0.00000000000E+00 0.  1.
         21   -1    0    0  502  503 -0.00000000000E+00 -0.00000000000E+00 -0.27169340141E+04  0.27169340141E+04  0.00000000000E+00 0. -1.
         -6    2    1    2    0  503  0.13808651363E+02  0.27210141243E+03 -0.14680118767E+04  0.15029087789E+04  0.17159857233E+03 0.  0.
        -24    2    3    3    0    0  0.25640515483E+02  0.28839401791E+03 -0.13832835239E+04  0.14156939535E+04  0.82991064828E+02 0.  0.
          6    2    1    2  501    0 -0.13808651363E+02 -0.27210141243E+03 -0.12104342020E+04  0.12525131707E+04  0.17148885672E+03 0.  0.
         24    2    5    5    0    0 -0.60513897000E+02 -0.11440845290E+03 -0.69843806057E+03  0.71473013985E+03  0.79197364470E+02 0.  0.
         14    1    6    6    0    0 -0.31910936278E+02 -0.11177362484E+03 -0.62788461509E+03  0.63855363199E+03  0.00000000000E+00 0. -1.
        -13    1    6    6    0    0 -0.28602960723E+02 -0.26348280594E+01 -0.70553445481E+02  0.76176507863E+02  0.00000000000E+00 0.  1.
          5    1    5    5  501    0  0.46705245637E+02 -0.15769295953E+03 -0.51199614139E+03  0.53778303084E+03  0.47000000000E+01 0. -1.
         11    1    4    4    0    0 -0.62251933576E+01  0.61204326068E+01 -0.97233957182E+01  0.13067408003E+02  0.00000000000E+00 0. -1.
        -12    1    4    4    0    0  0.31865708841E+02  0.28227358530E+03 -0.13735601282E+04  0.14026265455E+04  0.00000000000E+00 0.  1.
         -5    1    3    3    0  503 -0.11831864120E+02 -0.16292605476E+02 -0.84728352777E+02  0.87214825380E+02  0.47000000000E+01 0.  1.
</event>
<event>
12    1  0.9749377E-001  0.2444123E+03  0.7818608E-02  0.1116888E+00
         21   -1    0    0  501  502  0.00000000000E+00  0.00000000000E+00  0.97655791048E+03  0.97655791048E+03  0.00000000000E+00 0.  1.
         21   -1    0    0  502  503 -0.00000000000E+00 -0.00000000000E+00 -0.78403083902E+02  0.78403083902E+02  0.00000000000E+00 0. -1.
         -6    2    1    2    0  503 -0.21231137743E+00  0.21187165620E+03  0.52569012384E+03  0.59253579058E+03  0.17279731778E+03 0.  0.
        -24    2    3    3    0    0 -0.14698011899E+02  0.18075074032E+03  0.52078423903E+03  0.55754286800E+03  0.82164252290E+02 0.  0.
          6    2    1    2  501    0  0.21231137743E+00 -0.21187165620E+03  0.37246470274E+03  0.46242520381E+03  0.17383173056E+03 0.  0.
         24    2    5    5    0    0 -0.60004850133E+02 -0.16067069109E+03  0.30216374828E+03  0.35653866280E+03  0.80007713884E+02 0.  0.
         14    1    6    6    0    0 -0.42611168326E+02 -0.15855780967E+03  0.29499610110E+03  0.33760774626E+03  0.00000000000E+00 0. -1.
        -13    1    6    6    0    0 -0.17393681807E+02 -0.21128814164E+01  0.71676471799E+01  0.18930916533E+02  0.00000000000E+00 0.  1.
          5    1    5    5  501    0  0.60217161510E+02 -0.51200965115E+02  0.70300954461E+02  0.10588654101E+03  0.47000000000E+01 0. -1.
         13    1    4    4    0    0 -0.37052138543E+02  0.60231424391E+02  0.25904547391E+03  0.26852419446E+03  0.00000000000E+00 0. -1.
        -14    1    4    4    0    0  0.22354126643E+02  0.12051931593E+03  0.26173876512E+03  0.28901867354E+03  0.00000000000E+00 0.  1.
         -5    1    3    3    0  503  0.14485700522E+02  0.31120915879E+02  0.49058848111E+01  0.34992922578E+02  0.47000000000E+01 0.  1.
</event>
<event>
12    1  0.9749377E-001  0.2794588E+03  0.7818608E-02  0.1095985E+00
         21   -1    0    0  503  502  0.00000000000E+00  0.00000000000E+00  0.37101350486E+03  0.37101350486E+03  0.00000000000E+00 0.  1.
         21   -1    0    0  501  503 -0.00000000000E+00 -0.00000000000E+00 -0.50838573564E+03  0.50838573564E+03  0.00000000000E+00 0. -1.
          6    2    1    2  501    0  0.12740363242E+03  0.21577353911E+03 -0.38411355852E+03  0.48987977459E+03  0.17218902978E+03 0.  0.
         24    2    3    3    0    0  0.12295506789E+02  0.41026977655E+02 -0.15456066349E+03  0.17923067521E+03  0.80001524083E+02 0.  0.
         -6    2    1    2    0  502 -0.12740363242E+03 -0.21577353911E+03  0.24674132775E+03  0.38951946592E+03  0.16749395743E+03 0.  0.
        -24    2    5    5    0    0 -0.85346018035E+02 -0.43607403393E+02  0.10216123573E+03  0.16074990015E+03  0.78854701105E+02 0.  0.
         14    1    4    4    0    0  0.31286210887E+02  0.14396923508E+02 -0.13864047003E+03  0.14285404555E+03  0.00000000000E+00 0. -1.
        -13    1    4    4    0    0 -0.18990704098E+02  0.26630054147E+02 -0.15920193457E+02  0.36376629664E+02  0.00000000000E+00 0.  1.
          5    1    3    3  501    0  0.11510812563E+03  0.17474656145E+03 -0.22955289503E+03  0.31064909938E+03  0.47000000000E+01 0. -1.
         11    1    6    6    0    0 -0.17953373944E+02  0.86178348732E+01 -0.79893573847E+01  0.21457412363E+02  0.00000000000E+00 0. -1.
        -12    1    6    6    0    0 -0.67392644090E+02 -0.52225238266E+02  0.11015059312E+03  0.13929248779E+03  0.00000000000E+00 0.  1.
         -5    1    5    5    0  502 -0.42057614388E+02 -0.17216613571E+03  0.14458009201E+03  0.22876956577E+03  0.47000000000E+01 0.  1.
</event>
<event>
12    1  0.9749377E-001  0.8333548E+03  0.7818608E-02  0.9512954E-01
         21   -1    0    0  501  502  0.00000000000E+00  0.00000000000E+00  0.92015123619E+03  0.92015123619E+03  0.00000000000E+00 0.  1.
         21   -1    0    0  502  503 -0.00000000000E+00 -0.00000000000E+00 -0.86880540724E+03  0.86880540724E+03  0.00000000000E+00 0. -1.
         -6    2    1    2    0  503 -0.75774033645E+03  0.31250049008E+03 -0.28783826579E+03  0.88528839987E+03  0.17046322156E+03 0.  0.
        -24    2    3    3    0    0 -0.17601344102E+03  0.55543331533E+02 -0.59031127118E+02  0.20941270205E+03  0.79392774942E+02 0.  0.
          6    2    1    2  501    0  0.75774033645E+03 -0.31250049008E+03  0.33918409475E+03  0.90366824357E+03  0.17246295405E+03 0.  0.
         24    2    5    5    0    0  0.16636197672E+03 -0.74784125139E+02  0.58573370617E+02  0.20724746343E+03  0.79067684167E+02 0.  0.
         12    1    6    6    0    0  0.88710951124E+02 -0.73161632151E+02  0.59719310129E+02  0.12957103562E+03  0.00000000000E+00 0. -1.
        -11    1    6    6    0    0  0.77651025600E+02 -0.16224929875E+01 -0.11459395120E+01  0.77676427812E+02  0.00000000000E+00 0.  1.
          5    1    5    5  501    0  0.59137835972E+03 -0.23771636494E+03  0.28061072413E+03  0.69642078014E+03  0.47000000000E+01 0. -1.
         11    1    4    4    0    0 -0.17897861121E+03  0.38076728888E+02 -0.50982645362E+02  0.18995370668E+03  0.00000000000E+00 0. -1.
        -12    1    4    4    0    0  0.29651701880E+01  0.17466602645E+02 -0.80484817562E+01  0.19458995370E+02  0.00000000000E+00 0.  1.
         -5    1    3    3    0  503 -0.58172689542E+03  0.25695715855E+03 -0.22880713867E+03  0.67587569781E+03  0.47000000000E+01 0.  1.
</event>
<event>
12    1  0.9749377E-001  0.3763759E+03  0.7818608E-02  0.1052281E+00
         21   -1    0    0  503  502  0.00000000000E+00  0.00000000000E+00  0.85864842205E+03  0.85864842205E+03  0.00000000000E+00 0.  1.
         21   -1    0    0  501  503 -0.00000000000E+00 -0.00000000000E+00 -0.24952282876E+03  0.24952282876E+03  0.00000000000E+00 0. -1.
          6    2    1    2  501    0  0.28937149644E+03 -0.23277326434E+03  0.56316852129E+03  0.69634360973E+03  0.17267421316E+03 0.  0.
         24    2    3    3    0    0  0.21837130036E+03 -0.18456367482E+03  0.52376529596E+03  0.60179258366E+03  0.77938781135E+02 0.  0.
         -6    2    1    2    0  502 -0.28937149644E+03  0.23277326434E+03  0.45957071990E+02  0.41182764108E+03  0.17196132689E+03 0.  0.
        -24    2    5    5    0    0 -0.18358826588E+03  0.17143070265E+03 -0.33874873723E+02  0.26571730162E+03  0.79781201578E+02 0.  0.
         14    1    4    4    0    0  0.15372467681E+02 -0.43053868281E+02  0.11773285707E+03  0.12629716533E+03  0.00000000000E+00 0. -1.
        -13    1    4    4    0    0  0.20299883268E+03 -0.14150980654E+03  0.40603243889E+03  0.47549541833E+03  0.00000000000E+00 0.  1.
          5    1    3    3  501    0  0.71000196075E+02 -0.48209589523E+02  0.39403225331E+02  0.94551026072E+02  0.47000000000E+01 0. -1.
         11    1    6    6    0    0 -0.16192177385E+03  0.15385770773E+03 -0.20173573764E+01  0.22337171890E+03  0.00000000000E+00 0. -1.
        -12    1    6    6    0    0 -0.21666492039E+02  0.17572994926E+02 -0.31857516347E+02  0.42345582718E+02  0.00000000000E+00 0.  1.
         -5    1    5    5    0  502 -0.10578323055E+03  0.61342561689E+02  0.79831945713E+02  0.14611033946E+03  0.47000000000E+01 0.  1.
</event>
<event>
12    1  0.9749377E-001  0.3796312E+03  0.7818608E-02  0.1051070E+00
         21   -1    0    0  503  502  0.00000000000E+00  0.00000000000E+00  0.21249244298E+04  0.21249244298E+04  0.00000000000E+00 0.  1.
         21   -1    0    0  501  503 -0.00000000000E+00 -0.00000000000E+00 -0.10734750837E+03  0.10734750837E+03  0.00000000000E+00 0. -1.
          6    2    1    2  501    0  0.64772720916E+02 -0.35370035194E+03  0.16246589142E+04  0.16728189623E+04  0.17177674121E+03 0.  0.
         24    2    3    3    0    0  0.72521197942E+02 -0.26426349498E+03  0.14325625592E+04  0.14607291467E+04  0.79997719142E+02 0.  0.
         -6    2    1    2    0  502 -0.64772720916E+02  0.35370035194E+03  0.39291800716E+03  0.55945297581E+03  0.17118302325E+03 0.  0.
        -24    2    5    5    0    0  0.26677448320E+02  0.22516490175E+03  0.23165902953E+03  0.33381821945E+03  0.79735678618E+02 0.  0.
         14    1    4    4    0    0  0.86547647853E+02 -0.23810717439E+03  0.13319389644E+04  0.13558196513E+04  0.00000000000E+00 0. -1.
        -13    1    4    4    0    0 -0.14026449911E+02 -0.26156320589E+02  0.10062359480E+03  0.10490949544E+03  0.00000000000E+00 0.  1.
          5    1    3    3  501    0 -0.77484770265E+01 -0.89436856959E+02  0.19209635501E+03  0.21208981562E+03  0.47000000000E+01 0. -1.
         11    1    6    6    0    0 -0.58078450193E+01  0.21021833324E+02  0.64150951665E+02  0.67756867841E+02  0.00000000000E+00 0. -1.
        -12    1    6    6    0    0  0.32485293340E+02  0.20414306843E+03  0.16750807787E+03  0.26606135161E+03  0.00000000000E+00 0.  1.
         -5    1    5    5    0  502 -0.91450169236E+02  0.12853545019E+03  0.16125897763E+03  0.22563475635E+03  0.47000000000E+01 0.  1.
</event>
<event>
12    1  0.9749377E-001  0.1994875E+03  0.7818608E-02  0.1150172E+00
         21   -1    0    0  501  502  0.00000000000E+00  0.00000000000E+00  0.20960582588E+03  0.20960582588E+03  0.00000000000E+00 0.  1.
         21   -1    0    0  502  503 -0.00000000000E+00 -0.00000000000E+00 -0.25207147665E+03  0.25207147665E+03  0.00000000000E+00 0. -1.
         -6    2    1    2    0  503 -0.96811641582E+00  0.15057165347E+03 -0.48269929691E+02  0.23230377480E+03  0.17018312960E+03 0.  0.
        -24    2    3    3    0    0 -0.82110844353E+00  0.67796697979E+02  0.37958945737E+02  0.11268260684E+03  0.81605280756E+02 0.  0.
          6    2    1    2  501    0  0.96811641582E+00 -0.15057165347E+03  0.58042789222E+01  0.22937352773E+03  0.17293283521E+03 0.  0.
         24    2    5    5    0    0  0.58285308876E+02 -0.46755965120E+02 -0.11849665187E+02  0.10938723918E+03  0.79005417693E+02 0.  0.
         14    1    6    6    0    0  0.46167003958E+02 -0.33239075747E+01  0.23668995764E+02  0.51987132798E+02  0.00000000000E+00 0. -1.
        -13    1    6    6    0    0  0.12118304917E+02 -0.43432057545E+02 -0.35518660951E+02  0.57400106380E+02  0.00000000000E+00 0.  1.
          5    1    5    5  501    0 -0.57317192460E+02 -0.10381568835E+03  0.17653944109E+02  0.11998628855E+03  0.47000000000E+01 0. -1.
         13    1    4    4    0    0 -0.29639803520E+02 -0.27849062131E+01  0.12735572304E+02  0.32380062651E+02  0.00000000000E+00 0. -1.
        -14    1    4    4    0    0  0.28818695077E+02  0.70581604192E+02  0.25223373433E+02  0.80302544191E+02  0.00000000000E+00 0.  1.
         -5    1    3    3    0  503 -0.14700797230E+00  0.82774955487E+02 -0.86228875428E+02  0.11962116796E+03  0.47000000000E+01 0.  1.
</event>
<event>
12    1  0.9749377E-001  0.4354421E+03  0.7818608E-02  0.1032155E+00
         21   -1    0    0  501  502  0.00000000000E+00  0.00000000000E+00  0.42533568060E+03  0.42533568060E+03  0.00000000000E+00 0.  1.
         21   -1    0    0  502  503 -0.00000000000E+00 -0.00000000000E+00 -0.54943397629E+03  0.54943397629E+03  0.00000000000E+00 0. -1.
         -6    2    1    2    0  503  0.20413234702E+02 -0.41821620488E+03  0.10763045477E+03  0.46632275015E+03  0.17478872487E+03 0.  0.
        -24    2    3    3    0    0  0.30338083254E+02 -0.42895644613E+03  0.97324804969E+02  0.44782540389E+03  0.78431133717E+02 0.  0.
          6    2    1    2  501    0 -0.20413234702E+02  0.41821620488E+03 -0.23172875046E+03  0.50844690674E+03  0.17175141632E+03 0.  0.
         24    2    5    5    0    0 -0.13821387831E+02  0.16499820386E+03 -0.16373205318E+03  0.24613325989E+03  0.79736806710E+02 0.  0.
         12    1    6    6    0    0 -0.17505338929E+02  0.16301053600E+03 -0.17153226460E+03  0.23728082421E+03  0.00000000000E+00 0. -1.
        -11    1    6    6    0    0  0.36839510978E+01  0.19876678603E+01  0.78002114200E+01  0.88524356767E+01  0.00000000000E+00 0.  1.
          5    1    5    5  501    0 -0.65918468705E+01  0.25321800101E+03 -0.67996697282E+02  0.26231364685E+03  0.47000000000E+01 0. -1.
         11    1    4    4    0    0 -0.64039014047E+01 -0.29692808458E+03  0.41653014989E+02  0.29990376961E+03  0.00000000000E+00 0. -1.
        -12    1    4    4    0    0  0.36741984659E+02 -0.13202836154E+03  0.55671789980E+02  0.14792163428E+03  0.00000000000E+00 0.  1.
         -5    1    3    3    0  503 -0.99248485520E+01  0.10740241250E+02  0.10305649800E+02  0.18497346261E+02  0.47000000000E+01 0.  1.
</event>
<event>
12    1  0.9749377E-001  0.1007930E+04  0.7818608E-02  0.9299890E-01
         21   -1    0    0  501  502  0.00000000000E+00  0.00000000000E+00  0.20429968824E+04  0.20429968824E+04  0.00000000000E+00 0. -1.
         21   -1    0    0  502  503 -0.00000000000E+00 -0.00000000000E+00 -0.50277430451E+03  0.50277430451E+03  0.00000000000E+00 0.  1.
         -6    2    1    2    0  503  0.77715185524E+03 -0.62062819413E+03  0.88825641617E+03  0.13442208912E+04  0.16966432144E+03 0.  0.
        -24    2    3    3    0    0  0.50383032955E+03 -0.48436125774E+03  0.62344856834E+03  0.93997020085E+03  0.80031444761E+02 0.  0.
          6    2    1    2  501    0 -0.77715185524E+03  0.62062819413E+03  0.65196616173E+03  0.12015502957E+04  0.17181058083E+03 0.  0.
         24    2    5    5    0    0 -0.22598089467E+03  0.14236980564E+03  0.19541465849E+03  0.34074725261E+03  0.81149707920E+02 0.  0.
         14    1    6    6    0    0 -0.16699401660E+03  0.59192279380E+02  0.12418899337E+03  0.21636458488E+03  0.00000000000E+00 0. -1.
        -13    1    6    6    0    0 -0.58986878073E+02  0.83177526257E+02  0.71225665126E+02  0.12438266773E+03  0.00000000000E+00 0.  1.
          5    1    5    5  501    0 -0.55117096057E+03  0.47825838849E+03  0.45655150324E+03  0.86080304312E+03  0.47000000000E+01 0. -1.
         13    1    4    4    0    0  0.67635409162E+02 -0.38746990267E+02  0.48576839373E+02  0.91845452532E+02  0.00000000000E+00 0. -1.
        -14    1    4    4    0    0  0.43619492038E+03 -0.44561426747E+03  0.57487172896E+03  0.84812474832E+03  0.00000000000E+00 0.  1.
         -5    1    3    3    0  503  0.27332152570E+03 -0.13626693639E+03  0.26480784784E+03  0.40425069034E+03  0.47000000000E+01 0.  1.
</event>
<event>
12    1  0.9749377E-001  0.3272649E+03  0.7818608E-02  0.1072354E+00
         21   -1    0    0  503  502  0.00000000000E+00  0.00000000000E+00  0.69186362614E+03  0.69186362614E+03  0.00000000000E+00 0. -1.
         21   -1    0    0  501  503 -0.00000000000E+00 -0.00000000000E+00 -0.44474846711E+03  0.44474846711E+03  0.00000000000E+00 0.  1.
          6    2    1    2  501    0 -0.21006019674E+03  0.21817826486E+03 -0.31966543019E+03  0.47067442302E+03  0.16619682220E+03 0.  0.
         24    2    3    3    0    0 -0.21606838724E+03  0.21954755325E+03 -0.26184047507E+03  0.41233242495E+03  0.81061200185E+02 0.  0.
         -6    2    1    2    0  502  0.21006019674E+03 -0.21817826486E+03  0.56678058922E+03  0.66593767023E+03  0.17465881829E+03 0.  0.
        -24    2    5    5    0    0  0.77781017422E+02 -0.14708111731E+03  0.21402051928E+03  0.28251317621E+03  0.79537226003E+02 0.  0.
         14    1    4    4    0    0 -0.17235630367E+03  0.13523722442E+03 -0.21293583580E+03  0.30551182048E+03  0.00000000000E+00 0. -1.
        -13    1    4    4    0    0 -0.43712083577E+02  0.84310328828E+02 -0.48904639267E+02  0.10682060447E+03  0.00000000000E+00 0.  1.
          5    1    3    3  501    0  0.60081905029E+01 -0.13692883882E+01 -0.57824955119E+02  0.58341998066E+02  0.47000000000E+01 0. -1.
         11    1    6    6    0    0  0.73397872520E+02 -0.58673926860E+02  0.13052417646E+03  0.16083046360E+03  0.00000000000E+00 0. -1.
        -12    1    6    6    0    0  0.43831449025E+01 -0.88407190453E+02  0.83496342820E+02  0.12168271261E+03  0.00000000000E+00 0.  1.
         -5    1    5    5    0  502  0.13227917932E+03 -0.71097147551E+02  0.35276006994E+03  0.38342449402E+03  0.47000000000E+01 0.  1.
</event>
<event>
12    1  0.9749377E-001  0.3087132E+03  0.7818608E-02  0.1080964E+00
         21   -1    0    0  501  502  0.00000000000E+00  0.00000000000E+00  0.82898592154E+03  0.82898592154E+03  0.00000000000E+00 0.  1.
         21   -1    0    0  502  503 -0.00000000000E+00 -0.00000000000E+00 -0.15752000813E+03  0.15752000813E+03  0.00000000000E+00 0. -1.
         -6    2    1    2    0  503 -0.74026415653E+02  0.27373088365E+03  0.53095989968E+03  0.62629870074E+03  0.17298306450E+03 0.  0.
        -24    2    3    3    0    0  0.18430982674E+02  0.99374925385E+02  0.26938519476E+03  0.29859183944E+03  0.79834995515E+02 0.  0.
          6    2    1    2  501    0  0.74026415653E+02 -0.27373088365E+03  0.14050601373E+03  0.36020722892E+03  0.17204302077E+03 0.  0.
         24    2    5    5    0    0  0.38756192191E+02 -0.23397062045E+03  0.16725523428E+03  0.30052073135E+03  0.78064735387E+02 0.  0.
         12    1    6    6    0    0  0.47376894873E+02 -0.22683693792E+03  0.17177288840E+03  0.28845362151E+03  0.00000000000E+00 0. -1.
        -11    1    6    6    0    0 -0.86207026821E+01 -0.71336825272E+01 -0.45176541201E+01  0.12067109840E+02  0.00000000000E+00 0.  1.
          5    1    5    5  501    0  0.35270223462E+02 -0.39760263200E+02 -0.26749220545E+02  0.59686497573E+02  0.47000000000E+01 0. -1.
         11    1    4    4    0    0  0.29870076400E+02  0.70274703838E+01  0.10827965180E+03  0.11254372394E+03  0.00000000000E+00 0. -1.
        -12    1    4    4    0    0 -0.11439093727E+02  0.92347455002E+02  0.16110554296E+03  0.18604811551E+03  0.00000000000E+00 0.  1.
         -5    1    3    3    0  503 -0.92457398327E+02  0.17435595826E+03  0.26157470492E+03  0.32770686130E+03  0.47000000000E+01 0.  1.
</event>
<event>
12    1  0.9749377E-001  0.7147654E+03  0.7818608E-02  0.9692309E-01
         21   -1    0    0  503  502  0.00000000000E+00  0.00000000000E+00  0.11329778333E+04  0.11329778333E+04  0.00000000000E+00 0. -1.
         21   -1    0    0  501  503 -0.00000000000E+00 -0.00000000000E+00 -0.79376434528E+03  0.79376434528E+03  0.00000000000E+00 0.  1.
          6    2    1    2  501    0 -0.33779785491E+03 -0.61111540594E+03  0.79725781807E+03  0.10737565245E+04  0.17252134699E+03 0.  0.
         24    2    3    3    0    0 -0.30651745204E+03 -0.60896349745E+03  0.74993235436E+03  0.10167926427E+04  0.81726693379E+02 0.  0.
         -6    2    1    2    0  502  0.33779785491E+03  0.61111540594E+03 -0.45804433003E+03  0.85298565415E+03  0.17381164445E+03 0.  0.
        -24    2    5    5    0    0  0.97748131037E+02  0.15422806562E+03 -0.17042231856E+03  0.26212321401E+03  0.79522445353E+02 0.  0.
         14    1    4    4    0    0 -0.14309915091E+03 -0.20095828142E+03  0.25269343338E+03  0.35315091552E+03  0.00000000000E+00 0. -1.
        -13    1    4    4    0    0 -0.16341830113E+03 -0.40800521603E+03  0.49723892099E+03  0.66364172714E+03  0.00000000000E+00 0.  1.
          5    1    3    3  501    0 -0.31280402875E+02 -0.21519084917E+01  0.47325463708E+02  0.56963881797E+02  0.47000000000E+01 0. -1.
         11    1    6    6    0    0  0.53150806823E+02  0.13823216579E+03 -0.14914992370E+03  0.21018762966E+03  0.00000000000E+00 0. -1.
        -12    1    6    6    0    0  0.44597324213E+02  0.15995899829E+02 -0.21272394861E+02  0.51935584347E+02  0.00000000000E+00 0.  1.
         -5    1    5    5    0  502  0.24004972388E+03  0.45688734032E+03 -0.28762201147E+03  0.59086244014E+03  0.47000000000E+01 0.  1.
</event>
<event>
12    1  0.9749377E-001  0.5277395E+03  0.7818608E-02  0.1006782E+00
         21   -1    0    0  501  502  0.00000000000E+00  0.00000000000E+00  0.22718162143E+04  0.22718162143E+04  0.00000000000E+00 0. -1.
         21   -1    0    0  502  503 -0.00000000000E+00 -0.00000000000E+00 -0.13145162077E+03  0.13145162077E+03  0.00000000000E+00 0.  1.
         -6    2    1    2    0  503 -0.34330843489E+03 -0.37637554249E+03  0.12833473302E+04  0.13915455811E+04  0.17291472995E+03 0.  0.
        -24    2    3    3    0    0 -0.32870487322E+03 -0.38363824015E+03  0.12722404911E+04  0.13712610386E+04  0.80844144065E+02 0.  0.
          6    2    1    2  501    0  0.34330843489E+03  0.37637554249E+03  0.85701726331E+03  0.10117222540E+04  0.17200028817E+03 0.  0.
         24    2    5    5    0    0  0.76280061267E+02  0.10094285338E+03  0.19089426180E+03  0.24301602811E+03  0.81289995291E+02 0.  0.
         12    1    6    6    0    0 -0.13573357539E+02  0.34702442207E+02  0.63562803421E+02  0.73679885374E+02  0.00000000000E+00 0. -1.
        -11    1    6    6    0    0  0.89853418806E+02  0.66240411169E+02  0.12733145838E+03  0.16933614274E+03  0.00000000000E+00 0.  1.
          5    1    5    5  501    0  0.26702837362E+03  0.27543268911E+03  0.66612300151E+03  0.76870622587E+03  0.47000000000E+01 0. -1.
         13    1    4    4    0    0 -0.27551917161E+03 -0.30492720844E+03  0.11046573005E+04  0.11786259661E+04  0.00000000000E+00 0. -1.
        -14    1    4    4    0    0 -0.53185701612E+02 -0.78711031706E+02  0.16758319061E+03  0.19263507246E+03  0.00000000000E+00 0.  1.
         -5    1    3    3    0  503 -0.14603561668E+02  0.72626976546E+01  0.11106839052E+02  0.20284542498E+02  0.47000000000E+01 0.  1.
</event>
<event>
12    1  0.9749377E-001  0.2825149E+03  0.7818608E-02  0.1094323E+00
         21   -1    0    0  501  502  0.00000000000E+00  0.00000000000E+00  0.20135270290E+03  0.20135270290E+03  0.00000000000E+00 0.  1.
         21   -1    0    0  502  503 -0.00000000000E+00 -0.00000000000E+00 -0.45169826623E+03  0.45169826623E+03  0.00000000000E+00 0. -1.
         -6    2    1    2    0  503  0.17515055416E+03 -0.16806622706E+03 -0.17757776068E+03  0.34645865045E+03  0.17197605089E+03 0.  0.
        -24    2    3    3    0    0  0.10925465927E+02 -0.52672314868E+02 -0.53417558150E+02  0.11040043629E+03  0.80256353365E+02 0.  0.
          6    2    1    2  501    0 -0.17515055416E+03  0.16806622706E+03 -0.72767802646E+02  0.30659231868E+03  0.17256802563E+03 0.  0.
         24    2    5    5    0    0 -0.80957594558E+02  0.69663263734E+02 -0.10088510084E+03  0.16742289213E+03  0.80283988478E+02 0.  0.
         14    1    6    6    0    0 -0.55620189490E+02  0.85900399866E+02 -0.86831239362E+02  0.13420934507E+03  0.00000000000E+00 0. -1.
        -13    1    6    6    0    0 -0.25337405068E+02 -0.16237136132E+02 -0.14053861477E+02  0.33213547052E+02  0.00000000000E+00 0.  1.
          5    1    5    5  501    0 -0.94192959605E+02  0.98402963325E+02  0.28117298193E+02  0.13916942656E+03  0.47000000000E+01 0. -1.
         11    1    4    4    0    0  0.44359347039E+02 -0.19568260087E+02 -0.18859072854E+02  0.52022428831E+02  0.00000000000E+00 0. -1.
        -12    1    4    4    0    0 -0.33433881112E+02 -0.33104054781E+02 -0.34558485296E+02  0.58378007461E+02  0.00000000000E+00 0.  1.
         -5    1    3    3    0  503  0.16422508824E+03 -0.11539391219E+03 -0.12416020253E+03  0.23605821415E+03  0.47000000000E+01 0.  1.
</event>
<event>
12    1  0.9749377E-001  0.2006435E+03  0.7818608E-02  0.1149197E+00
         21   -1    0    0  501  502  0.00000000000E+00  0.00000000000E+00  0.33761893238E+03  0.33761893238E+03  0.00000000000E+00 0.  1.
         21   -1    0    0  502  503 -0.00000000000E+00 -0.00000000000E+00 -0.16038151118E+03  0.16038151118E+03  0.00000000000E+00 0. -1.
         -6    2    1    2    0  503  0.13602519331E+03 -0.14606175025E+01  0.17117854790E+03  0.27906323105E+03  0.17340474343E+03 0.  0.
        -24    2    3    3    0    0  0.97145411236E+02 -0.36857987459E+02  0.38481279750E+02  0.13625123496E+03  0.79295951805E+02 0.  0.
          6    2    1    2  501    0 -0.13602519331E+03  0.14606175025E+01  0.60588733012E+01  0.21893721250E+03  0.17144038747E+03 0.  0.
         24    2    5    5    0    0 -0.98884166487E+01 -0.33314802676E+02 -0.73209182415E+01  0.87328226882E+02  0.79780740190E+02 0.  0.
         12    1    6    6    0    0  0.54517872196E+01 -0.57769224235E+02 -0.71094672054E+01  0.58459813347E+02  0.00000000000E+00 0. -1.
        -11    1    6    6    0    0 -0.15340203868E+02  0.24454421559E+02 -0.21145103610E+00  0.28868413535E+02  0.00000000000E+00 0.  1.
          5    1    5    5  501    0 -0.12613677666E+03  0.34775420179E+02  0.13379791543E+02  0.13160898562E+03  0.47000000000E+01 0. -1.
         11    1    4    4    0    0  0.69651424530E+02 -0.62128262723E+02  0.26228022253E+02  0.96949219282E+02  0.00000000000E+00 0. -1.
        -12    1    4    4    0    0  0.27493986706E+02  0.25270275264E+02  0.12253257497E+02  0.39302015676E+02  0.00000000000E+00 0.  1.
         -5    1    3    3    0  503  0.38879782073E+02  0.35397369957E+02  0.13269726815E+03  0.14281199609E+03  0.47000000000E+01 0.  1.
</event>
<event>
12    1  0.9749377E-001  0.7227149E+03  0.7818608E-02  0.9679156E-01
         21   -1    0    0  503  502  0.00000000000E+00  0.00000000000E+00  0.16460279021E+04  0.16460279021E+04  0.00000000000E+00 0. -1.
         21   -1    0    0  501  503 -0.00000000000E+00 -0.00000000000E+00 -0.41366228888E+03  0.41366228888E+03  0.00000000000E+00 0.  1.
          6    2    1    2  501    0 -0.35992795060E+03 -0.61124237903E+03  0.13543977858E+03  0.74214982884E+03  0.17110540399E+03 0.  0.
         24    2    3    3    0    0 -0.35766031259E+03 -0.55505911684E+03  0.93006156085E+02  0.67154952111E+03  0.79480134931E+02 0.  0.
         -6    2    1    2    0  502  0.35992795060E+03  0.61124237903E+03  0.10969258346E+04  0.13175403621E+04  0.17175838737E+03 0.  0.
        -24    2    5    5    0    0  0.36479255905E+03  0.52919446798E+03  0.97666489496E+03  0.11717998128E+04  0.78230991598E+02 0.  0.
         14    1    4    4    0    0 -0.28953868562E+03 -0.42110139705E+03  0.10152543259E+03  0.52102442412E+03  0.00000000000E+00 0. -1.
        -13    1    4    4    0    0 -0.68121626968E+02 -0.13395771979E+03 -0.85192765054E+01  0.15052509699E+03  0.00000000000E+00 0.  1.
          5    1    3    3  501    0 -0.22676380084E+01 -0.56183262196E+02  0.42433622493E+02  0.70600307726E+02  0.47000000000E+01 0. -1.
         13    1    6    6    0    0  0.10626234245E+03  0.20305107172E+03  0.30229184611E+03  0.37934388538E+03  0.00000000000E+00 0. -1.
        -14    1    6    6    0    0  0.25853021660E+03  0.32614339626E+03  0.67437304885E+03  0.79245592738E+03  0.00000000000E+00 0.  1.
         -5    1    5    5    0  502 -0.48646084512E+01  0.82047911056E+02  0.12026093965E+03  0.14574054937E+03  0.47000000000E+01 0.  1.
</event>
<event>
12    1  0.9749377E-001  0.3446976E+03  0.7818608E-02  0.1064813E+00
         21   -1    0    0  503  502  0.00000000000E+00  0.00000000000E+00  0.82897221588E+03  0.82897221588E+03  0.00000000000E+00 0. -1.
         21   -1    0    0  501  503 -0.00000000000E+00 -0.00000000000E+00 -0.15861286172E+03  0.15861286172E+03  0.00000000000E+00 0.  1.
          6    2    1    2  501    0  0.30173407996E+03  0.84944841248E+02  0.25492882592E+03  0.43921958059E+03  0.17223835991E+03 0.  0.
         24    2    3    3    0    0  0.31392726867E+03  0.87758051272E+02  0.22002383962E+03  0.40184263489E+03  0.82554270857E+02 0.  0.
         -6    2    1    2    0  502 -0.30173407996E+03 -0.84944841248E+02  0.41543052824E+03  0.54836549701E+03  0.17280947152E+03 0.  0.
        -24    2    5    5    0    0 -0.31445141294E+03 -0.61754870780E+02  0.39303813644E+03  0.51339387281E+03  0.80005854679E+02 0.  0.
         14    1    4    4    0    0  0.22444911714E+03  0.77797416431E+02  0.19777548670E+03  0.30910352202E+03  0.00000000000E+00 0. -1.
        -13    1    4    4    0    0  0.89478151529E+02  0.99606348413E+01  0.22248352921E+02  0.92739112866E+02  0.00000000000E+00 0.  1.
          5    1    3    3  501    0 -0.12193188706E+02 -0.28132100244E+01  0.34904986302E+02  0.37376945704E+02  0.47000000000E+01 0. -1.
         13    1    6    6    0    0 -0.12846957257E+03 -0.38746603632E+02  0.22348618689E+03  0.26067567224E+03  0.00000000000E+00 0. -1.
        -14    1    6    6    0    0 -0.18598184036E+03 -0.23008267148E+02  0.16955194955E+03  0.25271820057E+03  0.00000000000E+00 0.  1.
         -5    1    5    5    0  502  0.12717332973E+02 -0.23189970468E+02  0.22392391802E+02  0.34971624195E+02  0.47000000000E+01 0.  1.
</event>
<event>
12    1  0.9749377E-001  0.1081791E+04  0.7818608E-02  0.9223124E-01
         21   -1    0    0  501  502  0.00000000000E+00  0.00000000000E+00  0.60218658274E+03  0.60218658274E+03  0.00000000000E+00 0.  1.
         21   -1    0    0  502  503 -0.00000000000E+00 -0.00000000000E+00 -0.19617144124E+04  0.19617144124E+04  0.00000000000E+00 0. -1.
         -6    2    1    2    0  503  0.80799081207E+03 -0.70487192832E+03 -0.72565916031E+03  0.13063982759E+04  0.17436069117E+03 0.  0.
        -24    2    3    3    0    0  0.20446528158E+03 -0.16152975776E+03 -0.15700921819E+03  0.31501105240E+03  0.81744446433E+02 0.  0.
          6    2    1    2  501    0 -0.80799081207E+03  0.70487192832E+03 -0.63386866940E+03  0.12575027193E+04  0.17271366834E+03 0.  0.
         24    2    5    5    0    0 -0.19602830397E+03  0.19112230230E+03 -0.19581674289E+03  0.34626818861E+03  0.81256576712E+02 0.  0.
         14    1    6    6    0    0  0.86728081603E+00 -0.54663716495E+01 -0.10792863565E+02  0.12129274461E+02  0.00000000000E+00 0. -1.
        -13    1    6    6    0    0 -0.19689558478E+03  0.19658867395E+03 -0.18502387932E+03  0.33413891415E+03  0.00000000000E+00 0.  1.
          5    1    5    5  501    0 -0.61196250810E+03  0.51374962602E+03 -0.43805192651E+03  0.91123453067E+03  0.47000000000E+01 0. -1.
         11    1    4    4    0    0  0.36875990010E+02 -0.66475228451E+02 -0.70990054416E+02  0.10401145352E+03  0.00000000000E+00 0. -1.
        -12    1    4    4    0    0  0.16758929157E+03 -0.95054529307E+02 -0.86019163778E+02  0.21099959888E+03  0.00000000000E+00 0.  1.
         -5    1    3    3    0  503  0.60352553048E+03 -0.54334217056E+03 -0.56864994212E+03  0.99138722350E+03  0.47000000000E+01 0.  1.
</event>
<event>
12    1  0.9749377E-001  0.6059052E+03  0.7818608E-02  0.9893230E-01
         21   -1    0    0  503  502  0.00000000000E+00  0.00000000000E+00  0.57566422775E+03  0.57566422775E+03  0.00000000000E+00 0.  1.
         21   -1    0    0  501  503 -0.00000000000E+00 -0.00000000000E+00 -0.67631515060E+03  0.67631515060E+03  0.00000000000E+00 0. -1.
          6    2    1    2  501    0 -0.28645318368E+03 -0.52048387272E+03  0.49647427777E+01  0.62444195624E+03  0.19220879229E+03 0.  0.
         24    2    3    3    0    0 -0.24736318702E+03 -0.31151782723E+03  0.45706989552E+02  0.40793131751E+03  0.78018766603E+02 0.  0.
         -6    2    1    2    0  502  0.28645318368E+03  0.52048387272E+03 -0.10561566563E+03  0.62753742210E+03  0.17230687481E+03 0.  0.
        -24    2    5    5    0    0  0.85123027748E+02  0.10338983674E+03 -0.91156263443E+01  0.15442473561E+03  0.76344719072E+02 0.  0.
         12    1    4    4    0    0 -0.63069598559E+02 -0.10030302800E+03  0.47396865020E+02  0.12761243866E+03  0.00000000000E+00 0. -1.
        -11    1    4    4    0    0 -0.18429358846E+03 -0.21121479923E+03 -0.16898754689E+01  0.28031887885E+03  0.00000000000E+00 0.  1.
          5    1    3    3  501    0 -0.39089996665E+02 -0.20896604549E+03 -0.40742246774E+02  0.21651063872E+03  0.47000000000E+01 0. -1.
         13    1    6    6    0    0  0.65706243770E+02  0.96200307946E+02 -0.34658251069E+02  0.12154424744E+03  0.00000000000E+00 0. -1.
        -14    1    6    6    0    0  0.19416783978E+02  0.71895287968E+01  0.25542624724E+02  0.32880488168E+02  0.00000000000E+00 0.  1.
         -5    1    5    5    0  502  0.20133015593E+03  0.41709403598E+03 -0.96500039283E+02  0.47311268649E+03  0.47000000000E+01 0.  1.
</event>
<event>
12    1  0.9749377E-001  0.2416978E+03  0.7818608E-02  0.1118667E+00
         21   -1    0    0  503  502  0.00000000000E+00  0.00000000000E+00  0.17789984955E+04  0.17789984955E+04  0.00000000000E+00 0. -1.
         21   -1    0    0  501  503 -0.00000000000E+00 -0.00000000000E+00 -0.37863844045E+02  0.37863844045E+02  0.00000000000E+00 0.  1.
          6    2    1    2  501    0  0.47580144423E+02 -0.18375953671E+03  0.11106708889E+04  0.11398628283E+04  0.17223822626E+03 0.  0.
         24    2    3    3    0    0  0.36762776744E+02 -0.20882478835E+02  0.31439668475E+03  0.32701557973E+03  0.79412431846E+02 0.  0.
         -6    2    1    2    0  502 -0.47580144423E+02  0.18375953671E+03  0.63046376256E+03  0.67699951118E+03  0.15751934724E+03 0.  0.
        -24    2    5    5    0    0  0.71334512235E+01  0.15843950312E+03  0.53794291843E+03  0.56646952317E+03  0.79694258995E+02 0.  0.
         14    1    4    4    0    0 -0.59998794872E+00  0.27788436821E+02  0.78734151448E+02  0.83496250279E+02  0.00000000000E+00 0. -1.
        -13    1    4    4    0    0  0.37362764693E+02 -0.48670915657E+02  0.23566253330E+03  0.24351932945E+03  0.00000000000E+00 0.  1.
          5    1    3    3  501    0  0.10817367679E+02 -0.16287705788E+03  0.79627420412E+03  0.81284724861E+03  0.47000000000E+01 0. -1.
         11    1    6    6    0    0 -0.27103790987E+02  0.51733168558E+02  0.11565042878E+03  0.12956063404E+03  0.00000000000E+00 0. -1.
        -12    1    6    6    0    0  0.34237242210E+02  0.10670633456E+03  0.42229248965E+03  0.43690888913E+03  0.00000000000E+00 0.  1.
         -5    1    5    5    0  502 -0.54713595647E+02  0.25320033591E+02  0.92520844128E+02  0.11052998800E+03  0.47000000000E+01 0.  1.
</event>
<event>
12    1  0.9749377E-001  0.2180382E+03  0.7818608E-02  0.1135354E+00
         21   -1    0    0  501  502  0.00000000000E+00  0.00000000000E+00  0.19911331609E+04  0.19911331609E+04  0.00000000000E+00 0. -1.
         21   -1    0    0  502  503 -0.00000000000E+00 -0.00000000000E+00 -0.35879171938E+02  0.35879171938E+02  0.00000000000E+00 0.  1.
         -6    2    1    2    0  503  0.14704020486E+03  0.59613671846E+02  0.14636881275E+04  0.14823347958E+04  0.17250768310E+03 0.  0.
        -24    2    3    3    0    0  0.45803342088E+02  0.88575177741E+02  0.73573042261E+03  0.74678589789E+03  0.80289565142E+02 0.  0.
          6    2    1    2  501    0 -0.14704020486E+03 -0.59613671846E+02  0.49156586148E+03  0.54467753699E+03  0.17280628291E+03 0.  0.
         24    2    5    5    0    0 -0.86502532533E+02 -0.95749889104E+02  0.40718687848E+03  0.43462055747E+03  0.80269206889E+02 0.  0.
         12    1    6    6    0    0 -0.64568332005E+02 -0.87344551986E+02  0.21377165092E+03  0.23978419255E+03  0.00000000000E+00 0. -1.
        -11    1    6    6    0    0 -0.21934200528E+02 -0.84053371183E+01  0.19341522756E+03  0.19483636493E+03  0.00000000000E+00 0.  1.
          5    1    5    5  501    0 -0.60537672327E+02  0.36136217258E+02  0.84378983003E+02  0.11005697952E+03  0.47000000000E+01 0. -1.
         13    1    4    4    0    0  0.24528755873E+02 -0.10419860191E+02  0.14068257215E+03  0.14318456431E+03  0.00000000000E+00 0. -1.
        -14    1    4    4    0    0  0.21274586215E+02  0.98995037932E+02  0.59504785046E+03  0.60360133357E+03  0.00000000000E+00 0.  1.
         -5    1    3    3    0  503  0.10123686277E+03 -0.28961505895E+02  0.72795770485E+03  0.73554889793E+03  0.47000000000E+01 0.  1.
</event>
<event>
12    1  0.9749377E-001  0.2984790E+03  0.7818608E-02  0.1086003E+00
         21   -1    0    0  501  502  0.00000000000E+00  0.00000000000E+00  0.77735729784E+02  0.77735729784E+02  0.00000000000E+00 0. -1.
         21   -1    0    0  502  503 -0.00000000000E+00 -0.00000000000E+00 -0.12467903856E+04  0.12467903856E+04  0.00000000000E+00 0.  1.
         -6    2    1    2    0  503  0.14339706477E+03  0.21472315692E+03 -0.51661066455E+03  0.60246420620E+03  0.17148699288E+03 0.  0.
        -24    2    3    3    0    0  0.12487754541E+03  0.73251533152E+02 -0.25224390378E+03  0.30201609566E+03  0.81403603037E+02 0.  0.
          6    2    1    2  501    0 -0.14339706477E+03 -0.21472315692E+03 -0.65244399132E+03  0.72206190923E+03  0.17035693895E+03 0.  0.
         24    2    5    5    0    0 -0.43184535949E+02 -0.25232437354E+02 -0.17130561439E+03  0.19531195765E+03  0.79369813153E+02 0.  0.
         14    1    6    6    0    0  0.13853381802E+02  0.91175042877E+01 -0.69502598157E+01  0.17981968282E+02  0.00000000000E+00 0. -1.
        -13    1    6    6    0    0 -0.57037917751E+02 -0.34349941642E+02 -0.16435535458E+03  0.17732998937E+03  0.00000000000E+00 0.  1.
          5    1    5    5  501    0 -0.10021252882E+03 -0.18949071957E+03 -0.48113837692E+03  0.52674995157E+03  0.47000000000E+01 0. -1.
         13    1    4    4    0    0  0.10830504350E+03  0.33197948003E+02 -0.13061570485E+03  0.17289461690E+03  0.00000000000E+00 0. -1.
        -14    1    4    4    0    0  0.16572501910E+02  0.40053585149E+02 -0.12162819893E+03  0.12912147876E+03  0.00000000000E+00 0.  1.
         -5    1    3    3    0  503  0.18519519360E+02  0.14147162377E+03 -0.26436676077E+03  0.30044811054E+03  0.47000000000E+01 0.  1.
</event>
<event>
12    1  0.9749377E-001  0.2940278E+03  0.7818608E-02  0.1088265E+00
         21   -1    0    0  501  502  0.00000000000E+00  0.00000000000E+00  0.54652641868E+03  0.54652641868E+03  0.00000000000E+00 0.  1.
         21   -1    0    0  502  503 -0.00000000000E+00 -0.00000000000E+00 -0.21302508032E+03  0.21302508032E+03  0.00000000000E+00 0. -1.
         -6    2    1    2    0  503  0.18290679553E+03  0.21270213131E+03  0.26880503466E+03  0.42337002879E+03  0.16819316904E+03 0.  0.
        -24    2    3    3    0    0  0.37944446516E+02  0.11776167607E+03  0.82939608470E+02  0.16921295271E+03  0.80289795991E+02 0.  0.
          6    2    1    2  501    0 -0.18290679553E+03 -0.21270213131E+03  0.64696303709E+02  0.33618147020E+03  0.17359515167E+03 0.  0.
         24    2    5    5    0    0 -0.82172713677E+02 -0.93431117152E+02 -0.33554351528E+02  0.15165989608E+03  0.79956869913E+02 0.  0.
         14    1    6    6    0    0 -0.76806645100E+02 -0.65192694056E+02  0.80796783942E+01  0.10106744922E+03  0.00000000000E+00 0. -1.
        -13    1    6    6    0    0 -0.53660685762E+01 -0.28238423096E+02 -0.41634029922E+02  0.50592446852E+02  0.00000000000E+00 0.  1.
          5    1    5    5  501    0 -0.10073408185E+03 -0.11927101415E+03  0.98250655236E+02  0.18452157413E+03  0.47000000000E+01 0. -1.
         13    1    4    4    0    0  0.37742068485E+02  0.57575539072E+02  0.26827758476E+01  0.68895600144E+02  0.00000000000E+00 0. -1.
        -14    1    4    4    0    0  0.20237803092E+00  0.60186136994E+02  0.80256832623E+02  0.10031735257E+03  0.00000000000E+00 0.  1.
         -5    1    3    3    0  503  0.14496234901E+03  0.94940455239E+02  0.18586542619E+03  0.25415707608E+03  0.47000000000E+01 0.  1.
</event>
<event>
12    1  0.9749377E-001  0.8555146E+03  0.7818608E-02  0.9482965E-01
         21   -1    0    0  501  502  0.00000000000E+00  0.00000000000E+00  0.13522798770E+04  0.13522798770E+04  0.00000000000E+00 0. -1.
         21   -1    0    0  502  503 -0.00000000000E+00 -0.00000000000E+00 -0.58629806502E+03  0.58629806502E+03  0.00000000000E+00 0.  1.
         -6    2    1    2    0  503  0.74182859246E+03  0.40244323055E+03  0.13723011758E+03  0.87222435904E+03  0.17225856414E+03 0.  0.
        -24    2    3    3    0    0  0.48071171760E+03  0.20614929707E+03  0.12909970100E+03  0.54541933409E+03  0.85054271379E+02 0.  0.
          6    2    1    2  501    0 -0.74182859246E+03 -0.40244323055E+03  0.62875169443E+03  0.10663535830E+04  0.17178782352E+03 0.  0.
         24    2    5    5    0    0 -0.19802178564E+03 -0.10953602225E+03  0.22397882808E+03  0.32785264247E+03  0.78166949467E+02 0.  0.
         12    1    6    6    0    0  0.49253567230E+01 -0.13695980595E+02  0.18680435755E+02  0.23681167693E+02  0.00000000000E+00 0. -1.
        -11    1    6    6    0    0 -0.20294714236E+03 -0.95840041654E+02  0.20529839233E+03  0.30417147478E+03  0.00000000000E+00 0.  1.
          5    1    5    5  501    0 -0.54380680683E+03 -0.29290720831E+03  0.40477286635E+03  0.73850094053E+03  0.47000000000E+01 0. -1.
         11    1    4    4    0    0  0.14753650485E+03  0.29225384082E+02  0.59875968851E+02  0.16188352289E+03  0.00000000000E+00 0. -1.
        -12    1    4    4    0    0  0.33317521276E+03  0.17692391299E+03  0.69223732148E+02  0.38353581120E+03  0.00000000000E+00 0.  1.
         -5    1    3    3    0  503  0.26111687486E+03  0.19629393348E+03  0.81304165796E+01  0.32680502495E+03  0.47000000000E+01 0.  1.
</event>
<event>
12    1  0.9749377E-001  0.4238373E+03  0.7818608E-02  0.1035825E+00
         21   -1    0    0  503  502  0.00000000000E+00  0.00000000000E+00  0.16590095272E+04  0.16590095272E+04  0.00000000000E+00 0. -1.
         21   -1    0    0  501  503 -0.00000000000E+00 -0.00000000000E+00 -0.15100583721E+03  0.15100583721E+03  0.00000000000E+00 0.  1.
          6    2    1    2  501    0  0.42455423008E+02  0.39334450512E+03  0.29559717904E+03  0.52310319577E+03  0.17244389963E+03 0.  0.
         24    2    3    3    0    0 -0.28159330918E+02  0.18712046412E+03  0.93241738208E+02  0.22563956271E+03  0.80076054520E+02 0.  0.
         -6    2    1    2    0  502 -0.42455423008E+02 -0.39334450512E+03  0.12124065110E+04  0.12869121687E+04  0.17231082182E+03 0.  0.
        -24    2    5    5    0    0 -0.93654163825E+02 -0.26091737535E+03  0.76378109919E+03  0.81633262611E+03  0.78666446518E+02 0.  0.
         14    1    4    4    0    0 -0.56412512613E+02  0.11775647613E+03  0.59941351186E+02  0.14367297878E+03  0.00000000000E+00 0. -1.
        -13    1    4    4    0    0  0.28253181696E+02  0.69363987983E+02  0.33300387022E+02  0.81966583927E+02  0.00000000000E+00 0.  1.
          5    1    3    3  501    0  0.70614753926E+02  0.20622404101E+03  0.20235544083E+03  0.29746363306E+03  0.47000000000E+01 0. -1.
         11    1    6    6    0    0 -0.18935910609E+02 -0.13006457358E+03  0.27394801355E+03  0.30384679715E+03  0.00000000000E+00 0. -1.
        -12    1    6    6    0    0 -0.74718253217E+02 -0.13085280177E+03  0.48983308564E+03  0.51248582896E+03  0.00000000000E+00 0.  1.
         -5    1    5    5    0  502  0.51198740817E+02 -0.13242712977E+03  0.44862541181E+03  0.47057954257E+03  0.47000000000E+01 0.  1.
</event>
<event>
12    1  0.9749377E-001  0.1198157E+04  0.7818608E-02  0.9114471E-01
         21   -1    0    0  503  502  0.00000000000E+00  0.00000000000E+00  0.17194461790E+04  0.17194461790E+04  0.00000000000E+00 0.  1.
         21   -1    0    0  501  503 -0.00000000000E+00 -0.00000000000E+00 -0.12727604014E+04  0.12727604014E+04  0.00000000000E+00 0. -1.
          6    2    1    2  501    0 -0.11163371252E+04  0.42384307770E+03 -0.64260547231E+03  0.13669811995E+04  0.17275495735E+03 0.  0.
         24    2    3    3    0    0 -0.63208801579E+03  0.28801179137E+03 -0.31569936665E+03  0.76711702308E+03  0.79475690089E+02 0.  0.
         -6    2    1    2    0  502  0.11163371252E+04 -0.42384307770E+03  0.10892912499E+04  0.16252253809E+04  0.17014869983E+03 0.  0.
        -24    2    5    5    0    0  0.73783020241E+03 -0.23330880604E+03  0.77155695833E+03  0.10955575895E+04  0.78229695714E+02 0.  0.
         14    1    4    4    0    0 -0.26404315617E+03  0.13817979012E+03 -0.17483459445E+03  0.34551349920E+03  0.00000000000E+00 0. -1.
        -13    1    4    4    0    0 -0.36804485963E+03  0.14983200125E+03 -0.14086477221E+03  0.42160352388E+03  0.00000000000E+00 0.  1.
          5    1    3    3  501    0 -0.48424910937E+03  0.13583128633E+03 -0.32690610565E+03  0.59986417645E+03  0.47000000000E+01 0. -1.
         13    1    6    6    0    0  0.28033389325E+03 -0.76960255548E+02  0.34162504424E+03  0.44857289651E+03  0.00000000000E+00 0. -1.
        -14    1    6    6    0    0  0.45749630917E+03 -0.15634855049E+03  0.42993191410E+03  0.64698469294E+03  0.00000000000E+00 0.  1.
         -5    1    5    5    0  502  0.37850692275E+03 -0.19053427166E+03  0.31773429155E+03  0.52966779143E+03  0.47000000000E+01 0.  1.
</event>
<event>
12    1  0.9749377E-001  0.2196975E+03  0.7818608E-02  0.1134109E+00
         21   -1    0    0  503  502  0.00000000000E+00  0.00000000000E+00  0.68207890648E+02  0.68207890648E+02  0.00000000000E+00 0. -1.
         21   -1    0    0  501  503 -0.00000000000E+00 -0.00000000000E+00 -0.10984130559E+04  0.10984130559E+04  0.00000000000E+00 0.  1.
          6    2    1    2  501    0  0.17342019571E+03  0.32501710790E+01 -0.25034347455E+03  0.34928821555E+03  0.17101249772E+03 0.  0.
         24    2    3    3    0    0  0.18676937733E+03 -0.32364531879E+02 -0.20705636569E+03  0.29147410386E+03  0.78450949094E+02 0.  0.
         -6    2    1    2    0  502 -0.17342019571E+03 -0.32501710790E+01 -0.77986169065E+03  0.81733273096E+03  0.17252074846E+03 0.  0.
        -24    2    5    5    0    0 -0.17060662815E+03  0.41867740992E+01 -0.78470946003E+03  0.80690127929E+03  0.78718404561E+02 0.  0.
         14    1    4    4    0    0  0.15864099093E+03  0.45858817773E+01 -0.16024534973E+03  0.22553617542E+03  0.00000000000E+00 0. -1.
        -13    1    4    4    0    0  0.28128386406E+02 -0.36950413656E+02 -0.46811015968E+02  0.65937928441E+02  0.00000000000E+00 0.  1.
          5    1    3    3  501    0 -0.13349181625E+02  0.35614702958E+02 -0.43287108857E+02  0.57814111686E+02  0.47000000000E+01 0. -1.
         11    1    6    6    0    0 -0.15463062595E+02  0.25768033537E+02 -0.16416515434E+03  0.16689306683E+03  0.00000000000E+00 0. -1.
        -12    1    6    6    0    0 -0.15514356555E+03 -0.21581259438E+02 -0.62054430569E+03  0.64000821246E+03  0.00000000000E+00 0.  1.
         -5    1    5    5    0  502 -0.28135675595E+01 -0.74369451782E+01  0.48477693720E+01  0.10431451667E+02  0.47000000000E+01 0.  1.
</event>
<event>
12    1  0.9749377E-001  0.2973563E+03  0.7818608E-02  0.1086570E+00
         21   -1    0    0  501  502  0.00000000000E+00  0.00000000000E+00  0.94576180954E+02  0.94576180954E+02  0.00000000000E+00 0. -1.
         21   -1    0    0  502  503 -0.00000000000E+00 -0.00000000000E+00 -0.12024351409E+04  0.12024351409E+04  0.00000000000E+00 0.  1.
         -6    2    1    2    0  503 -0.25147708304E+03 -0.10775178574E+03 -0.36903085618E+03  0.49045930397E+03  0.17180042320E+03 0.  0.
        -24    2    3    3    0    0 -0.17107118357E+03 -0.12198572622E+03 -0.19299299005E+03  0.29634816559E+03  0.80187740901E+02 0.  0.
          6    2    1    2  501    0  0.25147708304E+03  0.10775178574E+03 -0.73882810381E+03  0.80655201793E+03  0.17264999284E+03 0.  0.
         24    2    5    5    0    0  0.23805370615E+03  0.12103877333E+03 -0.54776059736E+03  0.61449574205E+03  0.79015146101E+02 0.  0.
         14    1    6    6    0    0  0.15884048806E+03  0.96332428015E+02 -0.29650794769E+03  0.34989598508E+03  0.00000000000E+00 0. -1.
        -13    1    6    6    0    0  0.79213218090E+02  0.24706345312E+02 -0.25125264967E+03  0.26459975697E+03  0.00000000000E+00 0.  1.
          5    1    5    5  501    0  0.13423376889E+02 -0.13286987591E+02 -0.19106750645E+03  0.19205627588E+03  0.47000000000E+01 0. -1.
         13    1    4    4    0    0 -0.17193920860E+03 -0.13068669496E+03 -0.18304533071E+03  0.28310368558E+03  0.00000000000E+00 0. -1.
        -14    1    4    4    0    0  0.86802502840E+00  0.87009687397E+01 -0.99476593419E+01  0.13244480014E+02  0.00000000000E+00 0.  1.
         -5    1    3    3    0  503 -0.80405899462E+02  0.14233940481E+02 -0.17603786613E+03  0.19411113838E+03  0.47000000000E+01 0.  1.
</event>
<event>
12    1  0.9749377E-001  0.3561369E+03  0.7818608E-02  0.1060124E+00
         21   -1    0    0  503  502  0.00000000000E+00  0.00000000000E+00  0.48128039285E+03  0.48128039285E+03  0.00000000000E+00 0.  1.
         21   -1    0    0  501  503 -0.00000000000E+00 -0.00000000000E+00 -0.31413500076E+03  0.31413500076E+03  0.00000000000E+00 0. -1.
          6    2    1    2  501    0  0.27934630535E+03 -0.19273271617E+03 -0.75987687678E+01  0.37668325073E+03  0.16325523545E+03 0.  0.
         24    2    3    3    0    0  0.21407663334E+03 -0.17353218771E+03  0.45384370400E+02  0.29032299706E+03  0.79280996682E+02 0.  0.
         -6    2    1    2    0  502 -0.27934630535E+03  0.19273271617E+03  0.17474416085E+03  0.41873214288E+03  0.17210702349E+03 0.  0.
        -24    2    5    5    0    0 -0.28462347401E+03  0.15954933411E+03  0.12539166615E+03  0.35884271070E+03  0.81108008911E+02 0.  0.
         14    1    4    4    0    0  0.64367240482E+02 -0.60100825157E+02  0.52197222815E+02  0.10237089870E+03  0.00000000000E+00 0. -1.
        -13    1    4    4    0    0  0.14970939286E+03 -0.11343136255E+03 -0.68128524154E+01  0.18795209836E+03  0.00000000000E+00 0.  1.
          5    1    3    3  501    0  0.65269672011E+02 -0.19200528461E+02 -0.52983139167E+02  0.86360253668E+02  0.47000000000E+01 0. -1.
         11    1    6    6    0    0 -0.94881411713E+02  0.93867447851E+02  0.31236763482E+02  0.13707412392E+03  0.00000000000E+00 0. -1.
        -12    1    6    6    0    0 -0.18974206230E+03  0.65681886263E+02  0.94154902668E+02  0.22176858678E+03  0.00000000000E+00 0.  1.
         -5    1    5    5    0  502  0.52771686565E+01  0.33183382056E+02  0.49352494701E+02  0.59889432181E+02  0.47000000000E+01 0.  1.
</event>
<event>
12    1  0.9749377E-001  0.8441738E+03  0.7818608E-02  0.9498190E-01
         21   -1    0    0  501  502  0.00000000000E+00  0.00000000000E+00  0.20314930711E+04  0.20314930711E+04  0.00000000000E+00 0. -1.
         21   -1    0    0  502  503 -0.00000000000E+00 -0.00000000000E+00 -0.36685107103E+03  0.36685107103E+03  0.00000000000E+00 0.  1.
         -6    2    1    2    0  503  0.47476240380E+03  0.68380057486E+03  0.10415591729E+04  0.13443640545E+04  0.17171672614E+03 0.  0.
        -24    2    3    3    0    0  0.28216157925E+03  0.33175544279E+03  0.62405927971E+03  0.76526207429E+03  0.80617784182E+02 0.  0.
          6    2    1    2  501    0 -0.47476240380E+03 -0.68380057486E+03  0.62308282710E+03  0.10539800876E+04  0.17221860936E+03 0.  0.
         24    2    5    5    0    0 -0.41699252846E+03 -0.50392371470E+03  0.45163989254E+03  0.79881776059E+03  0.79431373397E+02 0.  0.
         14    1    6    6    0    0 -0.28659304697E+03 -0.38979184660E+03  0.30605644444E+03  0.57248913127E+03  0.00000000000E+00 0. -1.
        -13    1    6    6    0    0 -0.13039948149E+03 -0.11413186811E+03  0.14558344809E+03  0.22632862932E+03  0.00000000000E+00 0.  1.
          5    1    5    5  501    0 -0.57769875345E+02 -0.17987686015E+03  0.17144293456E+03  0.25516232701E+03  0.47000000000E+01 0. -1.
         11    1    4    4    0    0  0.14809645547E+03  0.22594813394E+03  0.34657725228E+03  0.43943248759E+03  0.00000000000E+00 0. -1.
        -12    1    4    4    0    0  0.13406512378E+03  0.10580730886E+03  0.27748202743E+03  0.32582958670E+03  0.00000000000E+00 0.  1.
         -5    1    3    3    0  503  0.19260082455E+03  0.35204513206E+03  0.41749989323E+03  0.57910198020E+03  0.47000000000E+01 0.  1.
</event>
<event>
12    1  0.9749377E-001  0.1179236E+04  0.7818608E-02  0.9131227E-01
         21   -1    0    0  501  502  0.00000000000E+00  0.00000000000E+00  0.17059647317E+04  0.17059647317E+04  0.00000000000E+00 0.  1.
         21   -1    0    0  502  503 -0.00000000000E+00 -0.00000000000E+00 -0.10174337862E+04  0.10174337862E+04  0.00000000000E+00 0. -1.
         -6    2    1    2    0  503 -0.10806996377E+04  0.46332703279E+03  0.93209131478E+03  0.15102660881E+04  0.17183070607E+03 0.  0.
        -24    2    3    3    0    0 -0.87659166720E+03  0.34025001498E+03  0.80357662494E+03  0.12394411789E+04  0.79347464592E+02 0.  0.
          6    2    1    2  501    0  0.10806996377E+04 -0.46332703279E+03 -0.24356036931E+03  0.12131324298E+04  0.17258329157E+03 0.  0.
         24    2    5    5    0    0  0.66734577597E+03 -0.32783851190E+03 -0.21069451079E+03  0.77687469756E+03  0.79458443461E+02 0.  0.
         12    1    6    6    0    0  0.23132061033E+02 -0.19895346086E+02  0.51288907976E+01  0.30939013629E+02  0.00000000000E+00 0. -1.
        -11    1    6    6    0    0  0.64421371494E+03 -0.30794316582E+03 -0.21582340158E+03  0.74593568393E+03  0.00000000000E+00 0.  1.
          5    1    5    5  501    0  0.41335386171E+03 -0.13548852089E+03 -0.32865858525E+02  0.43625773224E+03  0.47000000000E+01 0. -1.
         13    1    4    4    0    0 -0.31034288634E+03  0.11023703398E+03  0.23405474517E+03  0.40403778846E+03  0.00000000000E+00 0. -1.
        -14    1    4    4    0    0 -0.56624878086E+03  0.23001298101E+03  0.56952187977E+03  0.83540339046E+03  0.00000000000E+00 0.  1.
         -5    1    3    3    0  503 -0.20410797047E+03  0.12307701781E+03  0.12851468985E+03  0.27082490917E+03  0.47000000000E+01 0.  1.
</event>
<event>
12    1  0.9749377E-001  0.2294630E+03  0.7818608E-02  0.1127018E+00
         21   -1    0    0  503  502  0.00000000000E+00  0.00000000000E+00  0.99984160314E+02  0.99984160314E+02  0.00000000000E+00 0.  1.
         21   -1    0    0  501  503 -0.00000000000E+00 -0.00000000000E+00 -0.66579688228E+03  0.66579688228E+03  0.00000000000E+00 0. -1.
          6    2    1    2  501    0 -0.18956627232E+03  0.30338507366E+02 -0.25933064122E+03  0.36560738971E+03  0.17193192055E+03 0.  0.
         24    2    3    3    0    0 -0.16816689174E+03  0.65119291927E+02 -0.25736153781E+03  0.32445397149E+03  0.80714266438E+02 0.  0.
         -6    2    1    2    0  502  0.18956627232E+03 -0.30338507366E+02 -0.30648208074E+03  0.40017365288E+03  0.17132393298E+03 0.  0.
        -24    2    5    5    0    0  0.15188665562E+03 -0.68287642500E+02 -0.17546740596E+03  0.25858684071E+03  0.91354175385E+02 0.  0.
         12    1    4    4    0    0 -0.88484307109E+02  0.75897203221E+02 -0.16448342957E+03  0.20160519999E+03  0.00000000000E+00 0. -1.
        -11    1    4    4    0    0 -0.79682584636E+02 -0.10777911295E+02 -0.92878108247E+02  0.12284877149E+03  0.00000000000E+00 0.  1.
          5    1    3    3  501    0 -0.21399380575E+02 -0.34780784561E+02 -0.19691034109E+01  0.41153418229E+02  0.47000000000E+01 0. -1.
         11    1    6    6    0    0  0.76856856779E+02 -0.42431842907E+02 -0.15250895061E+03  0.17597277557E+03  0.00000000000E+00 0. -1.
        -12    1    6    6    0    0  0.75029798841E+02 -0.25855799593E+02 -0.22958455352E+02  0.82614065139E+02  0.00000000000E+00 0.  1.
         -5    1    5    5    0  502  0.37679616701E+02  0.37949135135E+02 -0.13101467478E+03  0.14158681217E+03  0.47000000000E+01 0.  1.
</event>
<event>
12    1  0.9749377E-001  0.5413585E+03  0.7818608E-02  0.1003514E+00
         21   -1    0    0  503  502  0.00000000000E+00  0.00000000000E+00  0.52652630401E+03  0.52652630401E+03  0.00000000000E+00 0.  1.
         21   -1    0    0  501  503 -0.00000000000E+00 -0.00000000000E+00 -0.66195751593E+03  0.66195751593E+03  0.00000000000E+00 0. -1.
          6    2    1    2  501    0 -0.30628827504E+03  0.41336956901E+03 -0.30142079420E+03  0.62040301685E+03  0.17134322316E+03 0.  0.
         24    2    3    3    0    0 -0.11899424034E+03  0.27203842805E+03 -0.18075565975E+03  0.35651722429E+03  0.79166830891E+02 0.  0.
         -6    2    1    2    0  502  0.30628827504E+03 -0.41336956901E+03  0.16598958228E+03  0.56808080310E+03  0.17457476740E+03 0.  0.
        -24    2    5    5    0    0  0.30940987117E+03 -0.32960186234E+03  0.14777206690E+03  0.48216956455E+03  0.79240451683E+02 0.  0.
         12    1    4    4    0    0 -0.38254935657E+02  0.18105758817E+03 -0.98073018295E+02  0.20943640384E+03  0.00000000000E+00 0. -1.
        -11    1    4    4    0    0 -0.80739304679E+02  0.90980839876E+02 -0.82682641459E+02  0.14708082045E+03  0.00000000000E+00 0.  1.
          5    1    3    3  501    0 -0.18729403471E+03  0.14133114096E+03 -0.12066513445E+03  0.26388579256E+03  0.47000000000E+01 0. -1.
         11    1    6    6    0    0  0.69816671069E+02 -0.12103088686E+03  0.26888638772E+02  0.14228788433E+03  0.00000000000E+00 0. -1.
        -12    1    6    6    0    0  0.23959320010E+03 -0.20857097548E+03  0.12088342813E+03  0.33988168021E+03  0.00000000000E+00 0.  1.
         -5    1    5    5    0  502 -0.31215961277E+01 -0.83767706671E+02  0.18217515374E+02  0.85911238553E+02  0.47000000000E+01 0.  1.
</event>
<event>
12    1  0.9749377E-001  0.2531440E+03  0.7818608E-02  0.1111334E+00
         21   -1    0    0  503  502  0.00000000000E+00  0.00000000000E+00  0.32472281919E+03  0.32472281919E+03  0.00000000000E+00 0.  1.
         21   -1    0    0  501  503 -0.00000000000E+00 -0.00000000000E+00 -0.43212857159E+03  0.43212857159E+03  0.00000000000E+00 0. -1.
          6    2    1    2  501    0  0.24811521471E+01 -0.22533616805E+03  0.19333145425E+03  0.34321862160E+03  0.17216104745E+03 0.  0.
         24    2    3    3    0    0 -0.26566806298E+02 -0.10182428213E+03  0.29225224378E+02  0.13572906876E+03  0.80587137543E+02 0.  0.
         -6    2    1    2    0  502 -0.24811521471E+01  0.22533616805E+03 -0.30073720665E+03  0.41363276919E+03  0.17281971974E+03 0.  0.
        -24    2    5    5    0    0 -0.44696525550E+02  0.61040555454E+02 -0.15257361604E+03  0.18835577157E+03  0.80470240258E+02 0.  0.
         14    1    4    4    0    0  0.27786463644E+02 -0.44697779582E+02  0.20150132615E+02  0.56356072484E+02  0.00000000000E+00 0. -1.
        -13    1    4    4    0    0 -0.54353269943E+02 -0.57126502552E+02  0.90750917634E+01  0.79372996275E+02  0.00000000000E+00 0.  1.
          5    1    3    3  501    0  0.29047958445E+02 -0.12351188592E+03  0.16410622987E+03  0.20748955284E+03  0.47000000000E+01 0. -1.
         13    1    6    6    0    0 -0.33034914560E+02  0.28703124908E+02 -0.14553547000E+02  0.46119200879E+02  0.00000000000E+00 0. -1.
        -14    1    6    6    0    0 -0.11661610990E+02  0.32337430546E+02 -0.13802006904E+03  0.14223657069E+03  0.00000000000E+00 0.  1.
         -5    1    5    5    0  502  0.42215373403E+02  0.16429561260E+03 -0.14816359062E+03  0.22527699762E+03  0.47000000000E+01 0.  1.
</event>
<event>
12    1  0.9749377E-001  0.3276880E+03  0.7818608E-02  0.1072164E+00
         21   -1    0    0  501  502  0.00000000000E+00  0.00000000000E+00  0.11032952155E+04  0.11032952155E+04  0.00000000000E+00 0.  1.
         21   -1    0    0  502  503 -0.00000000000E+00 -0.00000000000E+00 -0.11657969979E+03  0.11657969979E+03  0.00000000000E+00 0. -1.
         -6    2    1    2    0  503  0.13157504205E+03  0.28351454654E+03  0.53413820070E+03  0.64226577181E+03  0.17178246244E+03 0.  0.
        -24    2    3    3    0    0  0.10558645074E+03  0.13620914669E+03  0.19360663623E+03  0.27030055287E+03  0.76664392428E+02 0.  0.
          6    2    1    2  501    0 -0.13157504205E+03 -0.28351454654E+03  0.45257731499E+03  0.57760914345E+03  0.17639049511E+03 0.  0.
         24    2    5    5    0    0 -0.71416111153E+02 -0.25521114527E+03  0.28225978427E+03  0.39471482763E+03  0.76786846080E+02 0.  0.
         14    1    6    6    0    0 -0.15894137232E+02 -0.11212894778E+03  0.71271502524E+02  0.13381013265E+03  0.00000000000E+00 0. -1.
        -13    1    6    6    0    0 -0.55521973921E+02 -0.14308219750E+03  0.21098828174E+03  0.26090469498E+03  0.00000000000E+00 0.  1.
          5    1    5    5  501    0 -0.60158930894E+02 -0.28303401270E+02  0.17031753072E+03  0.18289431583E+03  0.47000000000E+01 0. -1.
         13    1    4    4    0    0  0.75284175890E+02  0.97935157115E+02  0.18226902489E+03  0.22018401299E+03  0.00000000000E+00 0. -1.
        -14    1    4    4    0    0  0.30302274845E+02  0.38273989573E+02  0.11337611335E+02  0.50116539879E+02  0.00000000000E+00 0.  1.
         -5    1    3    3    0  503  0.25988591312E+02  0.14730539985E+03  0.34053156447E+03  0.37196521894E+03  0.47000000000E+01 0.  1.
</event>
<event>
12    1  0.9749377E-001  0.2598039E+03  0.7818608E-02  0.1107261E+00
         21   -1    0    0  501  502  0.00000000000E+00  0.00000000000E+00  0.49257685203E+03  0.49257685203E+03  0.00000000000E+00 0.  1.
         21   -1    0    0  502  503 -0.00000000000E+00 -0.00000000000E+00 -0.16756011890E+03  0.16756011890E+03  0.00000000000E+00 0. -1.
         -6    2    1    2    0  503 -0.22750167284E+03 -0.26619034366E+02  0.18642454104E+03  0.34155471595E+03  0.17158068176E+03 0.  0.
        -24    2    3    3    0    0 -0.20275450632E+03 -0.39277448196E+02  0.84719869068E+02  0.23601520680E+03  0.76639505845E+02 0.  0.
          6    2    1    2  501    0  0.22750167284E+03  0.26619034366E+02  0.13859219210E+03  0.31858225497E+03  0.17268837060E+03 0.  0.
         24    2    5    5    0    0  0.81032553014E+02  0.47497854121E+02  0.13046631282E+02  0.12448715968E+03  0.80650589234E+02 0.  0.
         14    1    6    6    0    0  0.40871683097E+02  0.67213890823E+02  0.35148427448E+01  0.78743607476E+02  0.00000000000E+00 0. -1.
        -13    1    6    6    0    0  0.40160869917E+02 -0.19716036702E+02  0.95317885376E+01  0.45743552207E+02  0.00000000000E+00 0.  1.
          5    1    5    5  501    0  0.14646911982E+03 -0.20878819755E+02  0.12554556081E+03  0.19409509529E+03  0.47000000000E+01 0. -1.
         11    1    4    4    0    0 -0.47738400158E+02  0.22924596935E+02  0.25702262521E+02  0.58865085517E+02  0.00000000000E+00 0. -1.
        -12    1    4    4    0    0 -0.15501610616E+03 -0.62202045130E+02  0.59017606547E+02  0.17715012128E+03  0.00000000000E+00 0.  1.
         -5    1    3    3    0  503 -0.24747166517E+02  0.12658413830E+02  0.10170467197E+03  0.10553950915E+03  0.47000000000E+01 0.  1.
</event>
<event>
12    1  0.9749377E-001  0.4548860E+03  0.7818608E-02  0.1026275E+00
         21   -1    0    0  503  502  0.00000000000E+00  0.00000000000E+00  0.19873758294E+04  0.19873758294E+04  0.00000000000E+00 0.  1.
         21   -1    0    0  501  503 -0.00000000000E+00 -0.00000000000E+00 -0.15035690298E+03  0.15035690298E+03  0.00000000000E+00 0. -1.
          6    2    1    2  501    0 -0.40445512989E+03 -0.16356687150E+03  0.14729141912E+04  0.15458295671E+04  0.17255365006E+03 0.  0.
         24    2    3    3    0    0 -0.23146815182E+03 -0.15877997760E+03  0.10192672795E+04  0.10602731651E+04  0.80528324531E+02 0.  0.
         -6    2    1    2    0  502  0.40445512989E+03  0.16356687150E+03  0.36410473516E+03  0.59190316528E+03  0.16564729205E+03 0.  0.
        -24    2    5    5    0    0  0.12495358086E+03  0.30267323633E+02  0.75199698364E+02  0.16837265203E+03  0.78516540093E+02 0.  0.
         14    1    4    4    0    0 -0.89597029469E+02 -0.10085173164E+03  0.39218168996E+03  0.41473506894E+03  0.00000000000E+00 0. -1.
        -13    1    4    4    0    0 -0.14187112235E+03 -0.57928245965E+02  0.62708558955E+03  0.64553809621E+03  0.00000000000E+00 0.  1.
          5    1    3    3  501    0 -0.17298697807E+03 -0.47868938969E+01  0.45364691171E+03  0.48555640192E+03  0.47000000000E+01 0. -1.
         13    1    6    6    0    0  0.60652025465E+02  0.41564759888E+02  0.72151263291E+02  0.10301505838E+03  0.00000000000E+00 0. -1.
        -14    1    6    6    0    0  0.64301555392E+02 -0.11297436255E+02  0.30484350733E+01  0.65357593654E+02  0.00000000000E+00 0.  1.
         -5    1    5    5    0  502  0.27950154903E+03  0.13329954787E+03  0.28890503680E+03  0.42353051325E+03  0.47000000000E+01 0.  1.
</event>
<event>
12    1  0.9749377E-001  0.1253506E+03  0.7818608E-02  0.1234522E+00
         21   -1    0    0  503  502  0.00000000000E+00  0.00000000000E+00  0.34726652406E+03  0.34726652406E+03  0.00000000000E+00 0. -1.
         21   -1    0    0  501  503 -0.00000000000E+00 -0.00000000000E+00 -0.18010434953E+03  0.18010434953E+03  0.00000000000E+00 0. -1.
          6    2    1    2  501    0  0.24539169439E+02 -0.75490150833E+01  0.27304308608E+03  0.32361597185E+03  0.17180108239E+03 0.  0.
         24    2    3    3    0    0  0.49668476283E+02 -0.48724816167E+02  0.24654423842E+03  0.26837823488E+03  0.80010938079E+02 0.  0.
         -6    2    1    2    0  502 -0.24539169439E+02  0.75490150833E+01 -0.10588091156E+03  0.20375490174E+03  0.17218052760E+03 0.  0.
        -24    2    5    5    0    0 -0.53471926346E+02  0.77887781495E+01 -0.18348945255E+02  0.11144511335E+03  0.95725741181E+02 0.  0.
         14    1    4    4    0    0  0.55408145826E+02 -0.86487120109E+00  0.15987257014E+03  0.16920416457E+03  0.00000000000E+00 0. -1.
        -13    1    4    4    0    0 -0.57396695427E+01 -0.47859944966E+02  0.86671668285E+02  0.99174070310E+02  0.00000000000E+00 0.  1.
          5    1    3    3  501    0 -0.25129306844E+02  0.41175801084E+02  0.26498847661E+02  0.55237736962E+02  0.47000000000E+01 0. -1.
         11    1    6    6    0    0 -0.23430155232E+02 -0.18130767612E+02  0.34425897321E+02  0.45418490890E+02  0.00000000000E+00 0. -1.
        -12    1    6    6    0    0 -0.30041771114E+02  0.25919545761E+02 -0.52774842576E+02  0.66026622457E+02  0.00000000000E+00 0.  1.
         -5    1    5    5    0  502  0.28932756907E+02 -0.23976306616E+00 -0.87531966305E+02  0.92309788397E+02  0.47000000000E+01 0.  1.
</event>
<event>
12    1  0.1458054E+000  0.9269868E+03  0.7818608E-02  0.9392461E-01
         21   -1    0    0  503  502  0.00000000000E+00  0.00000000000E+00  0.56462234971E+03  0.56462234971E+03  0.00000000000E+00 0.  1.
         21   -1    0    0  501  503 -0.00000000000E+00 -0.00000000000E+00 -0.15381655796E+04  0.15381655796E+04  0.00000000000E+00 0. -1.
          6    2    1    2  501    0 -0.39220439909E+03  0.82719569490E+03 -0.48948025663E+03  0.10521800765E+04  0.17150796927E+03 0.  0.
         24    2    3    3    0    0 -0.16375050343E+03  0.24627458209E+03 -0.15241238082E+03  0.34274553788E+03  0.82338160964E+02 0.  0.
         -6    2    1    2    0  502  0.39220439909E+03 -0.82719569490E+03 -0.48406297325E+03  0.10506078527E+04  0.17715216580E+03 0.  0.
        -24    2    5    5    0    0  0.29995244239E+03 -0.48534601120E+03 -0.26384539185E+03  0.63360724973E+03  0.79445187524E+02 0.  0.
         12    1    4    4    0    0 -0.16321720228E+03  0.21640273813E+03 -0.11392249430E+03  0.29402097697E+03  0.00000000000E+00 0. -1.
        -11    1    4    4    0    0 -0.53330115424E+00  0.29871843964E+02 -0.38489886520E+02  0.48724560914E+02  0.00000000000E+00 0.  1.
          5    1    3    3  501    0 -0.22845389566E+03  0.58092111281E+03 -0.33706787581E+03  0.70943453866E+03  0.47000000000E+01 0. -1.
         11    1    6    6    0    0  0.94869106185E+01 -0.50922115402E+00 -0.10725337669E+02  0.14328072005E+02  0.00000000000E+00 0. -1.
        -12    1    6    6    0    0  0.29046553177E+03 -0.48483679004E+03 -0.25312005418E+03  0.61927917772E+03  0.00000000000E+00 0.  1.
         -5    1    5    5    0  502  0.92251956704E+02 -0.34184968370E+03 -0.22021758139E+03  0.41700060302E+03  0.47000000000E+01 0.  1.
</event>
<event>
12    1  0.9749377E-001  0.4789882E+03  0.7818608E-02  0.1019414E+00
         21   -1    0    0  503  502  0.00000000000E+00  0.00000000000E+00  0.40817209655E+03  0.40817209655E+03  0.00000000000E+00 0.  1.
         21   -1    0    0  501  503 -0.00000000000E+00 -0.00000000000E+00 -0.63847875616E+03  0.63847875616E+03  0.00000000000E+00 0. -1.
          6    2    1    2  501    0 -0.13747922415E+03 -0.43795646460E+03 -0.26001719251E+03  0.55536212133E+03  0.17352735648E+03 0.  0.
         24    2    3    3    0    0 -0.86220085919E+02 -0.41976004800E+03 -0.23860383964E+03  0.49671716835E+03  0.78509565803E+02 0.  0.
         -6    2    1    2    0  502  0.13747922415E+03  0.43795646460E+03  0.29710532901E+02  0.49128873139E+03  0.17255578771E+03 0.  0.
        -24    2    5    5    0    0  0.62229376448E+02  0.17332559250E+03 -0.45081963798E+02  0.20614307457E+03  0.80921736399E+02 0.  0.
         14    1    4    4    0    0 -0.81607923052E+02 -0.39968816553E+03 -0.20315964477E+03  0.45572395596E+03  0.00000000000E+00 0. -1.
        -13    1    4    4    0    0 -0.46121628669E+01 -0.20071882477E+02 -0.35444194863E+02  0.40993212389E+02  0.00000000000E+00 0.  1.
          5    1    3    3  501    0 -0.51259138228E+02 -0.18196416593E+02 -0.21413352877E+02  0.58644952981E+02  0.47000000000E+01 0. -1.
         11    1    6    6    0    0  0.78530265088E+02  0.11593384778E+03 -0.20102126446E+02  0.14146291063E+03  0.00000000000E+00 0. -1.
        -12    1    6    6    0    0 -0.16300888640E+02  0.57391744724E+02 -0.24979837352E+02  0.64680163938E+02  0.00000000000E+00 0.  1.
         -5    1    5    5    0  502  0.75249847699E+02  0.26463087209E+03  0.74792496699E+02  0.28514565683E+03  0.47000000000E+01 0.  1.
</event>
<event>
12    1  0.9749377E-001  0.2617023E+03  0.7818608E-02  0.1106125E+00
         21   -1    0    0  503  502  0.00000000000E+00  0.00000000000E+00  0.64351355885E+03  0.64351355885E+03  0.00000000000E+00 0.  1.
         21   -1    0    0  501  503 -0.00000000000E+00 -0.00000000000E+00 -0.11930400960E+03  0.11930400960E+03  0.00000000000E+00 0. -1.
          6    2    1    2  501    0 -0.21687511086E+03 -0.19045513005E+01  0.26705691609E+03  0.38489974364E+03  0.17259772651E+03 0.  0.
         24    2    3    3    0    0 -0.54957617088E+02  0.28056312827E+01  0.17161936812E+03  0.19683093663E+03  0.79126473800E+02 0.  0.
         -6    2    1    2    0  502  0.21687511086E+03  0.19045513005E+01  0.25715263316E+03  0.37791782481E+03  0.17220907220E+03 0.  0.
        -24    2    5    5    0    0  0.70164674673E+02  0.40282924274E+02  0.16468967062E+03  0.20024300657E+03  0.80179663943E+02 0.  0.
         14    1    4    4    0    0 -0.58062730538E+02  0.32263354292E+02  0.11088335059E+03  0.12925680696E+03  0.00000000000E+00 0. -1.
        -13    1    4    4    0    0  0.31051134500E+01 -0.29457723010E+02  0.60736017533E+02  0.67574129667E+02  0.00000000000E+00 0.  1.
          5    1    3    3  501    0 -0.16191749377E+03 -0.47101825831E+01  0.95437547965E+02  0.18806880701E+03  0.47000000000E+01 0. -1.
         13    1    6    6    0    0 -0.48628081851E+01  0.38221212463E+02  0.48900321636E+02  0.62255517359E+02  0.00000000000E+00 0. -1.
        -14    1    6    6    0    0  0.75027482858E+02  0.20617118107E+01  0.11578934898E+03  0.13798748921E+03  0.00000000000E+00 0.  1.
         -5    1    5    5    0  502  0.14671043619E+03 -0.38378372973E+02  0.92462962537E+02  0.17767481825E+03  0.47000000000E+01 0.  1.
</event>
<event>
12    1  0.9749377E-001  0.3553407E+03  0.7818608E-02  0.1060444E+00
         21   -1    0    0  501  502  0.00000000000E+00  0.00000000000E+00  0.11552550579E+04  0.11552550579E+04  0.00000000000E+00 0. -1.
         21   -1    0    0  502  503 -0.00000000000E+00 -0.00000000000E+00 -0.13936464370E+03  0.13936464370E+03  0.00000000000E+00 0.  1.
         -6    2    1    2    0  503  0.31711934406E+03 -0.10102842756E+03  0.74679730889E+03  0.83544025519E+03  0.17170549752E+03 0.  0.
        -24    2    3    3    0    0  0.29138106840E+03 -0.69948387722E+02  0.52559257104E+03  0.61053571154E+03  0.81918254139E+02 0.  0.
          6    2    1    2  501    0 -0.31711934406E+03  0.10102842756E+03  0.26909310528E+03  0.45917944638E+03  0.16632270777E+03 0.  0.
         24    2    5    5    0    0 -0.24151031449E+03  0.11958236062E+02  0.17525572854E+03  0.30925357257E+03  0.80330382452E+02 0.  0.
         14    1    6    6    0    0 -0.18358842666E+03  0.97696172615E+00  0.87106596806E+02  0.20320734255E+03  0.00000000000E+00 0. -1.
        -13    1    6    6    0    0 -0.57921887826E+02  0.10981274336E+02  0.88149131734E+02  0.10604623002E+03  0.00000000000E+00 0.  1.
          5    1    5    5  501    0 -0.75609029569E+02  0.89070191501E+02  0.93837376735E+02  0.14992587381E+03  0.47000000000E+01 0. -1.
         11    1    4    4    0    0  0.15631430226E+03  0.44541089724E+01  0.27126363348E+03  0.31311013881E+03  0.00000000000E+00 0. -1.
        -12    1    4    4    0    0  0.13506676614E+03 -0.74402496694E+02  0.25432893756E+03  0.29742557272E+03  0.00000000000E+00 0.  1.
         -5    1    3    3    0  503  0.25738275657E+02 -0.31080039841E+02  0.22120473785E+03  0.22490454365E+03  0.47000000000E+01 0.  1.
</event>
<event>
12    1  0.9749377E-001  0.4721184E+03  0.7818608E-02  0.1021324E+00
         21   -1    0    0  501  502  0.00000000000E+00  0.00000000000E+00  0.22065837684E+03  0.22065837684E+03  0.00000000000E+00 0.  1.
         21   -1    0    0  502  503 -0.00000000000E+00 -0.00000000000E+00 -0.13424545227E+04  0.13424545227E+04  0.00000000000E+00 0. -1.
         -6    2    1    2    0  503  0.44182165331E+03  0.10973599759E+03 -0.91069297396E+03  0.10326027609E+04  0.17221616217E+03 0.  0.
        -24    2    3    3    0    0  0.19259433545E+03  0.11225186555E+03 -0.47019581590E+03  0.52646007172E+03  0.79893945067E+02 0.  0.
          6    2    1    2  501    0 -0.44182165331E+03 -0.10973599759E+03 -0.21110317193E+03  0.53051013866E+03  0.17212813694E+03 0.  0.
         24    2    5    5    0    0 -0.91744097082E+02 -0.41762279512E+02 -0.41130342715E+02  0.13543093851E+03  0.80552881227E+02 0.  0.
         12    1    6    6    0    0 -0.26994847793E+02  0.13331414947E+02  0.14919166878E+02  0.33601041237E+02  0.00000000000E+00 0. -1.
        -11    1    6    6    0    0 -0.64749249289E+02 -0.55093694459E+02 -0.56049509594E+02  0.10182989727E+03  0.00000000000E+00 0.  1.
          5    1    5    5  501    0 -0.35007755622E+03 -0.67973718079E+02 -0.16997282921E+03  0.39507920015E+03  0.47000000000E+01 0. -1.
         13    1    4    4    0    0  0.17276216091E+02  0.66229484216E+01 -0.65194180320E+01  0.19617183786E+02  0.00000000000E+00 0. -1.
        -14    1    4    4    0    0  0.17531811936E+03  0.10562891713E+03 -0.46367639787E+03  0.50684288793E+03  0.00000000000E+00 0.  1.
         -5    1    3    3    0  503  0.24922731785E+03 -0.25158679619E+01 -0.44049715807E+03  0.50614268919E+03  0.47000000000E+01 0.  1.
</event>
<event>
12    1  0.9749377E-001  0.2210529E+03  0.7818608E-02  0.1133100E+00
         21   -1    0    0  501  502  0.00000000000E+00  0.00000000000E+00  0.51010371953E+03  0.51010371953E+03  0.00000000000E+00 0.  1.
         21   -1    0    0  502  503 -0.00000000000E+00 -0.00000000000E+00 -0.21243905375E+03  0.21243905375E+03  0.00000000000E+00 0. -1.
         -6    2    1    2    0  503  0.86837387568E+02  0.12672805432E+03  0.41027130329E+03  0.46586771623E+03  0.15845963237E+03 0.  0.
        -24    2    3    3    0    0  0.85258719218E+02  0.28525355087E+02  0.20067016949E+03  0.23434884525E+03  0.81043934142E+02 0.  0.
          6    2    1    2  501    0 -0.86837387568E+02 -0.12672805432E+03 -0.11260663751E+03  0.25667505704E+03  0.17204969766E+03 0.  0.
         24    2    5    5    0    0 -0.11990590722E+03 -0.59600240626E+02 -0.68079568041E+02  0.16947172982E+03  0.78461610708E+02 0.  0.
         14    1    6    6    0    0 -0.90085727275E+02 -0.19207620707E+01 -0.35784630334E+02  0.96951881641E+02  0.00000000000E+00 0. -1.
        -13    1    6    6    0    0 -0.29820179941E+02 -0.57679478555E+02 -0.32294937707E+02  0.72519848177E+02  0.00000000000E+00 0.  1.
          5    1    5    5  501    0  0.33068519648E+02 -0.67127813694E+02 -0.44527069473E+02  0.87203327224E+02  0.47000000000E+01 0. -1.
         11    1    4    4    0    0  0.34655028741E+02  0.48287274773E+02  0.64330504514E+02  0.87584506239E+02  0.00000000000E+00 0. -1.
        -12    1    4    4    0    0  0.50603690477E+02 -0.19761919686E+02  0.13633966498E+03  0.14676433901E+03  0.00000000000E+00 0.  1.
         -5    1    3    3    0  503  0.15786683505E+01  0.98202699233E+02  0.20960113380E+03  0.23151887098E+03  0.47000000000E+01 0.  1.
</event>
<event>
12    1  0.9749377E-001  0.6564459E+03  0.7818608E-02  0.9794759E-01
         21   -1    0    0  503  502  0.00000000000E+00  0.00000000000E+00  0.47942113220E+03  0.47942113220E+03  0.00000000000E+00 0. -1.
         21   -1    0    0  501  503 -0.00000000000E+00 -0.00000000000E+00 -0.96548594841E+03  0.96548594841E+03  0.00000000000E+00 0.  1.
          6    2    1    2  501    0 -0.19707332742E+03  0.61888832584E+03 -0.14014890327E+03  0.68632178229E+03  0.17185813198E+03 0.  0.
         24    2    3    3    0    0 -0.81736176873E+02  0.26588547758E+03  0.77403118744E+00  0.28908755337E+03  0.78709113779E+02 0.  0.
         -6    2    1    2    0  502  0.19707332742E+03 -0.61888832584E+03 -0.34591591295E+03  0.75858529831E+03  0.18420960818E+03 0.  0.
        -24    2    5    5    0    0  0.82360633551E+02 -0.14758960295E+03 -0.73991241726E+02  0.20248584215E+03  0.83425700834E+02 0.  0.
         12    1    4    4    0    0 -0.12875215353E+02  0.48473370314E+02  0.31114289078E+02  0.59021502732E+02  0.00000000000E+00 0. -1.
        -11    1    4    4    0    0 -0.68860961521E+02  0.21741210727E+03 -0.30340257890E+02  0.23006605064E+03  0.00000000000E+00 0.  1.
          5    1    3    3  501    0 -0.11533715055E+03  0.35300284825E+03 -0.14092293446E+03  0.39723422892E+03  0.47000000000E+01 0. -1.
         11    1    6    6    0    0  0.78916025651E+02 -0.86783512380E+02 -0.78929477526E+02  0.14138238769E+03  0.00000000000E+00 0. -1.
        -12    1    6    6    0    0  0.34446079005E+01 -0.60806090572E+02  0.49382357998E+01  0.61103454461E+02  0.00000000000E+00 0.  1.
         -5    1    5    5    0  502  0.11471269387E+03 -0.47129872288E+03 -0.27192467122E+03  0.55609945616E+03  0.47000000000E+01 0.  1.
</event>
<event>
12    1  0.9749377E-001  0.2263064E+03  0.7818608E-02  0.1129267E+00
         21   -1    0    0  503  502  0.00000000000E+00  0.00000000000E+00  0.10455339495E+03  0.10455339495E+03  0.00000000000E+00 0.  1.
         21   -1    0    0  501  503 -0.00000000000E+00 -0.00000000000E+00 -0.61216908763E+03  0.61216908763E+03  0.00000000000E+00 0. -1.
          6    2    1    2  501    0 -0.14586176814E+03 -0.11536014819E+03 -0.25662486454E+03  0.35993853462E+03  0.17063355008E+03 0.  0.
         24    2    3    3    0    0 -0.13894385325E+03 -0.10318283869E+03 -0.27601131007E+03  0.33556501038E+03  0.80433452933E+02 0.  0.
         -6    2    1    2    0  502  0.14586176814E+03  0.11536014819E+03 -0.25099082815E+03  0.35678394796E+03  0.17237972767E+03 0.  0.
        -24    2    5    5    0    0  0.39849492068E+02 -0.92317407575E+01 -0.89735017680E+02  0.12702914849E+03  0.80067622128E+02 0.  0.
         14    1    4    4    0    0  0.33918393659E+01  0.78046250681E+01 -0.24919611236E+02  0.26332561039E+02  0.00000000000E+00 0. -1.
        -13    1    4    4    0    0 -0.14233569261E+03 -0.11098746376E+03 -0.25109169884E+03  0.30923244934E+03  0.00000000000E+00 0.  1.
          5    1    3    3  501    0 -0.69179148904E+01 -0.12177309499E+02  0.19386445537E+02  0.24373524235E+02  0.47000000000E+01 0. -1.
         13    1    6    6    0    0  0.54686150461E+02  0.15054178789E+02 -0.77530242237E+02  0.96063217793E+02  0.00000000000E+00 0. -1.
        -14    1    6    6    0    0 -0.14836658394E+02 -0.24285919546E+02 -0.12204775443E+02  0.30965930700E+02  0.00000000000E+00 0.  1.
         -5    1    5    5    0  502  0.10601227607E+03  0.12459188895E+03 -0.16125581047E+03  0.22975479947E+03  0.47000000000E+01 0.  1.
</event>
<event>
12    1  0.9749377E-001  0.3923690E+03  0.7818608E-02  0.1046455E+00
         21   -1    0    0  501  502  0.00000000000E+00  0.00000000000E+00  0.43317382615E+03  0.43317382615E+03  0.00000000000E+00 0. -1.
         21   -1    0    0  502  503 -0.00000000000E+00 -0.00000000000E+00 -0.40466337469E+03  0.40466337469E+03  0.00000000000E+00 0.  1.
         -6    2    1    2    0  503  0.36515624560E+03 -0.68866433499E+02 -0.73524505405E+02  0.41591712453E+03  0.17175427860E+03 0.  0.
        -24    2    3    3    0    0  0.81118280562E+02  0.12989100105E+02 -0.20502173107E+02  0.11556507828E+03  0.78651484746E+02 0.  0.
          6    2    1    2  501    0 -0.36515624560E+03  0.68866433499E+02  0.10203495687E+03  0.42192007631E+03  0.17182476249E+03 0.  0.
         24    2    5    5    0    0 -0.88435699729E+02  0.46521473350E+02  0.13124579817E+02  0.13037127611E+03  0.82700027624E+02 0.  0.
         14    1    6    6    0    0  0.63776858759E+01  0.58361348370E+01  0.25059985437E+02  0.26509210043E+02  0.00000000000E+00 0. -1.
        -13    1    6    6    0    0 -0.94813385605E+02  0.40685338513E+02 -0.11935405620E+02  0.10386206606E+03  0.00000000000E+00 0.  1.
          5    1    5    5  501    0 -0.27672054587E+03  0.22344960149E+02  0.88910377051E+02  0.29154880020E+03  0.47000000000E+01 0. -1.
         13    1    4    4    0    0  0.88876098096E+02  0.58306902800E+01  0.37178406163E+01  0.89144714374E+02  0.00000000000E+00 0. -1.
        -14    1    4    4    0    0 -0.77578175343E+01  0.71584098251E+01 -0.24220013724E+02  0.26420363905E+02  0.00000000000E+00 0.  1.
         -5    1    3    3    0  503  0.28403796504E+03 -0.81855533604E+02 -0.53022332298E+02  0.30035204625E+03  0.47000000000E+01 0.  1.
</event>
<event>
12    1  0.9749377E-001  0.3126890E+03  0.7818608E-02  0.1079064E+00
         21   -1    0    0  501  502  0.00000000000E+00  0.00000000000E+00  0.10806222064E+03  0.10806222064E+03  0.00000000000E+00 0.  1.
         21   -1    0    0  502  503 -0.00000000000E+00 -0.00000000000E+00 -0.11317659758E+04  0.11317659758E+04  0.00000000000E+00 0. -1.
         -6    2    1    2    0  503 -0.23419923578E+03  0.17379799601E+03 -0.35540310196E+03  0.49043333033E+03  0.17075848782E+03 0.  0.
        -24    2    3    3    0    0 -0.21215688391E+03  0.17381299180E+03 -0.36685112066E+03  0.46515463114E+03  0.81040648048E+02 0.  0.
          6    2    1    2  501    0  0.23419923578E+03 -0.17379799601E+03 -0.66830065317E+03  0.74939486608E+03  0.17295050398E+03 0.  0.
         24    2    5    5    0    0  0.20464571706E+03 -0.10519089064E+03 -0.38707134360E+03  0.45837534795E+03  0.85666455408E+02 0.  0.
         14    1    6    6    0    0  0.10250382919E+03 -0.94508458363E+02 -0.18447264986E+03  0.23123373942E+03  0.00000000000E+00 0. -1.
        -13    1    6    6    0    0  0.10214188787E+03 -0.10682432278E+02 -0.20259869374E+03  0.22714160853E+03  0.00000000000E+00 0.  1.
          5    1    5    5  501    0  0.29553518715E+02 -0.68607105367E+02 -0.28122930957E+03  0.29101951813E+03  0.47000000000E+01 0. -1.
         13    1    4    4    0    0 -0.59106877362E+02  0.70617992197E+01 -0.71016253174E+02  0.92664988937E+02  0.00000000000E+00 0. -1.
        -14    1    4    4    0    0 -0.15305000655E+03  0.16675119258E+03 -0.29583486748E+03  0.37248964221E+03  0.00000000000E+00 0.  1.
         -5    1    3    3    0  503 -0.22042351865E+02 -0.14995791955E-01  0.11448018696E+02  0.25278699189E+02  0.47000000000E+01 0.  1.
</event>
<event>
12    1  0.9749377E-001  0.2379348E+03  0.7818608E-02  0.1121176E+00
         21   -1    0    0  501  502  0.00000000000E+00  0.00000000000E+00  0.11117689266E+04  0.11117689266E+04  0.00000000000E+00 0.  1.
         21   -1    0    0  502  503 -0.00000000000E+00 -0.00000000000E+00 -0.74635124393E+02  0.74635124393E+02  0.00000000000E+00 0.  1.
         -6    2    1    2    0  503 -0.15765917630E+03  0.14157894579E+03  0.71488201097E+03  0.76472318697E+03  0.16983594827E+03 0.  0.
        -24    2    3    3    0    0 -0.29663259131E+02  0.26626721912E+02  0.14980717825E+03  0.17402137966E+03  0.79071857591E+02 0.  0.
          6    2    1    2  501    0  0.15765917630E+03 -0.14157894579E+03  0.32225179122E+03  0.42168086400E+03  0.17049199499E+03 0.  0.
         24    2    5    5    0    0  0.65165960712E+02 -0.81855651854E+01  0.85813185507E+02  0.13484625453E+03  0.80659801890E+02 0.  0.
         14    1    6    6    0    0  0.76773691469E+02 -0.98606965090E+01  0.93072499428E+02  0.12105338982E+03  0.00000000000E+00 0. -1.
        -13    1    6    6    0    0 -0.11607730757E+02  0.16751313237E+01 -0.72593139206E+01  0.13792864709E+02  0.00000000000E+00 0.  1.
          5    1    5    5  501    0  0.92493215590E+02 -0.13339338060E+03  0.23643860571E+03  0.28683460947E+03  0.47000000000E+01 0. -1.
         11    1    4    4    0    0 -0.37304398680E+02  0.21832812162E+02  0.27172100801E+02  0.51054998871E+02  0.00000000000E+00 0. -1.
        -12    1    4    4    0    0  0.76411395497E+01  0.47939097500E+01  0.12263507745E+03  0.12296638079E+03  0.00000000000E+00 0.  1.
         -5    1    3    3    0  503 -0.12799591717E+03  0.11495222387E+03  0.56507483272E+03  0.59070180731E+03  0.47000000000E+01 0.  1.
</event>
<event>
12    1  0.9749377E-001  0.3353722E+03  0.7818608E-02  0.1068784E+00
         21   -1    0    0  501  502  0.00000000000E+00  0.00000000000E+00  0.60646961427E+03  0.60646961427E+03  0.00000000000E+00 0. -1.
         21   -1    0    0  502  503 -0.00000000000E+00 -0.00000000000E+00 -0.22707843475E+03  0.22707843475E+03  0.00000000000E+00 0.  1.
         -6    2    1    2    0  503 -0.31239891178E+03  0.10297849366E+03  0.19936646371E+03  0.42141786172E+03  0.17218704101E+03 0.  0.
        -24    2    3    3    0    0 -0.47980681376E+02  0.11853726547E+02  0.37134649598E+02  0.98057420018E+02  0.76115824909E+02 0.  0.
          6    2    1    2  501    0  0.31239891178E+03 -0.10297849366E+03  0.18002471582E+03  0.41213018730E+03  0.17101094333E+03 0.  0.
         24    2    5    5    0    0  0.28002085462E+03 -0.80161974485E+02  0.20508870373E+03  0.36502152968E+03  0.79634914197E+02 0.  0.
         12    1    6    6    0    0  0.23947985685E+03 -0.64019374728E+02  0.20454084435E+03  0.32138145433E+03  0.00000000000E+00 0. -1.
        -11    1    6    6    0    0  0.40540997767E+02 -0.16142599757E+02  0.54785937617E+00  0.43640075352E+02  0.00000000000E+00 0.  1.
          5    1    5    5  501    0  0.32378057161E+02 -0.22816519173E+02 -0.25063987908E+02  0.47108657617E+02  0.47000000000E+01 0. -1.
         11    1    4    4    0    0 -0.51171456605E+02  0.42285202347E+01  0.56894713179E+02  0.76638154611E+02  0.00000000000E+00 0. -1.
        -12    1    4    4    0    0  0.31907752290E+01  0.76252063127E+01 -0.19760063581E+02  0.21419265408E+02  0.00000000000E+00 0.  1.
         -5    1    3    3    0  503 -0.26441823040E+03  0.91124767110E+02  0.16223181411E+03  0.32336044170E+03  0.47000000000E+01 0.  1.
</event>
<event>
12    1  0.1001962E+000  0.8794696E+03  0.7818608E-02  0.9451616E-01
         21   -1    0    0  503  502  0.00000000000E+00  0.00000000000E+00  0.17048148648E+04  0.17048148648E+04  0.00000000000E+00 0. -1.
         21   -1    0    0  501  503 -0.00000000000E+00 -0.00000000000E+00 -0.59259794291E+03  0.59259794291E+03  0.00000000000E+00 0.  1.
          6    2    1    2  501    0  0.85464871192E+03 -0.13943174877E+03  0.11056079131E+04  0.14148728062E+04  0.17213531560E+03 0.  0.
         24    2    3    3    0    0  0.18524217874E+03 -0.20111466300E+02  0.27345703606E+03  0.34023816660E+03  0.79146216473E+02 0.  0.
         -6    2    1    2    0  502 -0.85464871192E+03  0.13943174877E+03  0.66090087902E+01  0.88254000151E+03  0.17019853675E+03 0.  0.
        -24    2    5    5    0    0 -0.19163586866E+03  0.15818497929E+02 -0.20832198750E+02  0.20752787126E+03  0.75228357757E+02 0.  0.
         12    1    4    4    0    0  0.73664498343E+02 -0.47373904510E+02  0.11865572502E+03  0.14747856192E+03  0.00000000000E+00 0. -1.
        -11    1    4    4    0    0  0.11157768040E+03  0.27262438209E+02  0.15480131104E+03  0.19275960468E+03  0.00000000000E+00 0.  1.
          5    1    3    3  501    0  0.66940653318E+03 -0.11932028247E+03  0.83215087706E+03  0.10746346396E+04  0.47000000000E+01 0. -1.
         11    1    6    6    0    0 -0.14937775212E+02  0.20431831825E+02 -0.17440407834E+02  0.30737024994E+02  0.00000000000E+00 0. -1.
        -12    1    6    6    0    0 -0.17669809345E+03 -0.46133338959E+01 -0.33917909157E+01  0.17679084626E+03  0.00000000000E+00 0.  1.
         -5    1    5    5    0  502 -0.66301284327E+03  0.12361325084E+03  0.27441207540E+02  0.67501213025E+03  0.47000000000E+01 0.  1.
</event>
<event>
12    1  0.9749377E-001  0.8002082E+03  0.7818608E-02  0.9559716E-01
         21   -1    0    0  501  502  0.00000000000E+00  0.00000000000E+00  0.17149088553E+04  0.17149088553E+04  0.00000000000E+00 0. -1.
         21   -1    0    0  502  503 -0.00000000000E+00 -0.00000000000E+00 -0.40616068178E+03  0.40616068178E+03  0.00000000000E+00 0.  1.
         -6    2    1    2    0  503  0.67646128255E+03 -0.41187584150E+03  0.90636648126E+03  0.12160839004E+04  0.17354618654E+03 0.  0.
        -24    2    3    3    0    0  0.41206740206E+03 -0.24122392570E+03  0.64760831521E+03  0.80864791905E+03  0.80786142865E+02 0.  0.
          6    2    1    2  501    0 -0.67646128255E+03  0.41187584150E+03  0.40238169224E+03  0.90498563667E+03  0.17276110885E+03 0.  0.
         24    2    5    5    0    0 -0.54075616536E+03  0.26368538693E+03  0.33705776733E+03  0.69364327266E+03  0.74738460912E+02 0.  0.
         12    1    6    6    0    0 -0.20248668617E+02  0.99135526135E+01  0.31957112385E+02  0.39109386830E+02  0.00000000000E+00 0. -1.
        -11    1    6    6    0    0 -0.52050749674E+03  0.25377183431E+03  0.30510065495E+03  0.65453388583E+03  0.00000000000E+00 0.  1.
          5    1    5    5  501    0 -0.13570511719E+03  0.14819045457E+03  0.65323924900E+02  0.21134236400E+03  0.47000000000E+01 0. -1.
         11    1    4    4    0    0  0.30275238182E+03 -0.13795222547E+03  0.47159409748E+03  0.57714020306E+03  0.00000000000E+00 0. -1.
        -12    1    4    4    0    0  0.10931502024E+03 -0.10327170023E+03  0.17601421772E+03  0.23150771598E+03  0.00000000000E+00 0.  1.
         -5    1    3    3    0  503  0.26439388048E+03 -0.17065191580E+03  0.25875816606E+03  0.40743598136E+03  0.47000000000E+01 0.  1.
</event>
<event>
12    1  0.9749377E-001  0.3543125E+03  0.7818608E-02  0.1060859E+00
         21   -1    0    0  503  502  0.00000000000E+00  0.00000000000E+00  0.49569824976E+03  0.49569824976E+03  0.00000000000E+00 0. -1.
         21   -1    0    0  501  503 -0.00000000000E+00 -0.00000000000E+00 -0.28678753032E+03  0.28678753032E+03  0.00000000000E+00 0.  1.
          6    2    1    2  501    0  0.27032540260E+03 -0.19721582193E+03  0.12939505863E+03  0.39810555323E+03  0.17255447431E+03 0.  0.
         24    2    3    3    0    0  0.11275457872E+03 -0.36464521096E+02  0.99433074801E+01  0.14323233747E+03  0.79833431679E+02 0.  0.
         -6    2    1    2    0  502 -0.27032540260E+03  0.19721582193E+03  0.79515660815E+02  0.38438022685E+03  0.17162609001E+03 0.  0.
        -24    2    5    5    0    0 -0.26786888526E+03  0.21222470358E+03  0.55185835223E+02  0.35530564312E+03  0.80022241451E+02 0.  0.
         14    1    4    4    0    0  0.36388799588E+02 -0.30701845106E+02 -0.30583709015E+02  0.56587200721E+02  0.00000000000E+00 0. -1.
        -13    1    4    4    0    0  0.76365779132E+02 -0.57626759893E+01  0.40527016495E+02  0.86645136753E+02  0.00000000000E+00 0.  1.
          5    1    3    3  501    0  0.15757082388E+03 -0.16075130083E+03  0.11945175114E+03  0.25487321575E+03  0.47000000000E+01 0. -1.
         11    1    6    6    0    0 -0.18756099185E+03  0.16737087053E+03  0.72670494422E+02  0.26167371807E+03  0.00000000000E+00 0. -1.
        -12    1    6    6    0    0 -0.80307893405E+02  0.44853833044E+02 -0.17484659199E+02  0.93631925053E+02  0.00000000000E+00 0.  1.
         -5    1    5    5    0  502 -0.24565173455E+01 -0.15008881652E+02  0.24329825592E+02  0.29074583733E+02  0.47000000000E+01 0.  1.
</event>
<event>
12    1  0.9749377E-001  0.3466325E+03  0.7818608E-02  0.1064006E+00
         21   -1    0    0  501  502  0.00000000000E+00  0.00000000000E+00  0.14867013775E+04  0.14867013775E+04  0.00000000000E+00 0. -1.
         21   -1    0    0  502  503 -0.00000000000E+00 -0.00000000000E+00 -0.15354349323E+03  0.15354349323E+03  0.00000000000E+00 0.  1.
         -6    2    1    2    0  503 -0.26363149595E+03 -0.19639841400E+03  0.11840763761E+04  0.12408788151E+04  0.17224826988E+03 0.  0.
        -24    2    3    3    0    0 -0.14730217793E+03 -0.14008163099E+03  0.92612349965E+03  0.95232055965E+03  0.88819574244E+02 0.  0.
          6    2    1    2  501    0  0.26363149595E+03  0.19639841400E+03  0.14908150812E+03  0.39936605565E+03  0.17086265731E+03 0.  0.
         24    2    5    5    0    0  0.13252075501E+03  0.33083879968E+02  0.52846097740E+02  0.16883404567E+03  0.83999591116E+02 0.  0.
         14    1    6    6    0    0  0.57588503227E+02 -0.18135029832E+02  0.49388705329E+02  0.78003584693E+02  0.00000000000E+00 0. -1.
        -13    1    6    6    0    0  0.74932251784E+02  0.51218909800E+02  0.34573924116E+01  0.90830460974E+02  0.00000000000E+00 0.  1.
          5    1    5    5  501    0  0.13111074094E+03  0.16331453403E+03  0.96235410384E+02  0.23053200998E+03  0.47000000000E+01 0. -1.
         13    1    4    4    0    0 -0.11807348699E+03 -0.11431965700E+03  0.54581042371E+03  0.57001697426E+03  0.00000000000E+00 0. -1.
        -14    1    4    4    0    0 -0.29228690932E+02 -0.25761973996E+02  0.38031307593E+03  0.38230358539E+03  0.00000000000E+00 0.  1.
         -5    1    3    3    0  503 -0.11632931803E+03 -0.56316783004E+02  0.25795287649E+03  0.28855825542E+03  0.47000000000E+01 0.  1.
</event>
<event>
12    1  0.9749377E-001  0.2306035E+03  0.7818608E-02  0.1126216E+00
         21   -1    0    0  503  502  0.00000000000E+00  0.00000000000E+00  0.62609473699E+02  0.62609473699E+02  0.00000000000E+00 0.  1.
         21   -1    0    0  501  503 -0.00000000000E+00 -0.00000000000E+00 -0.12783727793E+04  0.12783727793E+04  0.00000000000E+00 0. -1.
          6    2    1    2  501    0 -0.17175476028E+03  0.11006924744E+03 -0.38402643125E+03  0.46791004973E+03  0.17276740962E+03 0.  0.
         24    2    3    3    0    0 -0.55678341948E+02  0.62437076270E+02 -0.84167112307E+02  0.14282504580E+03  0.79475937605E+02 0.  0.
         -6    2    1    2    0  502  0.17175476028E+03 -0.11006924744E+03 -0.83173687436E+03  0.87307220328E+03  0.16986437843E+03 0.  0.
        -24    2    5    5    0    0  0.14005409945E+03 -0.15382622078E+02 -0.44298852560E+03  0.47167731344E+03  0.79930459621E+02 0.  0.
         14    1    4    4    0    0 -0.36031940412E+02  0.58096230143E+02 -0.13936156561E+02  0.69768826465E+02  0.00000000000E+00 0. -1.
        -13    1    4    4    0    0 -0.19646401536E+02  0.43408461272E+01 -0.70230955745E+02  0.73056219334E+02  0.00000000000E+00 0.  1.
          5    1    3    3  501    0 -0.11607641833E+03  0.47632171167E+02 -0.29985931894E+03  0.32508500393E+03  0.47000000000E+01 0. -1.
         13    1    6    6    0    0  0.12214334436E+02 -0.15025009572E+02 -0.13600347864E+02  0.23662424651E+02  0.00000000000E+00 0. -1.
        -14    1    6    6    0    0  0.12783976501E+03 -0.35761250609E+00 -0.42938817773E+03  0.44801488879E+03  0.00000000000E+00 0.  1.
         -5    1    5    5    0  502  0.31700660832E+02 -0.94686625359E+02 -0.38874834877E+03  0.40139488984E+03  0.47000000000E+01 0.  1.
</event>
<event>
12    1  0.9749377E-001  0.2273480E+03  0.7818608E-02  0.1128520E+00
         21   -1    0    0  503  502  0.00000000000E+00  0.00000000000E+00  0.51669628834E+02  0.51669628834E+02  0.00000000000E+00 0. -1.
         21   -1    0    0  501  503 -0.00000000000E+00 -0.00000000000E+00 -0.13719744510E+04  0.13719744510E+04  0.00000000000E+00 0.  1.
          6    2    1    2  501    0 -0.84076848599E+02  0.17804307583E+03 -0.81592982758E+03  0.85678286706E+03  0.17195099431E+03 0.  0.
         24    2    3    3    0    0 -0.89199352592E+02  0.94289387951E+02 -0.68100270202E+03  0.69782268497E+03  0.79654292525E+02 0.  0.
         -6    2    1    2    0  502  0.84076848599E+02 -0.17804307583E+03 -0.50437499464E+03  0.56686121282E+03  0.16783696273E+03 0.  0.
        -24    2    5    5    0    0  0.23560586597E+01 -0.14498927798E+03 -0.27618810102E+03  0.32219370480E+03  0.80631721586E+02 0.  0.
         14    1    4    4    0    0 -0.73699763689E+02  0.47484741199E+02 -0.27010263760E+03  0.28397515852E+03  0.00000000000E+00 0. -1.
        -13    1    4    4    0    0 -0.15499588903E+02  0.46804646752E+02 -0.41090006442E+03  0.41384752646E+03  0.00000000000E+00 0.  1.
          5    1    3    3  501    0  0.51225039921E+01  0.83753687879E+02 -0.13492712556E+03  0.15896018209E+03  0.47000000000E+01 0. -1.
         13    1    6    6    0    0  0.42076977474E+01 -0.22111414255E+02 -0.30901356815E+01  0.22719337561E+02  0.00000000000E+00 0. -1.
        -14    1    6    6    0    0 -0.18516390877E+01 -0.12287786373E+03 -0.27309796534E+03  0.29947436724E+03  0.00000000000E+00 0.  1.
         -5    1    5    5    0  502  0.81720789940E+02 -0.33053797850E+02 -0.22818689362E+03  0.24466750802E+03  0.47000000000E+01 0.  1.
</event>
<event>
12    1  0.9749377E-001  0.4582762E+03  0.7818608E-02  0.1025282E+00
         21   -1    0    0  501  502  0.00000000000E+00  0.00000000000E+00  0.26651705536E+03  0.26651705536E+03  0.00000000000E+00 0.  1.
         21   -1    0    0  502  503 -0.00000000000E+00 -0.00000000000E+00 -0.96651958911E+03  0.96651958911E+03  0.00000000000E+00 0. -1.
         -6    2    1    2    0  503  0.38555840382E+03  0.19270439897E+03 -0.99758731205E+02  0.47442360309E+03  0.17127662588E+03 0.  0.
        -24    2    3    3    0    0  0.14695432283E+03  0.14240661556E+03 -0.39644837766E+02  0.22323135666E+03  0.79908123984E+02 0.  0.
          6    2    1    2  501    0 -0.38555840382E+03 -0.19270439897E+03 -0.60024380255E+03  0.75861304138E+03  0.17149593558E+03 0.  0.
         24    2    5    5    0    0 -0.28246164594E+03 -0.69126105862E+02 -0.40030337048E+03  0.50190542095E+03  0.84280859175E+02 0.  0.
         12    1    6    6    0    0 -0.68359341204E+02 -0.43612969559E+01 -0.44674887332E+02  0.81779373922E+02  0.00000000000E+00 0. -1.
        -11    1    6    6    0    0 -0.21410230474E+03 -0.64764808906E+02 -0.35562848315E+03  0.42012604703E+03  0.00000000000E+00 0.  1.
          5    1    5    5  501    0 -0.10309675788E+03 -0.12357829310E+03 -0.19994043207E+03  0.25670762043E+03  0.47000000000E+01 0. -1.
         11    1    4    4    0    0  0.14778415098E+03  0.10318557786E+03 -0.36278135963E+02  0.18385734119E+03  0.00000000000E+00 0. -1.
        -12    1    4    4    0    0 -0.82982814862E+00  0.39221037704E+02 -0.33667018032E+01  0.39374015471E+02  0.00000000000E+00 0.  1.
         -5    1    3    3    0  503  0.23860408099E+03  0.50297783402E+02 -0.60113893439E+02  0.25119224643E+03  0.47000000000E+01 0.  1.
</event>
<event>
12    1  0.9749377E-001  0.3018217E+03  0.7818608E-02  0.1084333E+00
         21   -1    0    0  501  502  0.00000000000E+00  0.00000000000E+00  0.65270066389E+03  0.65270066389E+03  0.00000000000E+00 0.  1.
         21   -1    0    0  502  503 -0.00000000000E+00 -0.00000000000E+00 -0.29327072634E+03  0.29327072634E+03  0.00000000000E+00 0. -1.
         -6    2    1    2    0  503 -0.19483607105E+03  0.17818419508E+03  0.50648261080E+03  0.59680315082E+03  0.17302792788E+03 0.  0.
        -24    2    3    3    0    0 -0.10228624030E+03  0.17458517758E+03  0.39843274306E+03  0.45441183080E+03  0.82456061294E+02 0.  0.
          6    2    1    2  501    0  0.19483607105E+03 -0.17818419508E+03 -0.14705267326E+03  0.34916823941E+03  0.17488072718E+03 0.  0.
         24    2    5    5    0    0  0.27229804102E+02 -0.69709393617E+02 -0.16641853185E+02  0.11065678210E+03  0.79794174965E+02 0.  0.
         14    1    6    6    0    0 -0.20681291401E+02 -0.22562222494E+02 -0.29170030973E+02  0.42280733258E+02  0.00000000000E+00 0. -1.
        -13    1    6    6    0    0  0.47911095503E+02 -0.47147171123E+02  0.12528177788E+02  0.68376048846E+02  0.00000000000E+00 0.  1.
          5    1    5    5  501    0  0.16760626695E+03 -0.10847480147E+03 -0.13041082007E+03  0.23851145730E+03  0.47000000000E+01 0. -1.
         13    1    4    4    0    0 -0.25020618697E+01 -0.63091292830E+01  0.15233228659E+01  0.69560001770E+01  0.00000000000E+00 0. -1.
        -14    1    4    4    0    0 -0.99784178431E+02  0.18089430686E+03  0.39690942020E+03  0.44745583062E+03  0.00000000000E+00 0.  1.
         -5    1    3    3    0  503 -0.92549830749E+02  0.35990175083E+01  0.10804986774E+03  0.14239132002E+03  0.47000000000E+01 0.  1.
</event>
<event>
12    1  0.9749377E-001  0.2222457E+03  0.7818608E-02  0.1132220E+00
         21   -1    0    0  503  502  0.00000000000E+00  0.00000000000E+00  0.37319130260E+03  0.37319130260E+03  0.00000000000E+00 0.  1.
         21   -1    0    0  501  503 -0.00000000000E+00 -0.00000000000E+00 -0.16912365368E+03  0.16912365368E+03  0.00000000000E+00 0. -1.
          6    2    1    2  501    0 -0.17451444797E+03 -0.21263865493E+01  0.49672896398E+02  0.25199138138E+03  0.17484978005E+03 0.  0.
         24    2    3    3    0    0 -0.38224448002E+02  0.26566823253E+01  0.71988221240E+02  0.11372386690E+03  0.79263153598E+02 0.  0.
         -6    2    1    2    0  502  0.17451444797E+03  0.21263865493E+01  0.15439475251E+03  0.29032357491E+03  0.17317685894E+03 0.  0.
        -24    2    5    5    0    0  0.14652767116E+03 -0.45206350466E+02  0.15913977788E+03  0.23493176202E+03  0.79708790992E+02 0.  0.
         14    1    4    4    0    0 -0.28130526145E+01  0.33217472061E+02  0.76902930029E+01  0.34211903216E+02  0.00000000000E+00 0. -1.
        -13    1    4    4    0    0 -0.35411395388E+02 -0.30560789736E+02  0.64297928237E+02  0.79511963680E+02  0.00000000000E+00 0.  1.
          5    1    3    3  501    0 -0.13628999996E+03 -0.47830688746E+01 -0.22315324842E+02  0.13826751448E+03  0.47000000000E+01 0. -1.
         13    1    6    6    0    0  0.54462450721E+00 -0.25411969613E+02  0.26088618200E+02  0.36423629899E+02  0.00000000000E+00 0. -1.
        -14    1    6    6    0    0  0.14598304666E+03 -0.19794380853E+02  0.13305115968E+03  0.19850813212E+03  0.00000000000E+00 0.  1.
         -5    1    5    5    0  502  0.27986776803E+02  0.47332737015E+02 -0.47450253696E+01  0.55391812887E+02  0.47000000000E+01 0.  1.
</event>
<event>
12    1  0.9749377E-001  0.4215437E+03  0.7818608E-02  0.1036565E+00
         21   -1    0    0  501  502  0.00000000000E+00  0.00000000000E+00  0.19161297282E+03  0.19161297282E+03  0.00000000000E+00 0.  1.
         21   -1    0    0  502  503 -0.00000000000E+00 -0.00000000000E+00 -0.10168608313E+04  0.10168608313E+04  0.00000000000E+00 0. -1.
         -6    2    1    2    0  503 -0.18783919309E+03 -0.36023116497E+03 -0.39307591306E+03  0.59082029483E+03  0.17178443667E+03 0.  0.
        -24    2    3    3    0    0 -0.17990081852E+03 -0.30765553976E+03 -0.39430282635E+03  0.53742732271E+03  0.79606360728E+02 0.  0.
          6    2    1    2  501    0  0.18783919309E+03  0.36023116497E+03 -0.43217194541E+03  0.61765350928E+03  0.17225914332E+03 0.  0.
         24    2    5    5    0    0  0.20196150497E+03  0.30914783023E+03 -0.32663492712E+03  0.49946256627E+03  0.80072773546E+02 0.  0.
         12    1    6    6    0    0  0.78792808423E+02  0.67442839711E+02 -0.63957165161E+02  0.12184975282E+03  0.00000000000E+00 0. -1.
        -11    1    6    6    0    0  0.12316869655E+03  0.24170499052E+03 -0.26267776196E+03  0.37761281345E+03  0.00000000000E+00 0.  1.
          5    1    5    5  501    0 -0.14122311886E+02  0.51083334736E+02 -0.10553701829E+03  0.11819094301E+03  0.47000000000E+01 0. -1.
         11    1    4    4    0    0 -0.82546416175E+02 -0.84935768055E+02 -0.16625346861E+03  0.20412792887E+03  0.00000000000E+00 0. -1.
        -12    1    4    4    0    0 -0.97354402348E+02 -0.22271977171E+03 -0.22804935774E+03  0.33329939384E+03  0.00000000000E+00 0.  1.
         -5    1    3    3    0  503 -0.79383745639E+01 -0.52575625207E+02  0.12269132889E+01  0.53392972130E+02  0.47000000000E+01 0.  1.
</event>
<event>
12    1  0.9749377E-001  0.1694394E+03  0.7818608E-02  0.1178434E+00
         21   -1    0    0  501  502  0.00000000000E+00  0.00000000000E+00  0.76825571202E+02  0.76825571202E+02  0.00000000000E+00 0. -1.
         21   -1    0    0  502  503 -0.00000000000E+00 -0.00000000000E+00 -0.40167563131E+03  0.40167563131E+03  0.00000000000E+00 0. -1.
         -6    2    1    2    0  503 -0.20154593893E+02  0.47495355145E+01 -0.19074631619E+03  0.25805836668E+03  0.17257229712E+03 0.  0.
        -24    2    3    3    0    0 -0.62627896604E+02 -0.42124983738E+02 -0.12360641330E+03  0.16569463702E+03  0.80494718084E+02 0.  0.
          6    2    1    2  501    0  0.20154593893E+02 -0.47495355145E+01 -0.13410374392E+03  0.22044283582E+03  0.17373101045E+03 0.  0.
         24    2    5    5    0    0  0.62763820786E+02  0.43081813138E+02 -0.73740101667E+02  0.13229952390E+03  0.79184730906E+02 0.  0.
         14    1    6    6    0    0  0.93816328718E+01  0.46939370324E+02 -0.60533744893E+02  0.77172882495E+02  0.00000000000E+00 0. -1.
        -13    1    6    6    0    0  0.53382187914E+02 -0.38575571854E+01 -0.13206356774E+02  0.55126641410E+02  0.00000000000E+00 0.  1.
          5    1    5    5  501    0 -0.42609226893E+02 -0.47831348653E+02 -0.60363642252E+02  0.88143311920E+02  0.47000000000E+01 0. -1.
         13    1    4    4    0    0 -0.24465667884E+02 -0.62107879293E+02 -0.67191381620E+02  0.94713459124E+02  0.00000000000E+00 0. -1.
        -14    1    4    4    0    0 -0.38162228720E+02  0.19982895554E+02 -0.56415031681E+02  0.70981177893E+02  0.00000000000E+00 0.  1.
         -5    1    3    3    0  503  0.42473302711E+02  0.46874519253E+02 -0.67139902885E+02  0.92363729666E+02  0.47000000000E+01 0.  1.
</event>
<event>
12    1  0.9749377E-001  0.1447997E+04  0.7818608E-02  0.8919790E-01
         21   -1    0    0  501  502  0.00000000000E+00  0.00000000000E+00  0.12784809643E+04  0.12784809643E+04  0.00000000000E+00 0. -1.
         21   -1    0    0  502  503 -0.00000000000E+00 -0.00000000000E+00 -0.16508868172E+04  0.16508868172E+04  0.00000000000E+00 0.  1.
         -6    2    1    2    0  503  0.99106298586E+03 -0.10477925312E+04 -0.17017613961E+03  0.14625515351E+04  0.17326870498E+03 0.  0.
        -24    2    3    3    0    0  0.34980455132E+03 -0.41005362645E+03 -0.16719915699E+02  0.54522160915E+03  0.80497495683E+02 0.  0.
          6    2    1    2  501    0 -0.99106298586E+03  0.10477925312E+04 -0.20222971322E+03  0.14668162464E+04  0.17486570089E+03 0.  0.
         24    2    5    5    0    0 -0.29168998957E+03  0.37391660802E+03 -0.93343120892E+02  0.48951909209E+03  0.77584299564E+02 0.  0.
         12    1    6    6    0    0 -0.16329692175E+03  0.15012453708E+03 -0.56443156231E+02  0.22888663389E+03  0.00000000000E+00 0. -1.
        -11    1    6    6    0    0 -0.12839306782E+03  0.22379207093E+03 -0.36899964661E+02  0.26063245820E+03  0.00000000000E+00 0.  1.
          5    1    5    5  501    0 -0.69937299629E+03  0.67387592316E+03 -0.10888659233E+03  0.97729715427E+03  0.47000000000E+01 0. -1.
         13    1    4    4    0    0 -0.28486627297E+00 -0.56846275621E+01  0.79662423998E+01  0.97906668458E+01  0.00000000000E+00 0. -1.
        -14    1    4    4    0    0  0.35008941760E+03 -0.40436899889E+03 -0.24686158099E+02  0.53543094230E+03  0.00000000000E+00 0.  1.
         -5    1    3    3    0  503  0.64125843453E+03 -0.63773890473E+03 -0.15345622391E+03  0.91732992599E+03  0.47000000000E+01 0.  1.
</event>
<event>
12    1  0.9749377E-001  0.2593702E+03  0.7818608E-02  0.1107522E+00
         21   -1    0    0  501  502  0.00000000000E+00  0.00000000000E+00  0.10063274820E+04  0.10063274820E+04  0.00000000000E+00 0. -1.
         21   -1    0    0  502  503 -0.00000000000E+00 -0.00000000000E+00 -0.11053538527E+03  0.11053538527E+03  0.00000000000E+00 0.  1.
         -6    2    1    2    0  503 -0.21829664856E+03  0.32738597194E+02  0.75445673283E+03  0.80407216414E+03  0.16912078792E+03 0.  0.
        -24    2    3    3    0    0 -0.17254072212E+03  0.69782960079E+02  0.67326553288E+03  0.70367300789E+03  0.85025066656E+02 0.  0.
          6    2    1    2  501    0  0.21829664856E+03 -0.32738597194E+02  0.14133536385E+03  0.31279070309E+03  0.17069591777E+03 0.  0.
         24    2    5    5    0    0  0.11224557597E+03  0.11967035417E+02  0.11228335050E+03  0.19399872919E+03  0.11084077257E+03 0.  0.
         12    1    6    6    0    0  0.59851710481E+02 -0.35247743691E+02  0.10099053724E+03  0.12257128251E+03  0.00000000000E+00 0. -1.
        -11    1    6    6    0    0  0.52393865494E+02  0.47214779108E+02  0.11292813256E+02  0.71427446677E+02  0.00000000000E+00 0.  1.
          5    1    5    5  501    0  0.10605107259E+03 -0.44705632611E+02  0.29052013352E+02  0.11879197390E+03  0.47000000000E+01 0. -1.
         13    1    4    4    0    0 -0.11418954091E+03  0.87128122034E+02  0.48334076548E+03  0.50423095549E+03  0.00000000000E+00 0. -1.
        -14    1    4    4    0    0 -0.58351181214E+02 -0.17345161955E+02  0.18992476740E+03  0.19944205239E+03  0.00000000000E+00 0.  1.
         -5    1    3    3    0  503 -0.45755926441E+02 -0.37044362885E+02  0.81191199956E+02  0.10039915625E+03  0.47000000000E+01 0.  1.
</event>
<event>
12    1  0.9749377E-001  0.2962544E+03  0.7818608E-02  0.1087128E+00
         21   -1    0    0  501  502  0.00000000000E+00  0.00000000000E+00  0.65480105924E+02  0.65480105924E+02  0.00000000000E+00 0. -1.
         21   -1    0    0  502  503 -0.00000000000E+00 -0.00000000000E+00 -0.16035410905E+04  0.16035410905E+04  0.00000000000E+00 0.  1.
         -6    2    1    2    0  503 -0.71299058328E+02  0.25762631002E+03 -0.92582017031E+03  0.97898276269E+03  0.17265396192E+03 0.  0.
        -24    2    3    3    0    0 -0.12734870164E+02  0.24429895549E+03 -0.74252284510E+03  0.78603877615E+03  0.81686140460E+02 0.  0.
          6    2    1    2  501    0  0.71299058328E+02 -0.25762631002E+03 -0.61224081427E+03  0.69003843374E+03  0.17279859387E+03 0.  0.
         24    2    5    5    0    0  0.41522284003E+02 -0.21055575884E+03 -0.58383662226E+03  0.62733930136E+03  0.81434451496E+02 0.  0.
         12    1    6    6    0    0 -0.24807094166E+02 -0.55467606846E+02 -0.16301284596E+03  0.17396906414E+03  0.00000000000E+00 0. -1.
        -11    1    6    6    0    0  0.66329378169E+02 -0.15508815199E+03 -0.42082377629E+03  0.45337023721E+03  0.00000000000E+00 0.  1.
          5    1    5    5  501    0  0.29776774325E+02 -0.47070551178E+02 -0.28404192018E+02  0.62699132383E+02  0.47000000000E+01 0. -1.
         11    1    4    4    0    0  0.11288481467E+02  0.10108568987E+03 -0.42313970877E+03  0.43519301424E+03  0.00000000000E+00 0. -1.
        -12    1    4    4    0    0 -0.24023351631E+02  0.14321326563E+03 -0.31938313633E+03  0.35084576191E+03  0.00000000000E+00 0.  1.
         -5    1    3    3    0  503 -0.58564188164E+02  0.13327354521E+02 -0.18329732521E+03  0.19294398654E+03  0.47000000000E+01 0.  1.
</event>
<event>
12    1  0.9749377E-001  0.4811712E+03  0.7818608E-02  0.1018814E+00
         21   -1    0    0  501  502  0.00000000000E+00  0.00000000000E+00  0.66569559269E+03  0.66569559269E+03  0.00000000000E+00 0. -1.
         21   -1    0    0  502  503 -0.00000000000E+00 -0.00000000000E+00 -0.35657205806E+03  0.35657205806E+03  0.00000000000E+00 0.  1.
         -6    2    1    2    0  503  0.31873018051E+03  0.32148424523E+03  0.10397029280E+03  0.49666037616E+03  0.17584271258E+03 0.  0.
        -24    2    3    3    0    0  0.62441169265E+02  0.12734006597E+03  0.14241376793E+02  0.16282001313E+03  0.78696555459E+02 0.  0.
          6    2    1    2  501    0 -0.31873018051E+03 -0.32148424523E+03  0.20515324183E+03  0.52560727459E+03  0.17097984258E+03 0.  0.
         24    2    5    5    0    0 -0.31488977319E+03 -0.25387833948E+03  0.19707533823E+03  0.45725049184E+03  0.81422004628E+02 0.  0.
         12    1    6    6    0    0 -0.14147237700E+03 -0.16583314948E+03  0.10994684859E+03  0.24413802743E+03  0.00000000000E+00 0. -1.
        -11    1    6    6    0    0 -0.17341739619E+03 -0.88045189993E+02  0.87128489638E+02  0.21311246441E+03  0.00000000000E+00 0.  1.
          5    1    5    5  501    0 -0.38404073184E+01 -0.67605905750E+02  0.80779036060E+01  0.68356782746E+02  0.47000000000E+01 0. -1.
         13    1    4    4    0    0  0.79112810607E+02  0.11548513670E+03  0.42387459724E+01  0.14004863643E+03  0.00000000000E+00 0. -1.
        -14    1    4    4    0    0 -0.16671641342E+02  0.11854929276E+02  0.10002630821E+02  0.22771376693E+02  0.00000000000E+00 0.  1.
         -5    1    3    3    0  503  0.25628901124E+03  0.19414417926E+03  0.89728916006E+02  0.33384036303E+03  0.47000000000E+01 0.  1.
</event>
<event>
12    1  0.9749377E-001  0.1375186E+03  0.7818608E-02  0.1216707E+00
         21   -1    0    0  501  502  0.00000000000E+00  0.00000000000E+00  0.11204413409E+03  0.11204413409E+03  0.00000000000E+00 0. -1.
         21   -1    0    0  502  503 -0.00000000000E+00 -0.00000000000E+00 -0.29668583654E+03  0.29668583654E+03  0.00000000000E+00 0.  1.
         -6    2    1    2    0  503  0.36132930418E+02 -0.42869707921E+02 -0.54898706675E+02  0.18752436091E+03  0.17031769557E+03 0.  0.
        -24    2    3    3    0    0  0.63379348087E+02 -0.79157537313E+01 -0.83631848487E+02  0.13449767303E+03  0.83759996710E+02 0.  0.
          6    2    1    2  501    0 -0.36132930418E+02  0.42869707921E+02 -0.12974299578E+03  0.22120560972E+03  0.17016249970E+03 0.  0.
         24    2    5    5    0    0  0.35278198564E+02  0.51892398977E+02 -0.49063913430E+02  0.11298286431E+03  0.80127945571E+02 0.  0.
         14    1    6    6    0    0  0.54902796137E+02  0.38769376717E+02 -0.10874454888E+02  0.68085500393E+02  0.00000000000E+00 0. -1.
        -13    1    6    6    0    0 -0.19624597573E+02  0.13123022261E+02 -0.38189458542E+02  0.44897363919E+02  0.00000000000E+00 0.  1.
          5    1    5    5  501    0 -0.71411128982E+02 -0.90226910559E+01 -0.80679082346E+02  0.10822274541E+03  0.47000000000E+01 0. -1.
         13    1    4    4    0    0  0.28031391092E+02  0.74048822865E+01  0.12014716322E+02  0.31383826671E+02  0.00000000000E+00 0. -1.
        -14    1    4    4    0    0  0.35347956995E+02 -0.15320636018E+02 -0.95646564809E+02  0.10311384636E+03  0.00000000000E+00 0.  1.
         -5    1    3    3    0  503 -0.27246417669E+02 -0.34953954190E+02  0.28733141812E+02  0.53026687881E+02  0.47000000000E+01 0.  1.
</event>
<event>
12    1  0.9749377E-001  0.3674609E+03  0.7818608E-02  0.1055668E+00
         21   -1    0    0  503  502  0.00000000000E+00  0.00000000000E+00  0.35425673823E+03  0.35425673823E+03  0.00000000000E+00 0.  1.
         21   -1    0    0  501  503 -0.00000000000E+00 -0.00000000000E+00 -0.45234370804E+03  0.45234370804E+03  0.00000000000E+00 0. -1.
          6    2    1    2  501    0  0.25116890839E+03  0.21927191869E+03 -0.18717489453E+03  0.42013304113E+03  0.17410151131E+03 0.  0.
         24    2    3    3    0    0  0.43573425078E+02  0.81122393992E+02 -0.10134788497E+03  0.15637265473E+03  0.75508457667E+02 0.  0.
         -6    2    1    2    0  502 -0.25116890839E+03 -0.21927191869E+03  0.89087924717E+02  0.38646740513E+03  0.17393792580E+03 0.  0.
        -24    2    5    5    0    0 -0.15643531909E+03 -0.21412231118E+03  0.37698322658E+02  0.27846762458E+03  0.76175332006E+02 0.  0.
         14    1    4    4    0    0  0.34125564747E+02 -0.60627801315E+00 -0.15562468461E+02  0.37511493797E+02  0.00000000000E+00 0. -1.
        -13    1    4    4    0    0  0.94478603311E+01  0.81728672005E+02 -0.85785416505E+02  0.11886116093E+03  0.00000000000E+00 0.  1.
          5    1    3    3  501    0  0.20759548331E+03  0.13814952470E+03 -0.85827009562E+02  0.26376038640E+03  0.47000000000E+01 0. -1.
         13    1    6    6    0    0 -0.18964788735E+02 -0.79435198745E+02 -0.31392556222E+01  0.81728018068E+02  0.00000000000E+00 0. -1.
        -14    1    6    6    0    0 -0.13747053036E+03 -0.13468711243E+03  0.40837578280E+02  0.19673960651E+03  0.00000000000E+00 0.  1.
         -5    1    5    5    0  502 -0.94733589298E+02 -0.51496075158E+01  0.51389602059E+02  0.10799978055E+03  0.47000000000E+01 0.  1.
</event>
<event>
12    1  0.9749377E-001  0.4635072E+03  0.7818608E-02  0.1023769E+00
         21   -1    0    0  503  502  0.00000000000E+00  0.00000000000E+00  0.45350157815E+03  0.45350157815E+03  0.00000000000E+00 0.  1.
         21   -1    0    0  501  503 -0.00000000000E+00 -0.00000000000E+00 -0.51003227687E+03  0.51003227687E+03  0.00000000000E+00 0. -1.
          6    2    1    2  501    0  0.32061385462E+03  0.31203691728E+03 -0.19783847488E+02  0.48246865877E+03  0.17951134938E+03 0.  0.
         24    2    3    3    0    0  0.28201936936E+03  0.26465332216E+03 -0.73110725855E+02  0.40122467232E+03  0.77844420568E+02 0.  0.
         -6    2    1    2    0  502 -0.32061385462E+03 -0.31203691728E+03 -0.36746851229E+02  0.48106519625E+03  0.17295407035E+03 0.  0.
        -24    2    5    5    0    0 -0.10304440137E+03 -0.18066487870E+03 -0.42843402290E+02  0.22679302428E+03  0.79633985770E+02 0.  0.
         14    1    4    4    0    0  0.16212452006E+03  0.11595386068E+03 -0.82306950718E+01  0.19949286241E+03  0.00000000000E+00 0. -1.
        -13    1    4    4    0    0  0.11989484931E+03  0.14869946148E+03 -0.64880030783E+02  0.20173180991E+03  0.00000000000E+00 0.  1.
          5    1    3    3  501    0  0.38594485254E+02  0.47383595115E+02  0.53326878367E+02  0.81243986451E+02  0.47000000000E+01 0. -1.
         13    1    6    6    0    0 -0.11531335000E+03 -0.16451120718E+03 -0.30927479458E+02  0.20326734849E+03  0.00000000000E+00 0. -1.
        -14    1    6    6    0    0  0.12268948632E+02 -0.16153671523E+02 -0.11915922831E+02  0.23525675785E+02  0.00000000000E+00 0.  1.
         -5    1    5    5    0  502 -0.21756945325E+03 -0.13137203857E+03  0.60965510607E+01  0.25427217197E+03  0.47000000000E+01 0.  1.
</event>
<event>
12    1  0.9749377E-001  0.6763264E+03  0.7818608E-02  0.9758596E-01
         21   -1    0    0  503  502  0.00000000000E+00  0.00000000000E+00  0.97410938554E+03  0.97410938554E+03  0.00000000000E+00 0. -1.
         21   -1    0    0  501  503 -0.00000000000E+00 -0.00000000000E+00 -0.61436454734E+03  0.61436454734E+03  0.00000000000E+00 0.  1.
          6    2    1    2  501    0 -0.42178285705E+03  0.51757728507E+03  0.54020944688E+03  0.87591502391E+03  0.17208677491E+03 0.  0.
         24    2    3    3    0    0 -0.35347516738E+03  0.47334088446E+03  0.52287496675E+03  0.79257611458E+03  0.76041960101E+02 0.  0.
         -6    2    1    2    0  502  0.42178285705E+03 -0.51757728507E+03 -0.18046460868E+03  0.71255890897E+03  0.17142257507E+03 0.  0.
        -24    2    5    5    0    0  0.84865667849E+02 -0.90450778777E+02 -0.79967605460E+02  0.15932118212E+03  0.60040787696E+02 0.  0.
         14    1    4    4    0    0 -0.22087411864E+03  0.27778023170E+03  0.26564657411E+03  0.44330050275E+03  0.00000000000E+00 0. -1.
        -13    1    4    4    0    0 -0.13260104874E+03  0.19556065276E+03  0.25722839265E+03  0.34927561183E+03  0.00000000000E+00 0.  1.
          5    1    3    3  501    0 -0.68307689671E+02  0.44236400615E+02  0.17334480127E+02  0.83338909333E+02  0.47000000000E+01 0. -1.
         13    1    6    6    0    0  0.52644902640E+02 -0.89337720470E+02 -0.71600100368E+02  0.12601304871E+03  0.00000000000E+00 0. -1.
        -14    1    6    6    0    0  0.32220765210E+02 -0.11130583064E+01 -0.83675050925E+01  0.33308133405E+02  0.00000000000E+00 0.  1.
         -5    1    5    5    0  502  0.33691718920E+03 -0.42712650630E+03 -0.10049700322E+03  0.55323772685E+03  0.47000000000E+01 0.  1.
</event>
<event>
12    1  0.9749377E-001  0.8912404E+03  0.7818608E-02  0.9436598E-01
         21   -1    0    0  501  502  0.00000000000E+00  0.00000000000E+00  0.70854924872E+03  0.70854924872E+03  0.00000000000E+00 0.  1.
         21   -1    0    0  502  503 -0.00000000000E+00 -0.00000000000E+00 -0.11948686686E+04  0.11948686686E+04  0.00000000000E+00 0. -1.
         -6    2    1    2    0  503  0.15136385142E+03  0.86153694180E+03 -0.93231857320E+01  0.89117035063E+03  0.17011982378E+03 0.  0.
        -24    2    3    3    0    0  0.54132505386E+02  0.21510656826E+03  0.18771382158E+02  0.23684813854E+03  0.80891977932E+02 0.  0.
          6    2    1    2  501    0 -0.15136385142E+03 -0.86153694180E+03 -0.47699623415E+03  0.10122475667E+04  0.17878146236E+03 0.  0.
         24    2    5    5    0    0 -0.18438770373E+03 -0.74151327201E+03 -0.40979031583E+03  0.87070258590E+03  0.79712811306E+02 0.  0.
         12    1    6    6    0    0 -0.29150344253E+02 -0.27243179681E+03 -0.15453148663E+03  0.31456129267E+03  0.00000000000E+00 0. -1.
        -11    1    6    6    0    0 -0.15523735948E+03 -0.46908147521E+03 -0.25525882919E+03  0.55614129323E+03  0.00000000000E+00 0.  1.
          5    1    5    5  501    0  0.33023852314E+02 -0.12002366979E+03 -0.67205918320E+02  0.14154498080E+03  0.47000000000E+01 0. -1.
         13    1    4    4    0    0  0.69523259715E+02  0.20768871480E+03  0.17655814211E+02  0.21972667947E+03  0.00000000000E+00 0. -1.
        -14    1    4    4    0    0 -0.15390754329E+02  0.74178534615E+01  0.11155679473E+01  0.17121459069E+02  0.00000000000E+00 0.  1.
         -5    1    3    3    0  503  0.97231346029E+02  0.64643037354E+03 -0.28094567890E+02  0.65432221209E+03  0.47000000000E+01 0.  1.
</event>
<event>
12    1  0.9749377E-001  0.3367980E+03  0.7818608E-02  0.1068168E+00
         21   -1    0    0  501  502  0.00000000000E+00  0.00000000000E+00  0.19829787396E+03  0.19829787396E+03  0.00000000000E+00 0. -1.
         21   -1    0    0  502  503 -0.00000000000E+00 -0.00000000000E+00 -0.64629717562E+03  0.64629717562E+03  0.00000000000E+00 0.  1.
         -6    2    1    2    0  503 -0.19307455898E+03 -0.24054943271E+03 -0.14683583564E+03  0.38131324757E+03  0.16940252431E+03 0.  0.
        -24    2    3    3    0    0 -0.15955990050E+03 -0.12313614865E+03 -0.44182317745E+02  0.22172331574E+03  0.81162051401E+02 0.  0.
          6    2    1    2  501    0  0.19307455898E+03  0.24054943271E+03 -0.30116346603E+03  0.46328180201E+03  0.16967256675E+03 0.  0.
         24    2    5    5    0    0  0.21258104409E+03  0.23993580161E+03 -0.29393364680E+03  0.44194545297E+03  0.78478694381E+02 0.  0.
         12    1    6    6    0    0  0.18821955496E+03  0.18291561980E+03 -0.20263115776E+03  0.33157821239E+03  0.00000000000E+00 0. -1.
        -11    1    6    6    0    0  0.24361489128E+02  0.57020181817E+02 -0.91302489046E+02  0.11036724058E+03  0.00000000000E+00 0.  1.
          5    1    5    5  501    0 -0.19506485114E+02  0.61363109376E+00 -0.72298192249E+01  0.21336349046E+02  0.47000000000E+01 0. -1.
         11    1    4    4    0    0 -0.48771038698E+02 -0.12620913497E+02  0.17770831274E+02  0.53420072232E+02  0.00000000000E+00 0. -1.
        -12    1    4    4    0    0 -0.11078886180E+03 -0.11051523515E+03 -0.61953149020E+02  0.16830324351E+03  0.00000000000E+00 0.  1.
         -5    1    3    3    0  503 -0.33514658476E+02 -0.11741328406E+03 -0.10265351789E+03  0.15958993183E+03  0.47000000000E+01 0.  1.
</event>
<event>
12    1  0.9749377E-001  0.5963567E+03  0.7818608E-02  0.9912994E-01
         21   -1    0    0  501  502  0.00000000000E+00  0.00000000000E+00  0.24202853422E+03  0.24202853422E+03  0.00000000000E+00 0. -1.
         21   -1    0    0  502  503 -0.00000000000E+00 -0.00000000000E+00 -0.15196924116E+04  0.15196924116E+04  0.00000000000E+00 0.  1.
         -6    2    1    2    0  503  0.20126234955E+03 -0.54540291080E+03 -0.64743948038E+03  0.88718449013E+03  0.17305366312E+03 0.  0.
        -24    2    3    3    0    0  0.46130629222E+02 -0.15389259272E+03 -0.14102297143E+03  0.22852983832E+03  0.80792595486E+02 0.  0.
          6    2    1    2  501    0 -0.20126234955E+03  0.54540291080E+03 -0.63022439701E+03  0.87453645569E+03  0.17222181423E+03 0.  0.
         24    2    5    5    0    0 -0.15673764127E+03  0.51985504459E+03 -0.53499216438E+03  0.76624790022E+03  0.78123447583E+02 0.  0.
         14    1    6    6    0    0 -0.38413146270E+02  0.15200221608E+03 -0.20515920115E+03  0.25820639286E+03  0.00000000000E+00 0. -1.
        -13    1    6    6    0    0 -0.11832449500E+03  0.36785282851E+03 -0.32983296323E+03  0.50804150736E+03  0.00000000000E+00 0.  1.
          5    1    5    5  501    0 -0.44524708278E+02  0.25547866204E+02 -0.95232232633E+02  0.10828855548E+03  0.47000000000E+01 0. -1.
         13    1    4    4    0    0  0.14544587535E+02 -0.14250013948E+03 -0.12929215201E+03  0.19296190129E+03  0.00000000000E+00 0. -1.
        -14    1    4    4    0    0  0.31586041688E+02 -0.11392453241E+02 -0.11730819422E+02  0.35567937031E+02  0.00000000000E+00 0.  1.
         -5    1    3    3    0  503  0.15513172033E+03 -0.39151031807E+03 -0.50641650895E+03  0.65865465180E+03  0.47000000000E+01 0.  1.
</event>
<event>
12    1  0.9749377E-001  0.5026094E+03  0.7818608E-02  0.1013100E+00
         21   -1    0    0  503  502  0.00000000000E+00  0.00000000000E+00  0.62384313062E+03  0.62384313062E+03  0.00000000000E+00 0. -1.
         21   -1    0    0  501  503 -0.00000000000E+00 -0.00000000000E+00 -0.45657475612E+03  0.45657475612E+03  0.00000000000E+00 0.  1.
          6    2    1    2  501    0 -0.43447392195E+03 -0.23048745194E+03 -0.15238857385E+02  0.52140885533E+03  0.17246135011E+03 0.  0.
         24    2    3    3    0    0 -0.10841539889E+03 -0.11297054816E+03 -0.37459285369E+01  0.17459685936E+03  0.77160792175E+02 0.  0.
         -6    2    1    2    0  502  0.43447392195E+03  0.23048745194E+03  0.18250723189E+03  0.55900903141E+03  0.19310658494E+03 0.  0.
        -24    2    5    5    0    0  0.32225984428E+03  0.15364053614E+03  0.20732768707E+03  0.42067757189E+03  0.80796213309E+02 0.  0.
         14    1    4    4    0    0 -0.93013258138E+02 -0.79919799559E+02  0.28522815695E+02  0.12590548664E+03  0.00000000000E+00 0. -1.
        -13    1    4    4    0    0 -0.15402140751E+02 -0.33050748602E+02 -0.32268744231E+02  0.48691372717E+02  0.00000000000E+00 0.  1.
          5    1    3    3  501    0 -0.32605852306E+03 -0.11751690378E+03 -0.11492928849E+02  0.34681199597E+03  0.47000000000E+01 0. -1.
         11    1    6    6    0    0  0.11216557375E+03  0.18687401768E+02  0.88767628283E+02  0.14425680833E+03  0.00000000000E+00 0. -1.
        -12    1    6    6    0    0  0.21009427054E+03  0.13495313437E+03  0.11856005879E+03  0.27642076356E+03  0.00000000000E+00 0.  1.
         -5    1    5    5    0  502  0.11221407767E+03  0.76846915804E+02 -0.24820455187E+02  0.13833145951E+03  0.47000000000E+01 0.  1.
</event>
<event>
12    1  0.9749377E-001  0.4720373E+03  0.7818608E-02  0.1021347E+00
         21   -1    0    0  501  502  0.00000000000E+00  0.00000000000E+00  0.39517701162E+03  0.39517701162E+03  0.00000000000E+00 0. -1.
         21   -1    0    0  502  503 -0.00000000000E+00 -0.00000000000E+00 -0.60834657312E+03  0.60834657312E+03  0.00000000000E+00 0.  1.
         -6    2    1    2    0  503 -0.27974142758E+03 -0.36345164610E+03 -0.84033368091E+02  0.49686833080E+03  0.17165129142E+03 0.  0.
        -24    2    3    3    0    0 -0.20751766554E+03 -0.33994346618E+03 -0.10236030733E+03  0.41859398617E+03  0.78218610513E+02 0.  0.
          6    2    1    2  501    0  0.27974142758E+03  0.36345164610E+03 -0.12913619340E+03  0.50665525393E+03  0.17225279252E+03 0.  0.
         24    2    5    5    0    0  0.12496049860E+03  0.14659206523E+03  0.54611072681E+01  0.20811926424E+03  0.78609443817E+02 0.  0.
         14    1    6    6    0    0  0.12542853165E+03  0.11102058137E+03  0.21899457609E+02  0.16893037703E+03  0.00000000000E+00 0. -1.
        -13    1    6    6    0    0 -0.46803305087E+00  0.35571483860E+02 -0.16438350341E+02  0.39188887212E+02  0.00000000000E+00 0.  1.
          5    1    5    5  501    0  0.15478092897E+03  0.21685958088E+03 -0.13459730067E+03  0.29853598969E+03  0.47000000000E+01 0. -1.
         11    1    4    4    0    0 -0.14098062311E+03 -0.24046249296E+03 -0.34117236919E+02  0.28082331183E+03  0.00000000000E+00 0. -1.
        -12    1    4    4    0    0 -0.66537042430E+02 -0.99480973219E+02 -0.68243070413E+02  0.13777067434E+03  0.00000000000E+00 0.  1.
         -5    1    3    3    0  503 -0.72223762038E+02 -0.23508179926E+02  0.18326939241E+02  0.78274344637E+02  0.47000000000E+01 0.  1.
</event>
<event>
12    1  0.9749377E-001  0.2433114E+03  0.7818608E-02  0.1117606E+00
         21   -1    0    0  503  502  0.00000000000E+00  0.00000000000E+00  0.21339087244E+04  0.21339087244E+04  0.00000000000E+00 0.  1.
         21   -1    0    0  501  503 -0.00000000000E+00 -0.00000000000E+00 -0.34555273533E+02  0.34555273533E+02  0.00000000000E+00 0. -1.
          6    2    1    2  501    0  0.10169188127E+03  0.17955925607E+03  0.12103440380E+04  0.12395407230E+04  0.17013450075E+03 0.  0.
         24    2    3    3    0    0  0.71375110850E+02  0.19813916624E+03  0.11189136243E+04  0.11413270264E+04  0.79411252322E+02 0.  0.
         -6    2    1    2    0  502 -0.10169188127E+03 -0.17955925607E+03  0.88900941281E+03  0.92892327494E+03  0.17314141475E+03 0.  0.
        -24    2    5    5    0    0 -0.11286834288E+03 -0.13264291717E+03  0.47525316596E+03  0.51233909622E+03  0.79324469496E+02 0.  0.
         12    1    4    4    0    0 -0.13621808422E+02  0.38873208054E+02  0.14115005300E+03  0.14703746948E+03  0.00000000000E+00 0. -1.
        -11    1    4    4    0    0  0.84996919273E+02  0.15926595819E+03  0.97776357129E+03  0.99428955695E+03  0.00000000000E+00 0.  1.
          5    1    3    3  501    0  0.30316770415E+02 -0.18579910176E+02  0.91430413747E+02  0.98213696542E+02  0.47000000000E+01 0. -1.
         13    1    6    6    0    0 -0.25035402001E+02 -0.65199631698E+02  0.27258182370E+03  0.28138694699E+03  0.00000000000E+00 0. -1.
        -14    1    6    6    0    0 -0.87832940879E+02 -0.67443285476E+02  0.20267134226E+03  0.23095214923E+03  0.00000000000E+00 0.  1.
         -5    1    5    5    0  502  0.11176461615E+02 -0.46916338893E+02  0.41375624685E+03  0.41658417872E+03  0.47000000000E+01 0.  1.
</event>
<event>
12    1  0.9749377E-001  0.3136024E+03  0.7818608E-02  0.1078632E+00
         21   -1    0    0  503  502  0.00000000000E+00  0.00000000000E+00  0.17406560567E+04  0.17406560567E+04  0.00000000000E+00 0. -1.
         21   -1    0    0  501  503 -0.00000000000E+00 -0.00000000000E+00 -0.18096241467E+03  0.18096241467E+03  0.00000000000E+00 0.  1.
          6    2    1    2  501    0 -0.89516560173E+02 -0.28917328614E+03  0.27016076049E+02  0.34989605684E+03  0.17338678804E+03 0.  0.
         24    2    3    3    0    0 -0.65674002860E+02 -0.23581351811E+03  0.82351963289E+02  0.26927420621E+03  0.76194896782E+02 0.  0.
         -6    2    1    2    0  502  0.89516560173E+02  0.28917328614E+03  0.15326775660E+04  0.15717224146E+04  0.17197797264E+03 0.  0.
        -24    2    5    5    0    0  0.39042263538E+02  0.22545748930E+03  0.13510334484E+04  0.13726645514E+04  0.81001323245E+02 0.  0.
         14    1    4    4    0    0 -0.33593446631E+01 -0.50509071131E+02  0.49931362806E+02  0.71102689504E+02  0.00000000000E+00 0. -1.
        -13    1    4    4    0    0 -0.62314658197E+02 -0.18530444698E+03  0.32420600483E+02  0.19817151671E+03  0.00000000000E+00 0.  1.
          5    1    3    3  501    0 -0.23842557313E+02 -0.53359768026E+02 -0.55335887240E+02  0.80621850634E+02  0.47000000000E+01 0. -1.
         13    1    6    6    0    0  0.51492782249E+02  0.80650457094E+02  0.45894324984E+03  0.46881223259E+03  0.00000000000E+00 0. -1.
        -14    1    6    6    0    0 -0.12450518711E+02  0.14480703221E+03  0.89209019852E+03  0.90385231885E+03  0.00000000000E+00 0.  1.
         -5    1    5    5    0  502  0.50474296636E+02  0.63715796837E+02  0.18164411765E+03  0.19905786311E+03  0.47000000000E+01 0.  1.
</event>
<event>
12    1  0.9749377E-001  0.1056164E+04  0.7818608E-02  0.9249003E-01
         21   -1    0    0  501  502  0.00000000000E+00  0.00000000000E+00  0.12090025893E+04  0.12090025893E+04  0.00000000000E+00 0.  1.
         21   -1    0    0  502  503 -0.00000000000E+00 -0.00000000000E+00 -0.21654555617E+04  0.21654555617E+04  0.00000000000E+00 0. -1.
         -6    2    1    2    0  503  0.69915208160E+03 -0.77670989324E+03 -0.17538154489E+04  0.20487844848E+04  0.17192249667E+03 0.  0.
        -24    2    3    3    0    0  0.22623154128E+03 -0.21931169313E+03 -0.47102540843E+03  0.57232961963E+03  0.80111978504E+02 0.  0.
          6    2    1    2  501    0 -0.69915208160E+03  0.77670989324E+03  0.79736247659E+03  0.13256736662E+04  0.17184835947E+03 0.  0.
         24    2    5    5    0    0 -0.26169738159E+03  0.24212157513E+03  0.32246186784E+03  0.48739927040E+03  0.80423975906E+02 0.  0.
         14    1    6    6    0    0 -0.86069597638E+02  0.13392184615E+03  0.14158816817E+03  0.21304986712E+03  0.00000000000E+00 0. -1.
        -13    1    6    6    0    0 -0.17562778395E+03  0.10819972897E+03  0.18087369967E+03  0.27434940328E+03  0.00000000000E+00 0.  1.
          5    1    5    5  501    0 -0.43745470001E+03  0.53458831811E+03  0.47490060875E+03  0.83827439578E+03  0.47000000000E+01 0. -1.
         11    1    4    4    0    0  0.45452207297E+02 -0.96062899590E+02 -0.14974494508E+03  0.18362334384E+03  0.00000000000E+00 0. -1.
        -12    1    4    4    0    0  0.18077933399E+03 -0.12324879354E+03 -0.32128046335E+03  0.38870627579E+03  0.00000000000E+00 0.  1.
         -5    1    3    3    0  503  0.47292054032E+03 -0.55739820010E+03 -0.12827900405E+04  0.14764548652E+04  0.47000000000E+01 0.  1.
</event>
<event>
12    1  0.9749377E-001  0.2252869E+03  0.7818608E-02  0.1130002E+00
         21   -1    0    0  501  502  0.00000000000E+00  0.00000000000E+00  0.38622417177E+03  0.38622417177E+03  0.00000000000E+00 0.  1.
         21   -1    0    0  502  503 -0.00000000000E+00 -0.00000000000E+00 -0.23956113170E+03  0.23956113170E+03  0.00000000000E+00 0. -1.
         -6    2    1    2    0  503 -0.19474931097E+03  0.20534851116E+01  0.23699675194E+03  0.35170543957E+03  0.17203995138E+03 0.  0.
        -24    2    3    3    0    0 -0.18654380177E+02 -0.29878093786E+01  0.98482689071E+02  0.12755576879E+03  0.78833503026E+02 0.  0.
          6    2    1    2  501    0  0.19474931097E+03 -0.20534851116E+01 -0.90333711872E+02  0.27407986389E+03  0.17037629344E+03 0.  0.
         24    2    5    5    0    0  0.58643919188E+02  0.21177847228E+02  0.14346889852E+02  0.10074639669E+03  0.77822829089E+02 0.  0.
         14    1    6    6    0    0  0.56468456092E+01  0.33633515983E+02 -0.16807947425E+02  0.38021143583E+02  0.00000000000E+00 0. -1.
        -13    1    6    6    0    0  0.52997073579E+02 -0.12455668756E+02  0.31154837277E+02  0.62725253111E+02  0.00000000000E+00 0.  1.
          5    1    5    5  501    0  0.13610539178E+03 -0.23231332339E+02 -0.10468060172E+03  0.17333346720E+03  0.47000000000E+01 0. -1.
         13    1    4    4    0    0 -0.10469088240E+02 -0.23409484719E+02  0.10208960191E+03  0.10526106879E+03  0.00000000000E+00 0. -1.
        -14    1    4    4    0    0 -0.81852919372E+01  0.20421675341E+02 -0.36069128422E+01  0.22294700000E+02  0.00000000000E+00 0.  1.
         -5    1    3    3    0  503 -0.17609493079E+03  0.50412944903E+01  0.13851406287E+03  0.22414967079E+03  0.47000000000E+01 0.  1.
</event>
<event>
12    1  0.9749377E-001  0.4779328E+03  0.7818608E-02  0.1019705E+00
         21   -1    0    0  501  502  0.00000000000E+00  0.00000000000E+00  0.13233936023E+04  0.13233936023E+04  0.00000000000E+00 0. -1.
         21   -1    0    0  502  503 -0.00000000000E+00 -0.00000000000E+00 -0.18673755527E+03  0.18673755527E+03  0.00000000000E+00 0.  1.
         -6    2    1    2    0  503  0.76662660526E+02 -0.45738273120E+03  0.48476478082E+03  0.69208669802E+03  0.17003228674E+03 0.  0.
        -24    2    3    3    0    0  0.69428600389E+02 -0.46661538629E+03  0.45938125600E+03  0.66373203564E+03  0.83419587022E+02 0.  0.
          6    2    1    2  501    0 -0.76662660526E+02  0.45738273120E+03  0.65189126617E+03  0.81804445951E+03  0.17075827508E+03 0.  0.
         24    2    5    5    0    0 -0.44461139305E+02  0.41020124331E+03  0.62887425429E+03  0.75627955358E+03  0.78956206436E+02 0.  0.
         14    1    6    6    0    0 -0.53897101841E+00  0.11828413451E+03  0.12352962816E+03  0.17102922557E+03  0.00000000000E+00 0. -1.
        -13    1    6    6    0    0 -0.43922168286E+02  0.29191710880E+03  0.50534462613E+03  0.58525032801E+03  0.00000000000E+00 0.  1.
          5    1    5    5  501    0 -0.32201521221E+02  0.47181487888E+02  0.23017011877E+02  0.61764905926E+02  0.47000000000E+01 0. -1.
         11    1    4    4    0    0  0.34280496519E+02 -0.31135282230E+03  0.35468137631E+03  0.47319616556E+03  0.00000000000E+00 0. -1.
        -12    1    4    4    0    0  0.35148103870E+02 -0.15526256399E+03  0.10469987969E+03  0.19053587009E+03  0.00000000000E+00 0.  1.
         -5    1    3    3    0  503  0.72340601361E+01  0.92326550941E+01  0.25383524815E+02  0.28354662371E+02  0.47000000000E+01 0.  1.
</event>
<event>
12    1  0.9749377E-001  0.1733862E+03  0.7818608E-02  0.1174362E+00
         21   -1    0    0  501  502  0.00000000000E+00  0.00000000000E+00  0.50512653683E+03  0.50512653683E+03  0.00000000000E+00 0.  1.
         21   -1    0    0  502  503 -0.00000000000E+00 -0.00000000000E+00 -0.10473890308E+03  0.10473890308E+03  0.00000000000E+00 0. -1.
         -6    2    1    2    0  503 -0.62212260524E+02 -0.96745356879E+02  0.33338949031E+03  0.39230410360E+03  0.17182528340E+03 0.  0.
        -24    2    3    3    0    0 -0.29375892730E+02 -0.30667236208E+02  0.28377104920E+03  0.30326127806E+03  0.98173173316E+02 0.  0.
          6    2    1    2  501    0  0.62212260524E+02  0.96745356879E+02  0.66998143434E+02  0.21756133631E+03  0.17208763581E+03 0.  0.
         24    2    5    5    0    0  0.89057630545E+02  0.45171643763E+02  0.88287806503E+02  0.15546575249E+03  0.80019525509E+02 0.  0.
         12    1    6    6    0    0  0.10106515177E+03  0.37020995742E+02  0.58910944366E+02  0.12269970821E+03  0.00000000000E+00 0. -1.
        -11    1    6    6    0    0 -0.12007521225E+02  0.81506480206E+01  0.29376862137E+02  0.32766044286E+02  0.00000000000E+00 0.  1.
          5    1    5    5  501    0 -0.26845370021E+02  0.51573713116E+02 -0.21289663069E+02  0.62095583818E+02  0.47000000000E+01 0. -1.
         11    1    4    4    0    0  0.28147206221E+02 -0.18144278653E+02  0.38512431231E+02  0.51036138424E+02  0.00000000000E+00 0. -1.
        -12    1    4    4    0    0 -0.57523098951E+02 -0.12522957555E+02  0.24525861797E+03  0.25222513964E+03  0.00000000000E+00 0.  1.
         -5    1    3    3    0  503 -0.32836367795E+02 -0.66078120671E+02  0.49618441116E+02  0.89042825540E+02  0.47000000000E+01 0.  1.
</event>
<event>
12    1  0.9749377E-001  0.9542243E+03  0.7818608E-02  0.9360227E-01
         21   -1    0    0  501  502  0.00000000000E+00  0.00000000000E+00  0.77454314354E+03  0.77454314354E+03  0.00000000000E+00 0.  1.
         21   -1    0    0  502  503 -0.00000000000E+00 -0.00000000000E+00 -0.13060081253E+04  0.13060081253E+04  0.00000000000E+00 0. -1.
         -6    2    1    2    0  503 -0.30690146391E+03  0.90056061280E+03 -0.55281061301E+03  0.11134493396E+04  0.17021143387E+03 0.  0.
        -24    2    3    3    0    0 -0.24157719697E+03  0.76720171624E+03 -0.40734753915E+03  0.90552278771E+03  0.84151565095E+02 0.  0.
          6    2    1    2  501    0  0.30690146391E+03 -0.90056061280E+03  0.21345631242E+02  0.96710192919E+03  0.17214116184E+03 0.  0.
         24    2    5    5    0    0  0.25649349774E+02 -0.17468811767E+03 -0.75290394445E+01  0.18809649436E+03  0.64418764011E+02 0.  0.
         12    1    6    6    0    0  0.17020057703E+02 -0.14609788854E+03  0.18801047861E+02  0.14828268544E+03  0.00000000000E+00 0. -1.
        -11    1    6    6    0    0  0.86292920715E+01 -0.28590229129E+02 -0.26330087306E+02  0.39813808922E+02  0.00000000000E+00 0.  1.
          5    1    5    5  501    0  0.28125211414E+03 -0.72587249513E+03  0.28874670686E+02  0.77900543484E+03  0.47000000000E+01 0. -1.
         13    1    4    4    0    0 -0.17870369749E+01  0.27677139262E+01 -0.11387512612E+02  0.11854500623E+02  0.00000000000E+00 0. -1.
        -14    1    4    4    0    0 -0.23979016000E+03  0.76443400232E+03 -0.39596002654E+03  0.89366828709E+03  0.00000000000E+00 0.  1.
         -5    1    3    3    0  503 -0.65324266944E+02  0.13335889656E+03 -0.14546307386E+03  0.20792655193E+03  0.47000000000E+01 0.  1.
</event>
<event>
12    1  0.9749377E-001  0.1380230E+03  0.7818608E-02  0.1216014E+00
         21   -1    0    0  501  502  0.00000000000E+00  0.00000000000E+00  0.14588932515E+03  0.14588932515E+03  0.00000000000E+00 0. -1.
         21   -1    0    0  502  503 -0.00000000000E+00 -0.00000000000E+00 -0.70238974168E+03  0.70238974168E+03  0.00000000000E+00 0. -1.
         -6    2    1    2    0  503 -0.86836177395E+02 -0.32954888805E+02  0.57012765685E+02  0.20345872455E+03  0.17180934416E+03 0.  0.
        -24    2    3    3    0    0 -0.15943289707E+02 -0.45186253080E+02 -0.24189115324E+02  0.94871233203E+02  0.78226923979E+02 0.  0.
          6    2    1    2  501    0  0.86836177395E+02  0.32954888805E+02 -0.61351318221E+03  0.64482034229E+03  0.17540895839E+03 0.  0.
         24    2    5    5    0    0  0.58420169551E+02  0.10893617937E+02 -0.59673767211E+03  0.60484939142E+03  0.78837490255E+02 0.  0.
         14    1    6    6    0    0 -0.15002372708E+02 -0.64102672796E+01 -0.22176908977E+03  0.22236836981E+03  0.00000000000E+00 0. -1.
        -13    1    6    6    0    0  0.73422542259E+02  0.17303885217E+02 -0.37496858233E+03  0.38248102161E+03  0.00000000000E+00 0.  1.
          5    1    5    5  501    0  0.28416007844E+02  0.22061270867E+02 -0.16775510106E+02  0.39970950869E+02  0.47000000000E+01 0. -1.
         13    1    4    4    0    0 -0.19720199768E+02 -0.58683202427E+02  0.53873926562E+01  0.62142002910E+02  0.00000000000E+00 0. -1.
        -14    1    4    4    0    0  0.37769100613E+01  0.13496949347E+02 -0.29576507980E+02  0.32729230293E+02  0.00000000000E+00 0.  1.
         -5    1    3    3    0  503 -0.70892887688E+02  0.12231364276E+02  0.81201881009E+02  0.10858749134E+03  0.47000000000E+01 0.  1.
</event>
<event>
12    1  0.9749377E-001  0.5367847E+03  0.7818608E-02  0.1004600E+00
         21   -1    0    0  503  502  0.00000000000E+00  0.00000000000E+00  0.45337734814E+03  0.45337734814E+03  0.00000000000E+00 0.  1.
         21   -1    0    0  501  503 -0.00000000000E+00 -0.00000000000E+00 -0.67113971005E+03  0.67113971005E+03  0.00000000000E+00 0. -1.
          6    2    1    2  501    0 -0.26995675363E+01  0.52157637670E+03 -0.58225920588E+02  0.55250730486E+03  0.17269875417E+03 0.  0.
         24    2    3    3    0    0 -0.61517271306E+01  0.20684057499E+03  0.30614634795E+02  0.22542126638E+03  0.84003715777E+02 0.  0.
         -6    2    1    2    0  502  0.26995675363E+01 -0.52157637670E+03 -0.15953644132E+03  0.57200975334E+03  0.17231969534E+03 0.  0.
        -24    2    5    5    0    0  0.60597373858E+02 -0.25385911093E+03 -0.32950236496E+02  0.27023028481E+03  0.61823934074E+02 0.  0.
         14    1    4    4    0    0 -0.17807222621E+01  0.21436218644E+03  0.27253331230E+02  0.21609503005E+03  0.00000000000E+00 0. -1.
        -13    1    4    4    0    0 -0.43710048685E+01 -0.75216114551E+01  0.33613035650E+01  0.93262363308E+01  0.00000000000E+00 0.  1.
          5    1    3    3  501    0  0.34521595943E+01  0.31473580172E+03 -0.88840555383E+02  0.32708603848E+03  0.47000000000E+01 0. -1.
         11    1    6    6    0    0  0.27087751948E+02 -0.15579995910E+03 -0.48581345908E+02  0.16543131727E+03  0.00000000000E+00 0. -1.
        -12    1    6    6    0    0  0.33509621910E+02 -0.98059151821E+02  0.15631109412E+02  0.10479896754E+03  0.00000000000E+00 0.  1.
         -5    1    5    5    0  502 -0.57897806321E+02 -0.26771726578E+03 -0.12658620482E+03  0.30177946853E+03  0.47000000000E+01 0.  1.
</event>
<event>
12    1  0.9749377E-001  0.2742559E+03  0.7818608E-02  0.1098868E+00
         21   -1    0    0  503  502  0.00000000000E+00  0.00000000000E+00  0.20608025909E+04  0.20608025909E+04  0.00000000000E+00 0. -1.
         21   -1    0    0  501  503 -0.00000000000E+00 -0.00000000000E+00 -0.38891764786E+02  0.38891764786E+02  0.00000000000E+00 0.  1.
          6    2    1    2  501    0  0.14098390024E+03  0.17298594484E+03  0.92543234754E+03  0.96777738744E+03  0.17426257349E+03 0.  0.
         24    2    3    3    0    0  0.13027460218E+03  0.58348227542E+02  0.46488150812E+03  0.49302939009E+03  0.81161414907E+02 0.  0.
         -6    2    1    2    0  502 -0.14098390024E+03 -0.17298594484E+03  0.10964784786E+04  0.11319169683E+04  0.17079335995E+03 0.  0.
        -24    2    5    5    0    0 -0.13866698021E+02 -0.11260072547E+03  0.54732460962E+03  0.56499790912E+03  0.82384466532E+02 0.  0.
         14    1    4    4    0    0 -0.48730481719E+01  0.71614794372E+01  0.31612693826E+01  0.92210091815E+01  0.00000000000E+00 0. -1.
        -13    1    4    4    0    0  0.13514765035E+03  0.51186748105E+02  0.46172023874E+03  0.48380838091E+03  0.00000000000E+00 0.  1.
          5    1    3    3  501    0  0.10709298056E+02  0.11463771730E+03  0.46055083942E+03  0.47474799734E+03  0.47000000000E+01 0. -1.
         11    1    6    6    0    0 -0.47667124872E+02 -0.57987835095E+02  0.26251749147E+03  0.27303878322E+03  0.00000000000E+00 0. -1.
        -12    1    6    6    0    0  0.33800426852E+02 -0.54612890377E+02  0.28480711815E+03  0.29195912590E+03  0.00000000000E+00 0.  1.
         -5    1    5    5    0  502 -0.12711720222E+03 -0.60385219367E+02  0.54915386898E+03  0.56691905916E+03  0.47000000000E+01 0.  1.
</event>
<event>
12    1  0.9749377E-001  0.2869402E+03  0.7818608E-02  0.1091958E+00
         21   -1    0    0  503  502  0.00000000000E+00  0.00000000000E+00  0.90634838311E+03  0.90634838311E+03  0.00000000000E+00 0. -1.
         21   -1    0    0  501  503 -0.00000000000E+00 -0.00000000000E+00 -0.11182557805E+03  0.11182557805E+03  0.00000000000E+00 0.  1.
          6    2    1    2  501    0 -0.23515048945E+03 -0.89624884772E+02  0.25169827235E+03  0.39560102256E+03  0.17268403542E+03 0.  0.
         24    2    3    3    0    0 -0.11934377872E+03 -0.82888489667E+02  0.21921221047E+03  0.27504395107E+03  0.80509270065E+02 0.  0.
         -6    2    1    2    0  502  0.23515048945E+03  0.89624884772E+02  0.54282453270E+03  0.62257293860E+03  0.17207619798E+03 0.  0.
        -24    2    5    5    0    0  0.24774884829E+03  0.53039996322E+02  0.47074789560E+03  0.54063207990E+03  0.80540248081E+02 0.  0.
         12    1    4    4    0    0 -0.51189536661E+02 -0.82729589727E+02  0.11653254354E+03  0.15180377921E+03  0.00000000000E+00 0. -1.
        -11    1    4    4    0    0 -0.68154242057E+02 -0.15889993972E+00  0.10267966693E+03  0.12324017186E+03  0.00000000000E+00 0.  1.
          5    1    3    3  501    0 -0.11580671073E+03 -0.67363951052E+01  0.32486061881E+02  0.12055707149E+03  0.47000000000E+01 0. -1.
         13    1    6    6    0    0  0.14336909094E+03  0.31187047468E+02  0.18824104957E+03  0.23866717603E+03  0.00000000000E+00 0. -1.
        -14    1    6    6    0    0  0.10437975735E+03  0.21852948853E+02  0.28250684603E+03  0.30196490388E+03  0.00000000000E+00 0.  1.
         -5    1    5    5    0  502 -0.12598358848E+02  0.36584888450E+02  0.72076637100E+02  0.81940858698E+02  0.47000000000E+01 0.  1.
</event>
<event>
12    1  0.9749377E-001  0.3683623E+03  0.7818608E-02  0.1055321E+00
         21   -1    0    0  503  502  0.00000000000E+00  0.00000000000E+00  0.58137508096E+03  0.58137508096E+03  0.00000000000E+00 0.  1.
         21   -1    0    0  501  503 -0.00000000000E+00 -0.00000000000E+00 -0.26503071287E+03  0.26503071287E+03  0.00000000000E+00 0. -1.
          6    2    1    2  501    0  0.21975839082E+03  0.26812877538E+03  0.22211932851E+03  0.44642645647E+03  0.17254794817E+03 0.  0.
         24    2    3    3    0    0  0.71377449193E+02  0.16851247649E+03  0.67724727270E+02  0.21020602184E+03  0.78158415737E+02 0.  0.
         -6    2    1    2    0  502 -0.21975839082E+03 -0.26812877538E+03  0.94225039580E+02  0.39997933736E+03  0.17583606486E+03 0.  0.
        -24    2    5    5    0    0 -0.19848316781E+03 -0.16667442782E+03  0.19036379346E+02  0.27183471445E+03  0.79723242827E+02 0.  0.
         12    1    4    4    0    0  0.15574441575E+02  0.58554721811E+02  0.62112861150E+02  0.86771113840E+02  0.00000000000E+00 0. -1.
        -11    1    4    4    0    0  0.55803007618E+02  0.10995775468E+03  0.56118661195E+01  0.12343490800E+03  0.00000000000E+00 0.  1.
          5    1    3    3  501    0  0.14838094163E+03  0.99616298895E+02  0.15439460124E+03  0.23622043463E+03  0.47000000000E+01 0. -1.
         13    1    6    6    0    0 -0.32212282727E+02  0.34490847011E+01  0.95028722706E+01  0.33761396967E+02  0.00000000000E+00 0. -1.
        -14    1    6    6    0    0 -0.16627088508E+03 -0.17012351252E+03  0.95335070755E+01  0.23807331748E+03  0.00000000000E+00 0.  1.
         -5    1    5    5    0  502 -0.21275223010E+02 -0.10145434756E+03  0.75188660234E+02  0.12814462291E+03  0.47000000000E+01 0.  1.
</event>
<event>
12    1  0.9749377E-001  0.1721411E+03  0.7818608E-02  0.1175633E+00
         21   -1    0    0  503  502  0.00000000000E+00  0.00000000000E+00  0.42566857636E+02  0.42566857636E+02  0.00000000000E+00 0.  1.
         21   -1    0    0  501  503 -0.00000000000E+00 -0.00000000000E+00 -0.96094774933E+03  0.96094774933E+03  0.00000000000E+00 0. -1.
          6    2    1    2  501    0  0.37899103786E+02  0.80953057864E+02 -0.32657534859E+03  0.37947701346E+03  0.17135228564E+03 0.  0.
         24    2    3    3    0    0  0.13281758273E+02  0.12135709498E+03 -0.24434341434E+03  0.28448921990E+03  0.79539062751E+02 0.  0.
         -6    2    1    2    0  502 -0.37899103786E+02 -0.80953057864E+02 -0.59180554310E+03  0.62403759350E+03  0.17663345552E+03 0.  0.
        -24    2    5    5    0    0  0.42410974906E+02 -0.68066067364E+02 -0.35188490348E+03  0.37066082546E+03  0.84467638289E+02 0.  0.
         12    1    4    4    0    0  0.25447637955E+02  0.69969553983E+02 -0.20652601628E+03  0.21953659413E+03  0.00000000000E+00 0. -1.
        -11    1    4    4    0    0 -0.12165879682E+02  0.51387540997E+02 -0.37817398057E+02  0.64952625767E+02  0.00000000000E+00 0.  1.
          5    1    3    3  501    0  0.24617345513E+02 -0.40404037116E+02 -0.82231934250E+02  0.94987793563E+02  0.47000000000E+01 0. -1.
         11    1    6    6    0    0 -0.55312246984E+01 -0.17358713064E+02 -0.82281691845E+01  0.19990551119E+02  0.00000000000E+00 0. -1.
        -12    1    6    6    0    0  0.47942199604E+02 -0.50707354300E+02 -0.34365673429E+03  0.35067027434E+03  0.00000000000E+00 0.  1.
         -5    1    5    5    0  502 -0.80310078692E+02 -0.12886990500E+02 -0.23992063963E+03  0.25337676804E+03  0.47000000000E+01 0.  1.
</event>
<event>
12    1  0.9749377E-001  0.5220847E+03  0.7818608E-02  0.1008170E+00
         21   -1    0    0  501  502  0.00000000000E+00  0.00000000000E+00  0.12358125395E+04  0.12358125395E+04  0.00000000000E+00 0. -1.
         21   -1    0    0  502  503 -0.00000000000E+00 -0.00000000000E+00 -0.27299764872E+03  0.27299764872E+03  0.00000000000E+00 0.  1.
         -6    2    1    2    0  503  0.41542983563E+03  0.29919779731E+03  0.20271853843E+03  0.57663833362E+03  0.17121825757E+03 0.  0.
        -24    2    3    3    0    0  0.16394271504E+03  0.11475858899E+03  0.23889315339E+02  0.21710311362E+03  0.80723695368E+02 0.  0.
          6    2    1    2  501    0 -0.41542983563E+03 -0.29919779731E+03  0.76009635238E+03  0.93217185462E+03  0.17057734726E+03 0.  0.
         24    2    5    5    0    0 -0.38773072962E+03 -0.28745946744E+03  0.75920070107E+03  0.90171005800E+03  0.61051290515E+02 0.  0.
         12    1    6    6    0    0 -0.26290252506E+03 -0.22813402467E+03  0.53104033401E+03  0.63495409852E+03  0.00000000000E+00 0. -1.
        -11    1    6    6    0    0 -0.12482820456E+03 -0.59325442771E+02  0.22816036707E+03  0.26675595947E+03  0.00000000000E+00 0.  1.
          5    1    5    5  501    0 -0.27699106014E+02 -0.11738329876E+02  0.89565130412E+00  0.30461796623E+02  0.47000000000E+01 0. -1.
         11    1    4    4    0    0 -0.82749668082E+01  0.13227143690E+02 -0.10345491548E+01  0.15636582038E+02  0.00000000000E+00 0. -1.
        -12    1    4    4    0    0  0.17221768185E+03  0.10153144530E+03  0.24923864493E+02  0.20146653158E+03  0.00000000000E+00 0.  1.
         -5    1    3    3    0  503  0.25148712059E+03  0.18443920832E+03  0.17882922309E+03  0.35953522000E+03  0.47000000000E+01 0.  1.
</event>
<event>
12    1  0.9749377E-001  0.5038377E+03  0.7818608E-02  0.1012782E+00
         21   -1    0    0  503  502  0.00000000000E+00  0.00000000000E+00  0.22032062029E+03  0.22032062029E+03  0.00000000000E+00 0. -1.
         21   -1    0    0  501  503 -0.00000000000E+00 -0.00000000000E+00 -0.19575618303E+04  0.19575618303E+04  0.00000000000E+00 0.  1.
          6    2    1    2  501    0  0.19102593835E+03 -0.45000157230E+03 -0.20171322697E+03  0.55560125310E+03  0.17032968712E+03 0.  0.
         24    2    3    3    0    0  0.13940443400E+03 -0.37796916313E+03 -0.21848590661E+03  0.46528591407E+03  0.80377894669E+02 0.  0.
         -6    2    1    2    0  502 -0.19102593835E+03  0.45000157230E+03 -0.15355279831E+04  0.16222811975E+04  0.18696997860E+03 0.  0.
        -24    2    5    5    0    0 -0.18523641344E+03  0.29835845775E+03 -0.90685360968E+03  0.97553340238E+03  0.77146947993E+02 0.  0.
         12    1    4    4    0    0 -0.86100992968E+01 -0.46217013889E+02 -0.17834509790E+02  0.50281367545E+02  0.00000000000E+00 0. -1.
        -11    1    4    4    0    0  0.14801453330E+03 -0.33175214924E+03 -0.20065139682E+03  0.41500454653E+03  0.00000000000E+00 0.  1.
          5    1    3    3  501    0  0.51621504343E+02 -0.72032409167E+02  0.16772679631E+02  0.90315339024E+02  0.47000000000E+01 0. -1.
         11    1    6    6    0    0 -0.19994698538E+02  0.82979484352E+02 -0.27193377506E+03  0.28501466771E+03  0.00000000000E+00 0. -1.
        -12    1    6    6    0    0 -0.16524171491E+03  0.21537897340E+03 -0.63491983462E+03  0.69051873467E+03  0.00000000000E+00 0.  1.
         -5    1    5    5    0  502 -0.57895249022E+01  0.15164311455E+03 -0.62867437338E+03  0.64674779515E+03  0.47000000000E+01 0.  1.
</event>
<event>
12    1  0.9749377E-001  0.9169053E+03  0.7818608E-02  0.9404692E-01
         21   -1    0    0  501  502  0.00000000000E+00  0.00000000000E+00  0.17041987707E+04  0.17041987707E+04  0.00000000000E+00 0. -1.
         21   -1    0    0  502  503 -0.00000000000E+00 -0.00000000000E+00 -0.54260259139E+03  0.54260259139E+03  0.00000000000E+00 0.  1.
         -6    2    1    2    0  503  0.77323887345E+03 -0.47067018533E+03  0.90198853684E+03  0.12895964739E+04  0.17334060704E+03 0.  0.
        -24    2    3    3    0    0  0.67040506588E+03 -0.35105775706E+03  0.70732334340E+03  0.10390000802E+04  0.80810602105E+02 0.  0.
          6    2    1    2  501    0 -0.77323887345E+03  0.47067018533E+03  0.25960764247E+03  0.95720488822E+03  0.17151178165E+03 0.  0.
         24    2    5    5    0    0 -0.64322854686E+03  0.44734574586E+03  0.24172153454E+03  0.82383053779E+03  0.80039208532E+02 0.  0.
         14    1    6    6    0    0 -0.41001757572E+03  0.27545324642E+03  0.11248619613E+03  0.50659850738E+03  0.00000000000E+00 0. -1.
        -13    1    6    6    0    0 -0.23321097114E+03  0.17189249945E+03  0.12923533841E+03  0.31723203041E+03  0.00000000000E+00 0.  1.
          5    1    5    5  501    0 -0.13001032659E+03  0.23324439466E+02  0.17886107928E+02  0.13337435043E+03  0.47000000000E+01 0. -1.
         13    1    4    4    0    0  0.42688209430E+03 -0.18400428861E+03  0.45693786887E+03  0.65182675357E+03  0.00000000000E+00 0. -1.
        -14    1    4    4    0    0  0.24352297158E+03 -0.16705346845E+03  0.25038547453E+03  0.38717332664E+03  0.00000000000E+00 0.  1.
         -5    1    3    3    0  503  0.10283380757E+03 -0.11961242827E+03  0.19466519344E+03  0.25059639366E+03  0.47000000000E+01 0.  1.
</event>
<event>
12    1  0.9749377E-001  0.2516888E+03  0.7818608E-02  0.1112242E+00
         21   -1    0    0  503  502  0.00000000000E+00  0.00000000000E+00  0.60795398309E+02  0.60795398309E+02  0.00000000000E+00 0. -1.
         21   -1    0    0  501  503 -0.00000000000E+00 -0.00000000000E+00 -0.16215618321E+04  0.16215618321E+04  0.00000000000E+00 0.  1.
          6    2    1    2  501    0  0.19276201219E+03  0.90365916703E+02 -0.35974037892E+03  0.45039454240E+03  0.16768694447E+03 0.  0.
         24    2    3    3    0    0  0.19413426418E+03  0.55790943708E+02 -0.23368274063E+03  0.31958961128E+03  0.82031423478E+02 0.  0.
         -6    2    1    2    0  502 -0.19276201219E+03 -0.90365916703E+02 -0.12010260548E+04  0.12319626880E+04  0.17304706855E+03 0.  0.
        -24    2    5    5    0    0 -0.10624428338E+03  0.16641234062E+02 -0.51808858212E+03  0.53528375953E+03  0.80920614596E+02 0.  0.
         12    1    4    4    0    0  0.14605968132E+03  0.59016122055E+02 -0.21791477440E+03  0.26889251026E+03  0.00000000000E+00 0. -1.
        -11    1    4    4    0    0  0.48074582867E+02 -0.32251783461E+01 -0.15767966231E+02  0.50697101024E+02  0.00000000000E+00 0.  1.
          5    1    3    3  501    0 -0.13722519887E+01  0.34574972995E+02 -0.12605763829E+03  0.13080493111E+03  0.47000000000E+01 0. -1.
         11    1    6    6    0    0 -0.78978345434E+02  0.40560244455E+02 -0.26188927566E+03  0.27652975461E+03  0.00000000000E+00 0. -1.
        -12    1    6    6    0    0 -0.27265937942E+02 -0.23919010393E+02 -0.25619930646E+03  0.25875400492E+03  0.00000000000E+00 0.  1.
         -5    1    5    5    0  502 -0.86517728819E+02 -0.10700715077E+03 -0.68293747270E+03  0.69667892844E+03  0.47000000000E+01 0.  1.
</event>
<event>
12    1  0.9749377E-001  0.4013060E+03  0.7818608E-02  0.1043328E+00
         21   -1    0    0  503  502  0.00000000000E+00  0.00000000000E+00  0.13363324841E+03  0.13363324841E+03  0.00000000000E+00 0.  1.
         21   -1    0    0  501  503 -0.00000000000E+00 -0.00000000000E+00 -0.14493421074E+04  0.14493421074E+04  0.00000000000E+00 0. -1.
          6    2    1    2  501    0 -0.52827176909E+02 -0.37405554896E+03 -0.91642316014E+03  0.10063324019E+04  0.17368140476E+03 0.  0.
         24    2    3    3    0    0  0.30028082760E+02 -0.11205082347E+03 -0.28363817691E+03  0.31644081967E+03  0.78912002642E+02 0.  0.
         -6    2    1    2    0  502  0.52827176909E+02  0.37405554896E+03 -0.39928569883E+03  0.57664295388E+03  0.17429791347E+03 0.  0.
        -24    2    5    5    0    0  0.22071563944E+02  0.34670704285E+03 -0.28872817482E+03  0.45857981555E+03  0.78984560537E+02 0.  0.
         14    1    4    4    0    0  0.33594476386E+02 -0.17838955857E+02 -0.13640315111E+03  0.14160733322E+03  0.00000000000E+00 0. -1.
        -13    1    4    4    0    0 -0.35663936257E+01 -0.94211867613E+02 -0.14723502580E+03  0.17483348645E+03  0.00000000000E+00 0.  1.
          5    1    3    3  501    0 -0.82855259669E+02 -0.26200472549E+03 -0.63278498323E+03  0.68989158223E+03  0.47000000000E+01 0. -1.
         13    1    6    6    0    0  0.17072935973E+02  0.16336652528E+02 -0.33879190752E+02  0.41305821921E+02  0.00000000000E+00 0. -1.
        -14    1    6    6    0    0  0.49986279715E+01  0.33037039032E+03 -0.25484898406E+03  0.41727399363E+03  0.00000000000E+00 0.  1.
         -5    1    5    5    0  502  0.30755612965E+02  0.27348506108E+02 -0.11055752401E+03  0.11806313832E+03  0.47000000000E+01 0.  1.
</event>
<event>
12    1  0.9749377E-001  0.3325465E+03  0.7818608E-02  0.1070016E+00
         21   -1    0    0  501  502  0.00000000000E+00  0.00000000000E+00  0.14075006477E+04  0.14075006477E+04  0.00000000000E+00 0. -1.
         21   -1    0    0  502  503 -0.00000000000E+00 -0.00000000000E+00 -0.12266434606E+03  0.12266434606E+03  0.00000000000E+00 0.  1.
         -6    2    1    2    0  503  0.20788689257E+03 -0.22674173233E+03  0.10420023103E+04  0.10999113988E+04  0.17148614290E+03 0.  0.
        -24    2    3    3    0    0  0.12906114294E+03 -0.20656169148E+03  0.63361213761E+03  0.68346769790E+03  0.79619357822E+02 0.  0.
          6    2    1    2  501    0 -0.20788689257E+03  0.22674173233E+03  0.24283399132E+03  0.43025359497E+03  0.17754164402E+03 0.  0.
         24    2    5    5    0    0 -0.56412078110E+02  0.16504834299E+03  0.12755667127E+03  0.23009954375E+03  0.79068435963E+02 0.  0.
         14    1    6    6    0    0 -0.13515666709E+02  0.74240861831E+02  0.11024021716E+02  0.76262099806E+02  0.00000000000E+00 0. -1.
        -13    1    6    6    0    0 -0.42896411401E+02  0.90807481162E+02  0.11653264956E+03  0.15383744394E+03  0.00000000000E+00 0.  1.
          5    1    5    5  501    0 -0.15147481446E+03  0.61693389341E+02  0.11527732005E+03  0.20015405122E+03  0.47000000000E+01 0. -1.
         13    1    4    4    0    0  0.55570127222E+01 -0.40582546201E+01 -0.34740208813E-01  0.68812083124E+01  0.00000000000E+00 0. -1.
        -14    1    4    4    0    0  0.12350413022E+03 -0.20250343686E+03  0.63364687782E+03  0.67658648959E+03  0.00000000000E+00 0.  1.
         -5    1    3    3    0  503  0.78825749624E+02 -0.20180040859E+02  0.40839017269E+03  0.41644370088E+03  0.47000000000E+01 0.  1.
</event>
<event>
12    1  0.9749377E-001  0.5021870E+03  0.7818608E-02  0.1013210E+00
         21   -1    0    0  503  502  0.00000000000E+00  0.00000000000E+00  0.10353439554E+04  0.10353439554E+04  0.00000000000E+00 0. -1.
         21   -1    0    0  501  503 -0.00000000000E+00 -0.00000000000E+00 -0.27254671736E+03  0.27254671736E+03  0.00000000000E+00 0.  1.
          6    2    1    2  501    0  0.79384112983E+02 -0.47592373558E+03  0.55367577630E+03  0.75453994938E+03  0.17311392336E+03 0.  0.
         24    2    3    3    0    0  0.89211220855E+02 -0.22414685431E+03  0.32090590790E+03  0.41147716849E+03  0.90179843891E+02 0.  0.
         -6    2    1    2    0  502 -0.79384112983E+02  0.47592373558E+03  0.20912146177E+03  0.55335072340E+03  0.17222078224E+03 0.  0.
        -24    2    5    5    0    0 -0.16986793959E+02  0.18115765556E+03  0.15216334292E+03  0.24668024120E+03  0.67755524730E+02 0.  0.
         12    1    4    4    0    0  0.19563991383E+02  0.28688976423E+01  0.19531574054E+02  0.27793213516E+02  0.00000000000E+00 0. -1.
        -11    1    4    4    0    0  0.69647229472E+02 -0.22701575195E+03  0.30137433384E+03  0.38368395498E+03  0.00000000000E+00 0.  1.
          5    1    3    3  501    0 -0.98271078721E+01 -0.25177688127E+03  0.23276986840E+03  0.34306278088E+03  0.47000000000E+01 0. -1.
         11    1    6    6    0    0 -0.42801484224E+02  0.12033531411E+03  0.93035947732E+02  0.15801342489E+03  0.00000000000E+00 0. -1.
        -12    1    6    6    0    0  0.25814690265E+02  0.60822341444E+02  0.59127395189E+02  0.88666816307E+02  0.00000000000E+00 0.  1.
         -5    1    5    5    0  502 -0.62397319024E+02  0.29476608002E+03  0.56958118847E+02  0.30667048221E+03  0.47000000000E+01 0.  1.
</event>
<event>
12    1  0.9749377E-001  0.1118786E+04  0.7818608E-02  0.9187073E-01
         21   -1    0    0  501  502  0.00000000000E+00  0.00000000000E+00  0.25367225613E+04  0.25367225613E+04  0.00000000000E+00 0.  1.
         21   -1    0    0  502  503 -0.00000000000E+00 -0.00000000000E+00 -0.50462381440E+03  0.50462381440E+03  0.00000000000E+00 0. -1.
         -6    2    1    2    0  503 -0.11097568913E+04 -0.58668610184E+02  0.11843181312E+04  0.16329053661E+04  0.16961171920E+03 0.  0.
        -24    2    3    3    0    0 -0.69957223755E+03 -0.84468132715E+02  0.68235380721E+03  0.98413164743E+03  0.79826062584E+02 0.  0.
          6    2    1    2  501    0  0.11097568913E+04  0.58668610184E+02  0.84778061575E+03  0.14084410096E+04  0.17312348671E+03 0.  0.
         24    2    5    5    0    0  0.62338939177E+03  0.99829370103E+02  0.46990474208E+03  0.79114058146E+03  0.80701400851E+02 0.  0.
         12    1    6    6    0    0  0.44759813907E+03  0.49897903073E+02  0.29643274873E+03  0.53917183657E+03  0.00000000000E+00 0. -1.
        -11    1    6    6    0    0  0.17579125270E+03  0.49931467031E+02  0.17347199335E+03  0.25196874489E+03  0.00000000000E+00 0.  1.
          5    1    5    5  501    0  0.48636749949E+03 -0.41160759920E+02  0.37787587367E+03  0.61730042817E+03  0.47000000000E+01 0. -1.
         11    1    4    4    0    0 -0.35421197461E+03 -0.58029800322E+02  0.39842177003E+03  0.53625878783E+03  0.00000000000E+00 0. -1.
        -12    1    4    4    0    0 -0.34536026294E+03 -0.26438332393E+02  0.28393203718E+03  0.44787285961E+03  0.00000000000E+00 0.  1.
         -5    1    3    3    0  503 -0.41018465371E+03  0.25799522532E+02  0.50196432395E+03  0.64877371865E+03  0.47000000000E+01 0.  1.
</event>
<event>
12    1  0.9749377E-001  0.8036512E+03  0.7818608E-02  0.9554747E-01
         21   -1    0    0  501  502  0.00000000000E+00  0.00000000000E+00  0.11233136816E+04  0.11233136816E+04  0.00000000000E+00 0.  1.
         21   -1    0    0  502  503 -0.00000000000E+00 -0.00000000000E+00 -0.69706357521E+03  0.69706357521E+03  0.00000000000E+00 0. -1.
         -6    2    1    2    0  503 -0.15305746047E+03 -0.78099262238E+03  0.56980430880E+03  0.99382428074E+03  0.17214438198E+03 0.  0.
        -24    2    3    3    0    0 -0.11937481810E+03 -0.33218147426E+03  0.21711495538E+03  0.42200452147E+03  0.79712190130E+02 0.  0.
          6    2    1    2  501    0  0.15305746047E+03  0.78099262238E+03 -0.14355420240E+03  0.82655297608E+03  0.17089748630E+03 0.  0.
         24    2    5    5    0    0  0.68263363247E+02  0.36690359222E+03 -0.13166961474E+03  0.40367817517E+03  0.79630703347E+02 0.  0.
         12    1    6    6    0    0  0.84922383799E+02  0.26548732335E+03 -0.92370316737E+02  0.29364537378E+03  0.00000000000E+00 0. -1.
        -11    1    6    6    0    0 -0.16659020552E+02  0.10141626887E+03 -0.39299298008E+02  0.11003280139E+03  0.00000000000E+00 0.  1.
          5    1    5    5  501    0  0.84794097219E+02  0.41408903016E+03 -0.11884587656E+02  0.42287480091E+03  0.47000000000E+01 0. -1.
         11    1    4    4    0    0 -0.68382528403E+02 -0.19226658242E+03  0.78765213261E+02  0.21873858308E+03  0.00000000000E+00 0. -1.
        -12    1    4    4    0    0 -0.50992289700E+02 -0.13991489183E+03  0.13834974212E+03  0.20326593839E+03  0.00000000000E+00 0.  1.
         -5    1    3    3    0  503 -0.33682642363E+02 -0.44881114812E+03  0.35268935342E+03  0.57181975927E+03  0.47000000000E+01 0.  1.
</event>
<event>
12    1  0.9818823E-001  0.7465169E+03  0.7818608E-02  0.9640831E-01
         21   -1    0    0  501  502  0.00000000000E+00  0.00000000000E+00  0.89469784098E+03  0.89469784098E+03  0.00000000000E+00 0. -1.
         21   -1    0    0  502  503 -0.00000000000E+00 -0.00000000000E+00 -0.64078373411E+03  0.64078373411E+03  0.00000000000E+00 0.  1.
         -6    2    1    2    0  503  0.93105011163E+02 -0.73158489850E+03  0.11318003527E+03  0.76532794760E+03  0.17038820431E+03 0.  0.
        -24    2    3    3    0    0  0.10672685378E+03 -0.57476008900E+03  0.38868486229E+02  0.59119043931E+03  0.79092319985E+02 0.  0.
          6    2    1    2  501    0 -0.93105011163E+02  0.73158489850E+03  0.14073407159E+03  0.77015362749E+03  0.17159698196E+03 0.  0.
         24    2    5    5    0    0 -0.11165196588E+03  0.62572379812E+03  0.77959838826E+02  0.64560140390E+03  0.82018310326E+02 0.  0.
         12    1    6    6    0    0 -0.86754419991E+02  0.31329678497E+03  0.67436105386E+02  0.33200727880E+03  0.00000000000E+00 0. -1.
        -11    1    6    6    0    0 -0.24897545887E+02  0.31242701315E+03  0.10523733440E+02  0.31359412511E+03  0.00000000000E+00 0.  1.
          5    1    5    5  501    0  0.18546954714E+02  0.10586110038E+03  0.62774232765E+02  0.12455222359E+03  0.47000000000E+01 0. -1.
         11    1    4    4    0    0 -0.74124554255E+01 -0.13281700965E+03 -0.79420251948E+00  0.13302606251E+03  0.00000000000E+00 0. -1.
        -12    1    4    4    0    0  0.11413930921E+03 -0.44194307935E+03  0.39662688749E+02  0.45816437680E+03  0.00000000000E+00 0.  1.
         -5    1    3    3    0  503 -0.13621842621E+02 -0.15682480950E+03  0.74311549042E+02  0.17413750828E+03  0.47000000000E+01 0.  1.
</event>
<event>
12    1  0.9749377E-001  0.2737555E+03  0.7818608E-02  0.1099149E+00
         21   -1    0    0  503  502  0.00000000000E+00  0.00000000000E+00  0.19039357556E+04  0.19039357556E+04  0.00000000000E+00 0.  1.
         21   -1    0    0  501  503 -0.00000000000E+00 -0.00000000000E+00 -0.42919743135E+02  0.42919743135E+02  0.00000000000E+00 0.  1.
          6    2    1    2  501    0  0.22321779595E+03 -0.35235613913E+02  0.81716378010E+03  0.86501872046E+03  0.17156051509E+03 0.  0.
         24    2    3    3    0    0  0.77101904165E+02 -0.72705395782E+02  0.31377255349E+03  0.33949169413E+03  0.74636565149E+02 0.  0.
         -6    2    1    2    0  502 -0.22321779595E+03  0.35235613913E+02  0.10438522324E+04  0.10818367783E+04  0.17226607002E+03 0.  0.
        -24    2    5    5    0    0 -0.14673083792E+03 -0.36709020257E+02  0.74057797097E+03  0.76086380003E+03  0.87066067699E+02 0.  0.
         14    1    4    4    0    0  0.29871201714E+02 -0.67251251612E+02  0.12715559675E+03  0.14691346201E+03  0.00000000000E+00 0. -1.
        -13    1    4    4    0    0  0.47230702451E+02 -0.54541441692E+01  0.18661695674E+03  0.19257823212E+03  0.00000000000E+00 0.  1.
          5    1    3    3  501    0  0.14611589179E+03  0.37469781869E+02  0.50339122660E+03  0.52552702633E+03  0.47000000000E+01 0. -1.
         13    1    6    6    0    0 -0.10981803450E+03  0.10619296158E+02  0.55364514651E+03  0.56453141490E+03  0.00000000000E+00 0. -1.
        -14    1    6    6    0    0 -0.36912803417E+02 -0.47328316414E+02  0.18693282446E+03  0.19633238513E+03  0.00000000000E+00 0.  1.
         -5    1    5    5    0  502 -0.76486958028E+02  0.71944634170E+02  0.30327426144E+03  0.32097297828E+03  0.47000000000E+01 0.  1.
</event>
<event>
12    1  0.9749377E-001  0.4668401E+03  0.7818608E-02  0.1022816E+00
         21   -1    0    0  501  502  0.00000000000E+00  0.00000000000E+00  0.39210661464E+03  0.39210661464E+03  0.00000000000E+00 0.  1.
         21   -1    0    0  502  503 -0.00000000000E+00 -0.00000000000E+00 -0.66121904429E+03  0.66121904429E+03  0.00000000000E+00 0. -1.
         -6    2    1    2    0  503 -0.43798754240E+03  0.77591841692E+02 -0.31630972895E+03  0.57391617839E+03  0.17741012934E+03 0.  0.
        -24    2    3    3    0    0 -0.40613782568E+03  0.10981878005E+03 -0.30883996914E+03  0.52775485992E+03  0.78326034836E+02 0.  0.
          6    2    1    2  501    0  0.43798754240E+03 -0.77591841692E+02  0.47197299299E+02  0.47940948054E+03  0.17248850331E+03 0.  0.
         24    2    5    5    0    0  0.42969645287E+03 -0.48366017391E+02  0.64148233372E+02  0.44430513412E+03  0.79459065649E+02 0.  0.
         12    1    6    6    0    0  0.25625573535E+03 -0.52856708210E+02  0.69501771219E+02  0.27072371471E+03  0.00000000000E+00 0. -1.
        -11    1    6    6    0    0  0.17344071752E+03  0.44906908190E+01 -0.53535378471E+01  0.17358141941E+03  0.00000000000E+00 0.  1.
          5    1    5    5  501    0  0.82910895341E+01 -0.29225824301E+02 -0.16950934073E+02  0.35104346421E+02  0.47000000000E+01 0. -1.
         13    1    4    4    0    0 -0.17874696417E+03  0.66752506226E+02 -0.97170980208E+02  0.21412280047E+03  0.00000000000E+00 0. -1.
        -14    1    4    4    0    0 -0.22739086151E+03  0.43066273825E+02 -0.21166898893E+03  0.31363205945E+03  0.00000000000E+00 0.  1.
         -5    1    3    3    0  503 -0.31849716721E+02 -0.32226938359E+02 -0.74697598138E+01  0.46161318470E+02  0.47000000000E+01 0.  1.
</event>
<event>
12    1  0.9749377E-001  0.1803340E+03  0.7818608E-02  0.1167480E+00
         21   -1    0    0  501  502  0.00000000000E+00  0.00000000000E+00  0.47907201523E+03  0.47907201523E+03  0.00000000000E+00 0.  1.
         21   -1    0    0  502  503 -0.00000000000E+00 -0.00000000000E+00 -0.12094987018E+03  0.12094987018E+03  0.00000000000E+00 0. -1.
         -6    2    1    2    0  503 -0.18501180847E+01  0.12804997111E+03  0.31456358227E+03  0.38055255553E+03  0.17166765041E+03 0.  0.
        -24    2    3    3    0    0  0.33490226823E+02  0.12045252834E+03  0.15509017112E+03  0.21696612585E+03  0.85970528151E+02 0.  0.
          6    2    1    2  501    0  0.18501180847E+01 -0.12804997111E+03  0.43558562788E+02  0.21946932988E+03  0.17282714003E+03 0.  0.
         24    2    5    5    0    0  0.60432530086E+02 -0.76005515873E+02 -0.85646125656E+01  0.12523855081E+03  0.78628321134E+02 0.  0.
         12    1    6    6    0    0  0.50677102923E+02 -0.43041248697E+02  0.30543819089E+02  0.73168591175E+02  0.00000000000E+00 0. -1.
        -11    1    6    6    0    0  0.97554271624E+01 -0.32964267176E+02 -0.39108431655E+02  0.52069959632E+02  0.00000000000E+00 0.  1.
          5    1    5    5  501    0 -0.58582412001E+02 -0.52044455234E+02  0.52123175353E+02  0.94230779076E+02  0.47000000000E+01 0. -1.
         13    1    4    4    0    0  0.36653731475E+02  0.15416336680E+02  0.74826214664E+02  0.84735599772E+02  0.00000000000E+00 0. -1.
        -14    1    4    4    0    0 -0.31635046518E+01  0.10503619166E+03  0.80263956458E+02  0.13223052608E+03  0.00000000000E+00 0.  1.
         -5    1    3    3    0  503 -0.35340344908E+02  0.75974427664E+01  0.15947341114E+03  0.16358642968E+03  0.47000000000E+01 0.  1.
</event>
<event>
12    1  0.9749377E-001  0.1886340E+03  0.7818608E-02  0.1159699E+00
         21   -1    0    0  503  502  0.00000000000E+00  0.00000000000E+00  0.11580153865E+03  0.11580153865E+03  0.00000000000E+00 0.  1.
         21   -1    0    0  501  503 -0.00000000000E+00 -0.00000000000E+00 -0.47812640177E+03  0.47812640177E+03  0.00000000000E+00 0. -1.
          6    2    1    2  501    0 -0.62139195662E+02  0.76747310480E+02 -0.22368092866E+02  0.19988459822E+03  0.17234294799E+03 0.  0.
         24    2    3    3    0    0 -0.10564255302E+02 -0.25360818369E+02 -0.12003403683E+02  0.84925643665E+02  0.79457590283E+02 0.  0.
         -6    2    1    2    0  502  0.62139195662E+02 -0.76747310480E+02 -0.33995677025E+03  0.39404334220E+03  0.17305525301E+03 0.  0.
        -24    2    5    5    0    0  0.44993322907E+02  0.17688887469E+02 -0.22732655195E+03  0.24598986366E+03  0.80599974911E+02 0.  0.
         12    1    4    4    0    0  0.29811396673E+02 -0.61170700200E+01  0.13661405147E+02  0.33358235982E+02  0.00000000000E+00 0. -1.
        -11    1    4    4    0    0 -0.40375651975E+02 -0.19243748349E+02 -0.25664808830E+02  0.51567407683E+02  0.00000000000E+00 0.  1.
          5    1    3    3  501    0 -0.51574940360E+02  0.10210812885E+03 -0.10364689183E+02  0.11495895455E+03  0.47000000000E+01 0. -1.
         11    1    6    6    0    0 -0.29863906062E+01 -0.26276459834E+02 -0.93680717151E+02  0.97341910995E+02  0.00000000000E+00 0. -1.
        -12    1    6    6    0    0  0.47979713513E+02  0.43965347302E+02 -0.13364583480E+03  0.14864795266E+03  0.00000000000E+00 0.  1.
         -5    1    5    5    0  502  0.17145872755E+02 -0.94436197949E+02 -0.11263021830E+03  0.14805347854E+03  0.47000000000E+01 0.  1.
</event>
<event>
12    1  0.9749377E-001  0.2113384E+03  0.7818608E-02  0.1140511E+00
         21   -1    0    0  503  502  0.00000000000E+00  0.00000000000E+00  0.37064349819E+03  0.37064349819E+03  0.00000000000E+00 0. -1.
         21   -1    0    0  501  503 -0.00000000000E+00 -0.00000000000E+00 -0.24541384769E+03  0.24541384769E+03  0.00000000000E+00 0.  1.
          6    2    1    2  501    0  0.12892826794E+03  0.10159748913E+03  0.25123356891E+03  0.34638278348E+03  0.17296872108E+03 0.  0.
         24    2    3    3    0    0  0.12683105637E+03  0.11238332636E+03  0.26235538260E+03  0.33005742527E+03  0.10673063430E+03 0.  0.
         -6    2    1    2    0  502 -0.12892826794E+03 -0.10159748913E+03 -0.12600391841E+03  0.26967456239E+03  0.17292435940E+03 0.  0.
        -24    2    5    5    0    0 -0.64330500820E+02 -0.10225641626E+02 -0.21565881585E+01  0.10269570971E+03  0.79364858957E+02 0.  0.
         12    1    4    4    0    0  0.84352428441E+02  0.48282030017E+01  0.11685115261E+03  0.14419721077E+03  0.00000000000E+00 0. -1.
        -11    1    4    4    0    0  0.42478627932E+02  0.10755512335E+03  0.14550422999E+03  0.18586021450E+03  0.00000000000E+00 0.  1.
          5    1    3    3  501    0  0.20972115705E+01 -0.10785837228E+02 -0.11121813681E+02  0.16325358209E+02  0.47000000000E+01 0. -1.
         13    1    6    6    0    0  0.16214023857E+02 -0.78569379959E+01 -0.11805731389E+02  0.21540690285E+02  0.00000000000E+00 0. -1.
        -14    1    6    6    0    0 -0.80544524677E+02 -0.23687036300E+01  0.96491432304E+01  0.81155019422E+02  0.00000000000E+00 0.  1.
         -5    1    5    5    0  502 -0.64597767124E+02 -0.91371847502E+02 -0.12384733025E+03  0.16697885269E+03  0.47000000000E+01 0.  1.
</event>
<event>
12    1  0.9749377E-001  0.5431615E+03  0.7818608E-02  0.1003089E+00
         21   -1    0    0  503  502  0.00000000000E+00  0.00000000000E+00  0.10353209635E+04  0.10353209635E+04  0.00000000000E+00 0. -1.
         21   -1    0    0  501  503 -0.00000000000E+00 -0.00000000000E+00 -0.31209841996E+03  0.31209841996E+03  0.00000000000E+00 0.  1.
          6    2    1    2  501    0  0.11647936352E+03  0.50443757588E+03  0.54710019286E+03  0.77277100610E+03  0.17271854783E+03 0.  0.
         24    2    3    3    0    0  0.72084754420E+02  0.47706737498E+03  0.51929050062E+03  0.71347953794E+03  0.81246137987E+02 0.  0.
         -6    2    1    2    0  502 -0.11647936352E+03 -0.50443757588E+03  0.17612235073E+03  0.57464837741E+03  0.17657000072E+03 0.  0.
        -24    2    5    5    0    0 -0.67198730287E+02 -0.12654712221E+03  0.32172958757E+02  0.16725017757E+03  0.80047980179E+02 0.  0.
         14    1    4    4    0    0  0.86253622725E+02  0.31696898104E+03  0.35374434959E+03  0.48274640054E+03  0.00000000000E+00 0. -1.
        -13    1    4    4    0    0 -0.14168868305E+02  0.16009839394E+03  0.16554615104E+03  0.23073313740E+03  0.00000000000E+00 0.  1.
          5    1    3    3  501    0  0.44394609100E+02  0.27370200900E+02  0.27809692236E+02  0.59291468162E+02  0.47000000000E+01 0. -1.
         11    1    6    6    0    0  0.17633494194E+02 -0.32422704415E+02  0.12809282994E+02  0.39067244718E+02  0.00000000000E+00 0. -1.
        -12    1    6    6    0    0 -0.84832224482E+02 -0.94124417796E+02  0.19363675763E+02  0.12818293285E+03  0.00000000000E+00 0.  1.
         -5    1    5    5    0  502 -0.49280633233E+02 -0.37789045366E+03  0.14394939197E+03  0.40739819984E+03  0.47000000000E+01 0.  1.
</event>
<event>
12    1  0.9749377E-001  0.3452837E+03  0.7818608E-02  0.1064568E+00
         21   -1    0    0  503  502  0.00000000000E+00  0.00000000000E+00  0.22788531357E+03  0.22788531357E+03  0.00000000000E+00 0. -1.
         21   -1    0    0  501  503 -0.00000000000E+00 -0.00000000000E+00 -0.55739808913E+03  0.55739808913E+03  0.00000000000E+00 0.  1.
          6    2    1    2  501    0 -0.15181393268E+03  0.27271301147E+03 -0.18255572922E+03  0.39999941577E+03  0.17103532258E+03 0.  0.
         24    2    3    3    0    0 -0.24050776727E+02  0.53378778624E+02 -0.63785521343E+02  0.11971494957E+03  0.82676130468E+02 0.  0.
         -6    2    1    2    0  502  0.15181393268E+03 -0.27271301147E+03 -0.14695704635E+03  0.38528398692E+03  0.17154451413E+03 0.  0.
        -24    2    5    5    0    0  0.33460426157E+02 -0.13240642162E+03 -0.12241311362E+03  0.20003284308E+03  0.79856792569E+02 0.  0.
         14    1    4    4    0    0  0.24939075938E+02  0.43143650419E+02 -0.21817694615E+02  0.54399851823E+02  0.00000000000E+00 0. -1.
        -13    1    4    4    0    0 -0.48989852665E+02  0.10235128205E+02 -0.41967826728E+02  0.65315097747E+02  0.00000000000E+00 0.  1.
          5    1    3    3  501    0 -0.12776315595E+03  0.21933423285E+03 -0.11877020787E+03  0.28028446620E+03  0.47000000000E+01 0. -1.
         13    1    6    6    0    0 -0.21181913011E+02 -0.50163823770E+02 -0.20642189399E+02  0.58233861603E+02  0.00000000000E+00 0. -1.
        -14    1    6    6    0    0  0.54642339168E+02 -0.82242597850E+02 -0.10177092422E+03  0.14179898148E+03  0.00000000000E+00 0.  1.
         -5    1    5    5    0  502  0.11835350652E+03 -0.14030658985E+03 -0.24543932726E+02  0.18525114384E+03  0.47000000000E+01 0.  1.
</event>
<event>
12    1  0.9749377E-001  0.5717272E+03  0.7818608E-02  0.9965864E-01
         21   -1    0    0  501  502  0.00000000000E+00  0.00000000000E+00  0.36919363887E+03  0.36919363887E+03  0.00000000000E+00 0.  1.
         21   -1    0    0  502  503 -0.00000000000E+00 -0.00000000000E+00 -0.94602719859E+03  0.94602719859E+03  0.00000000000E+00 0. -1.
         -6    2    1    2    0  503  0.24665551226E+03  0.49627803640E+03 -0.17255265449E+03  0.60879453972E+03  0.18364515207E+03 0.  0.
        -24    2    3    3    0    0  0.22182884082E+03  0.50467225838E+03 -0.16091610419E+03  0.57973725353E+03  0.79367295232E+02 0.  0.
          6    2    1    2  501    0 -0.24665551226E+03 -0.49627803640E+03 -0.40428090523E+03  0.70642629774E+03  0.16871346323E+03 0.  0.
         24    2    5    5    0    0 -0.22840666058E+03 -0.42124670781E+03 -0.40032291936E+03  0.62896355503E+03  0.75619589745E+02 0.  0.
         14    1    6    6    0    0 -0.89355572477E+02 -0.22505905703E+03 -0.23272795611E+03  0.33585458019E+03  0.00000000000E+00 0. -1.
        -13    1    6    6    0    0 -0.13905108810E+03 -0.19618765078E+03 -0.16759496325E+03  0.29310897483E+03  0.00000000000E+00 0.  1.
          5    1    5    5  501    0 -0.18248851680E+02 -0.75031328586E+02 -0.39579858735E+01  0.77462742717E+02  0.47000000000E+01 0. -1.
         13    1    4    4    0    0  0.57116771960E+02  0.60882886049E+02 -0.20099187016E+02  0.85866342484E+02  0.00000000000E+00 0. -1.
        -14    1    4    4    0    0  0.16471206886E+03  0.44378937233E+03 -0.14081691718E+03  0.49387091105E+03  0.00000000000E+00 0.  1.
         -5    1    3    3    0  503  0.24826671440E+02 -0.83942219801E+01 -0.11636550294E+02  0.29057286181E+02  0.47000000000E+01 0.  1.
</event>
<event>
12    1  0.9749377E-001  0.2316651E+03  0.7818608E-02  0.1125473E+00
         21   -1    0    0  503  502  0.00000000000E+00  0.00000000000E+00  0.12053399110E+04  0.12053399110E+04  0.00000000000E+00 0.  1.
         21   -1    0    0  501  503 -0.00000000000E+00 -0.00000000000E+00 -0.14883128769E+03  0.14883128769E+03  0.00000000000E+00 0. -1.
          6    2    1    2  501    0  0.16838015993E+03 -0.61342980957E+02  0.10751240772E+04  0.11034638172E+04  0.17212139587E+03 0.  0.
         24    2    3    3    0    0  0.79085533878E+02 -0.95463805620E+02  0.77200991903E+03  0.78559899719E+03  0.76148601074E+02 0.  0.
         -6    2    1    2    0  502 -0.16838015993E+03  0.61342980957E+02 -0.18615453897E+02  0.25070738148E+03  0.17433535623E+03 0.  0.
        -24    2    5    5    0    0 -0.96922419234E+02 -0.32174028709E+02 -0.41379076870E+02  0.13074108482E+03  0.70369594177E+02 0.  0.
         14    1    4    4    0    0  0.32821770866E+02 -0.75002137023E+02  0.62025395702E+03  0.62563372703E+03  0.00000000000E+00 0. -1.
        -13    1    4    4    0    0  0.46263763012E+02 -0.20461668597E+02  0.15175596202E+03  0.15996527016E+03  0.00000000000E+00 0.  1.
          5    1    3    3  501    0  0.89294626053E+02  0.34120824663E+02  0.30311415815E+03  0.31786481999E+03  0.47000000000E+01 0. -1.
         11    1    6    6    0    0 -0.15383895409E+02 -0.32372044799E+02 -0.33092298937E+02  0.48782310025E+02  0.00000000000E+00 0. -1.
        -12    1    6    6    0    0 -0.81538523825E+02  0.19801609038E+00 -0.82867779329E+01  0.81958774799E+02  0.00000000000E+00 0.  1.
         -5    1    5    5    0  502 -0.71457740697E+02  0.93517009665E+02  0.22763622973E+02  0.11996629665E+03  0.47000000000E+01 0.  1.
</event>
<event>
12    1  0.9749377E-001  0.3659615E+03  0.7818608E-02  0.1056248E+00
         21   -1    0    0  501  502  0.00000000000E+00  0.00000000000E+00  0.18734832573E+03  0.18734832573E+03  0.00000000000E+00 0. -1.
         21   -1    0    0  502  503 -0.00000000000E+00 -0.00000000000E+00 -0.82309023090E+03  0.82309023090E+03  0.00000000000E+00 0.  1.
         -6    2    1    2    0  503  0.11225659374E+03  0.32528084329E+03 -0.42211425986E+03  0.57057124411E+03  0.17018203893E+03 0.  0.
        -24    2    3    3    0    0  0.58370689128E+02  0.27828339259E+03 -0.26308040077E+03  0.39613985523E+03  0.82865576039E+02 0.  0.
          6    2    1    2  501    0 -0.11225659374E+03 -0.32528084329E+03 -0.21362764531E+03  0.43986731253E+03  0.17157305132E+03 0.  0.
         24    2    5    5    0    0 -0.12898488739E+03 -0.21303062402E+03 -0.18979702509E+03  0.32380725913E+03  0.82517164184E+02 0.  0.
         12    1    6    6    0    0 -0.47495879859E+02 -0.17884876923E+02 -0.32866796974E+02  0.60464483538E+02  0.00000000000E+00 0. -1.
        -11    1    6    6    0    0 -0.81489007528E+02 -0.19514574710E+03 -0.15693022812E+03  0.26334277559E+03  0.00000000000E+00 0.  1.
          5    1    5    5  501    0  0.16728293649E+02 -0.11225021927E+03 -0.23830620218E+02  0.11606005340E+03  0.47000000000E+01 0. -1.
         11    1    4    4    0    0  0.15500139559E+02  0.92230168761E+02 -0.14208047134E+03  0.17009855582E+03  0.00000000000E+00 0. -1.
        -12    1    4    4    0    0  0.42870549569E+02  0.18605322383E+03 -0.12099992943E+03  0.22604129941E+03  0.00000000000E+00 0.  1.
         -5    1    3    3    0  503  0.53885904610E+02  0.46997450707E+02 -0.15903385909E+03  0.17443138888E+03  0.47000000000E+01 0.  1.
</event>
<event>
12    1  0.9749377E-001  0.7190963E+03  0.7818608E-02  0.9685121E-01
         21   -1    0    0  503  502  0.00000000000E+00  0.00000000000E+00  0.40271705353E+03  0.40271705353E+03  0.00000000000E+00 0.  1.
         21   -1    0    0  501  503 -0.00000000000E+00 -0.00000000000E+00 -0.15113388753E+04  0.15113388753E+04  0.00000000000E+00 0. -1.
          6    2    1    2  501    0  0.33870608594E+03  0.62188000876E+03 -0.89620086643E+03  0.11551061640E+04  0.17215603180E+03 0.  0.
         24    2    3    3    0    0  0.17069465565E+03  0.26962176425E+03 -0.31857147013E+03  0.45797524306E+03  0.80131020504E+02 0.  0.
         -6    2    1    2    0  502 -0.33870608594E+03 -0.62188000876E+03 -0.21242095532E+03  0.75894976476E+03  0.17153869893E+03 0.  0.
        -24    2    5    5    0    0 -0.10875760386E+03 -0.28848964673E+03 -0.35859184022E+02  0.31711089482E+03  0.64953413082E+02 0.  0.
         14    1    4    4    0    0  0.14364453200E+03  0.26520852298E+03 -0.29193756566E+03  0.41975809043E+03  0.00000000000E+00 0. -1.
        -13    1    4    4    0    0  0.27050123649E+02  0.44132412732E+01 -0.26633904468E+02  0.38217152631E+02  0.00000000000E+00 0.  1.
          5    1    3    3  501    0  0.16801143029E+03  0.35225824451E+03 -0.57762939630E+03  0.69713092098E+03  0.47000000000E+01 0. -1.
         11    1    6    6    0    0 -0.88165352180E+02 -0.15127341448E+03 -0.60675585369E+01  0.17519586330E+03  0.00000000000E+00 0. -1.
        -12    1    6    6    0    0 -0.20592251683E+02 -0.13721623225E+03 -0.29791625485E+02  0.14191503152E+03  0.00000000000E+00 0.  1.
         -5    1    5    5    0  502 -0.22994848207E+03 -0.33339036203E+03 -0.17656177130E+03  0.44183886994E+03  0.47000000000E+01 0.  1.
</event>
<event>
12    1  0.9749377E-001  0.6558652E+03  0.7818608E-02  0.9795835E-01
         21   -1    0    0  501  502  0.00000000000E+00  0.00000000000E+00  0.12413379576E+04  0.12413379576E+04  0.00000000000E+00 0.  1.
         21   -1    0    0  502  503 -0.00000000000E+00 -0.00000000000E+00 -0.40562647226E+03  0.40562647226E+03  0.00000000000E+00 0. -1.
         -6    2    1    2    0  503 -0.32303906973E+03  0.55894968694E+03  0.69493968675E+03  0.96383457100E+03  0.17104654023E+03 0.  0.
        -24    2    3    3    0    0 -0.90106829491E+02  0.19160592036E+03  0.30421137148E+03  0.37912132697E+03  0.79726736952E+02 0.  0.
          6    2    1    2  501    0  0.32303906973E+03 -0.55894968694E+03  0.14077179859E+03  0.68312985886E+03  0.17340908765E+03 0.  0.
         24    2    5    5    0    0  0.61611577381E+02 -0.20713595958E+03  0.45294292937E+02  0.23451501670E+03  0.79021692388E+02 0.  0.
         14    1    6    6    0    0  0.48270350498E+01 -0.20518732219E+02  0.32878123469E+02  0.39054956690E+02  0.00000000000E+00 0. -1.
        -13    1    6    6    0    0  0.56784542331E+02 -0.18661722736E+03  0.12416169468E+02  0.19546006001E+03  0.00000000000E+00 0.  1.
          5    1    5    5  501    0  0.26142749235E+03 -0.35181372736E+03  0.95477505656E+02  0.44861484216E+03  0.47000000000E+01 0. -1.
         13    1    4    4    0    0  0.28440680631E+01  0.65662032382E+02  0.59652585669E+02  0.88758223263E+02  0.00000000000E+00 0. -1.
        -14    1    4    4    0    0 -0.92950897554E+02  0.12594388798E+03  0.24455878581E+03  0.29036310370E+03  0.00000000000E+00 0.  1.
         -5    1    3    3    0  503 -0.23293224024E+03  0.36734376659E+03  0.39072831526E+03  0.58471324403E+03  0.47000000000E+01 0.  1.
</event>
<event>
12    1  0.9749377E-001  0.4968699E+03  0.7818608E-02  0.1014599E+00
         21   -1    0    0  503  502  0.00000000000E+00  0.00000000000E+00  0.81339888158E+02  0.81339888158E+02  0.00000000000E+00 0. -1.
         21   -1    0    0  501  503 -0.00000000000E+00 -0.00000000000E+00 -0.34677320525E+04  0.34677320525E+04  0.00000000000E+00 0.  1.
          6    2    1    2  501    0 -0.13432953324E+03  0.45406347616E+03 -0.11304236378E+04  0.12374860580E+04  0.17116097380E+03 0.  0.
         24    2    3    3    0    0 -0.16018577208E+03  0.35171584467E+03 -0.94480465584E+03  0.10238974833E+04  0.79666189386E+02 0.  0.
         -6    2    1    2    0  502  0.13432953324E+03 -0.45406347616E+03 -0.22559685265E+04  0.23115858826E+04  0.17267668141E+03 0.  0.
        -24    2    5    5    0    0  0.46556108690E+02 -0.13738992508E+03 -0.98355274750E+03  0.99741301855E+03  0.80082830222E+02 0.  0.
         14    1    4    4    0    0 -0.55203834269E+02  0.21146162966E+03 -0.49061396226E+03  0.53708988457E+03  0.00000000000E+00 0. -1.
        -13    1    4    4    0    0 -0.10498193781E+03  0.14025421501E+03 -0.45419069358E+03  0.48680759878E+03  0.00000000000E+00 0.  1.
          5    1    3    3  501    0  0.25856238839E+02  0.10234763148E+03 -0.18561898197E+03  0.21358857466E+03  0.47000000000E+01 0. -1.
         13    1    6    6    0    0  0.29945824105E+02 -0.14453353729E+03 -0.88049742738E+03  0.89278352102E+03  0.00000000000E+00 0. -1.
        -14    1    6    6    0    0  0.16610284584E+02  0.71436122035E+01 -0.10305532011E+03  0.10462949753E+03  0.00000000000E+00 0.  1.
         -5    1    5    5    0  502  0.87773424552E+02 -0.31667355107E+03 -0.12724157790E+04  0.13141728641E+04  0.47000000000E+01 0.  1.
</event>
<event>
12    1  0.9749377E-001  0.9078096E+03  0.7818608E-02  0.9415871E-01
         21   -1    0    0  501  502  0.00000000000E+00  0.00000000000E+00  0.14042566951E+04  0.14042566951E+04  0.00000000000E+00 0. -1.
         21   -1    0    0  502  503 -0.00000000000E+00 -0.00000000000E+00 -0.73667591355E+03  0.73667591355E+03  0.00000000000E+00 0.  1.
         -6    2    1    2    0  503 -0.60925316445E+03 -0.66003060478E+03  0.80008804549E+03  0.12168714250E+04  0.18386235809E+03 0.  0.
        -24    2    3    3    0    0 -0.55298895193E+03 -0.59472085309E+03  0.64776579412E+03  0.10417852075E+04  0.78906403543E+02 0.  0.
          6    2    1    2  501    0  0.60925316445E+03  0.66003060478E+03 -0.13250726390E+03  0.92406118373E+03  0.17175878042E+03 0.  0.
         24    2    5    5    0    0  0.58304639980E+03  0.56732541590E+03 -0.12912496683E+03  0.82754913012E+03  0.79768877752E+02 0.  0.
         12    1    6    6    0    0  0.29367640361E+03  0.23374724151E+03 -0.45351233942E+02  0.37807451299E+03  0.00000000000E+00 0. -1.
        -11    1    6    6    0    0  0.28936999619E+03  0.33357817439E+03 -0.83773732886E+02  0.44947461713E+03  0.00000000000E+00 0.  1.
          5    1    5    5  501    0  0.26206764655E+02  0.92705188881E+02 -0.33822970711E+01  0.96512053613E+02  0.47000000000E+01 0. -1.
         11    1    4    4    0    0 -0.53745681368E+03 -0.55198200475E+03  0.60987510600E+03  0.98259432374E+03  0.00000000000E+00 0. -1.
        -12    1    4    4    0    0 -0.15532138257E+02 -0.42738848340E+02  0.37890688125E+02  0.59190883782E+02  0.00000000000E+00 0.  1.
         -5    1    3    3    0  503 -0.56264212520E+02 -0.65309751688E+02  0.15232225137E+03  0.17508621744E+03  0.47000000000E+01 0.  1.
</event>
<event>
12    1  0.9749377E-001  0.2694694E+03  0.7818608E-02  0.1101584E+00
         21   -1    0    0  503  502  0.00000000000E+00  0.00000000000E+00  0.23151816233E+03  0.23151816233E+03  0.00000000000E+00 0.  1.
         21   -1    0    0  501  503 -0.00000000000E+00 -0.00000000000E+00 -0.34849707097E+03  0.34849707097E+03  0.00000000000E+00 0. -1.
          6    2    1    2  501    0  0.87631867638E+02 -0.20702351031E+03 -0.50604768463E+02  0.28896507238E+03  0.17436138455E+03 0.  0.
         24    2    3    3    0    0  0.91412724800E+02 -0.62534772251E+02  0.51460653741E+00  0.13558133528E+03  0.78199422387E+02 0.  0.
         -6    2    1    2    0  502 -0.87631867638E+02  0.20702351031E+03 -0.66374140179E+02  0.29105016092E+03  0.17252997316E+03 0.  0.
        -24    2    5    5    0    0 -0.20949175692E+02  0.31522903094E+02 -0.50981274900E+02  0.10261960384E+03  0.80617189985E+02 0.  0.
         12    1    4    4    0    0  0.69268948337E+02 -0.80891190091E+02 -0.34130830697E+01  0.10655149447E+03  0.00000000000E+00 0. -1.
        -11    1    4    4    0    0  0.22143776463E+02  0.18356417840E+02  0.39276896071E+01  0.29029840813E+02  0.00000000000E+00 0.  1.
          5    1    3    3  501    0 -0.37808571629E+01 -0.14448873805E+03 -0.51119375001E+02  0.15338373710E+03  0.47000000000E+01 0. -1.
         11    1    6    6    0    0 -0.23882628408E+02 -0.12627836144E+02  0.86483281340E+01  0.28366102391E+02  0.00000000000E+00 0. -1.
        -12    1    6    6    0    0  0.29334527159E+01  0.44150739237E+02 -0.59629603034E+02  0.74253501453E+02  0.00000000000E+00 0.  1.
         -5    1    5    5    0  502 -0.66682691946E+02  0.17550060721E+03 -0.15392865279E+02  0.18843055707E+03  0.47000000000E+01 0.  1.
</event>
<event>
12    1  0.9749377E-001  0.4718138E+03  0.7818608E-02  0.1021410E+00
         21   -1    0    0  503  502  0.00000000000E+00  0.00000000000E+00  0.13044721138E+04  0.13044721138E+04  0.00000000000E+00 0.  1.
         21   -1    0    0  501  503 -0.00000000000E+00 -0.00000000000E+00 -0.17672826621E+03  0.17672826621E+03  0.00000000000E+00 0. -1.
          6    2    1    2  501    0  0.11342746158E+03  0.43405011413E+03  0.57349305643E+03  0.74794216837E+03  0.17104943972E+03 0.  0.
         24    2    3    3    0    0  0.12282932799E+03  0.21691719914E+03  0.34125473580E+03  0.42983554248E+03  0.78509131794E+02 0.  0.
         -6    2    1    2    0  502 -0.11342746158E+03 -0.43405011413E+03  0.55425079119E+03  0.73325821167E+03  0.17090457814E+03 0.  0.
        -24    2    5    5    0    0 -0.71271367427E+01 -0.24399690859E+03  0.24499134631E+03  0.35499444887E+03  0.80093766828E+02 0.  0.
         12    1    4    4    0    0  0.39164827422E+02  0.14753814482E+03  0.20147725344E+03  0.25277355782E+03  0.00000000000E+00 0. -1.
        -11    1    4    4    0    0  0.83664500564E+02  0.69379054322E+02  0.13977748237E+03  0.17706198466E+03  0.00000000000E+00 0.  1.
          5    1    3    3  501    0 -0.94018664071E+01  0.21713291499E+03  0.23223832063E+03  0.31810662589E+03  0.47000000000E+01 0. -1.
         13    1    6    6    0    0  0.15649412743E+02 -0.12052941839E+03  0.16924032083E+03  0.20836153919E+03  0.00000000000E+00 0. -1.
        -14    1    6    6    0    0 -0.22776549486E+02 -0.12346749020E+03  0.75751025478E+02  0.14663290969E+03  0.00000000000E+00 0.  1.
         -5    1    5    5    0  502 -0.10630032484E+03 -0.19005320554E+03  0.30925944488E+03  0.37826376280E+03  0.47000000000E+01 0.  1.
</event>
<event>
12    1  0.9749377E-001  0.3800132E+03  0.7818608E-02  0.1050929E+00
         21   -1    0    0  501  502  0.00000000000E+00  0.00000000000E+00  0.99850012802E+03  0.99850012802E+03  0.00000000000E+00 0.  1.
         21   -1    0    0  502  503 -0.00000000000E+00 -0.00000000000E+00 -0.17991716719E+03  0.17991716719E+03  0.00000000000E+00 0. -1.
         -6    2    1    2    0  503  0.21544111097E+03  0.28857037175E+03  0.20988326069E+03  0.45066284369E+03  0.17134259196E+03 0.  0.
        -24    2    3    3    0    0  0.21453484694E+03  0.20226922837E+03  0.19617460730E+03  0.36314869717E+03  0.80339644107E+02 0.  0.
          6    2    1    2  501    0 -0.21544111097E+03 -0.28857037175E+03  0.60869970014E+03  0.72775445151E+03  0.17153275195E+03 0.  0.
         24    2    5    5    0    0 -0.27846887931E+02 -0.67281962974E+02  0.19655595518E+03  0.22372597127E+03  0.78209686083E+02 0.  0.
         12    1    6    6    0    0 -0.30951559853E+02 -0.31468760275E+02  0.17776577293E+03  0.18316372991E+03  0.00000000000E+00 0. -1.
        -11    1    6    6    0    0  0.31046719217E+01 -0.35813202699E+02  0.18790182249E+02  0.40562241361E+02  0.00000000000E+00 0.  1.
          5    1    5    5  501    0 -0.18759422304E+03 -0.22128840877E+03  0.41214374497E+03  0.50402848024E+03  0.47000000000E+01 0. -1.
         13    1    4    4    0    0  0.19034869491E+01 -0.56555638595E+01  0.11835777379E+02  0.13254972324E+02  0.00000000000E+00 0. -1.
        -14    1    4    4    0    0  0.21263135999E+03  0.20792479223E+03  0.18433882992E+03  0.34989372485E+03  0.00000000000E+00 0.  1.
         -5    1    3    3    0  503  0.90626403585E+00  0.86301143382E+02  0.13708653389E+02  0.87514146521E+02  0.47000000000E+01 0.  1.
</event>
<event>
12    1  0.9749377E-001  0.3579175E+03  0.7818608E-02  0.1059412E+00
         21   -1    0    0  501  502  0.00000000000E+00  0.00000000000E+00  0.15095452794E+04  0.15095452794E+04  0.00000000000E+00 0.  1.
         21   -1    0    0  502  503 -0.00000000000E+00 -0.00000000000E+00 -0.12280451269E+03  0.12280451269E+03  0.00000000000E+00 0. -1.
         -6    2    1    2    0  503 -0.33390230062E+03  0.73927022442E+02  0.32141439529E+03  0.49954022708E+03  0.17110603136E+03 0.  0.
        -24    2    3    3    0    0 -0.27733686614E+03  0.81576955589E+02  0.32488192120E+03  0.44216180264E+03  0.79926591249E+02 0.  0.
          6    2    1    2  501    0  0.33390230062E+03 -0.73927022442E+02  0.10653263714E+04  0.11328095650E+04  0.17714762750E+03 0.  0.
         24    2    5    5    0    0  0.12845704004E+03  0.77132405356E+01  0.30200798494E+03  0.33810840309E+03  0.80918255364E+02 0.  0.
         14    1    6    6    0    0  0.44504500629E+02  0.38148873642E+02  0.83160811669E+02  0.10174334246E+03  0.00000000000E+00 0. -1.
        -13    1    6    6    0    0  0.83952539413E+02 -0.30435633107E+02  0.21884717327E+03  0.23636506063E+03  0.00000000000E+00 0.  1.
          5    1    5    5  501    0  0.20544526057E+03 -0.81640262978E+02  0.76331838644E+03  0.79470116189E+03  0.47000000000E+01 0. -1.
         11    1    4    4    0    0 -0.16917964399E+03  0.57818002930E+02  0.14178693627E+03  0.22818459348E+03  0.00000000000E+00 0. -1.
        -12    1    4    4    0    0 -0.10815722215E+03  0.23758952659E+02  0.18309498493E+03  0.21397720916E+03  0.00000000000E+00 0.  1.
         -5    1    3    3    0  503 -0.56565434475E+02 -0.76499331461E+01 -0.34675259173E+01  0.57378424434E+02  0.47000000000E+01 0.  1.
</event>
<event>
12    1  0.9749377E-001  0.5095952E+03  0.7818608E-02  0.1011304E+00
         21   -1    0    0  503  502  0.00000000000E+00  0.00000000000E+00  0.40572760949E+03  0.40572760949E+03  0.00000000000E+00 0. -1.
         21   -1    0    0  501  503 -0.00000000000E+00 -0.00000000000E+00 -0.68604514870E+03  0.68604514870E+03  0.00000000000E+00 0.  1.
          6    2    1    2  501    0 -0.48952209643E+03 -0.63359318821E+02 -0.21428109060E+03  0.56490590203E+03  0.17191860336E+03 0.  0.
         24    2    3    3    0    0 -0.98348552476E+02 -0.25367597472E+02 -0.50981181600E+02  0.13928980428E+03  0.80539530192E+02 0.  0.
         -6    2    1    2    0  502  0.48952209643E+03  0.63359318821E+02 -0.66036448608E+02  0.52686685617E+03  0.17199298068E+03 0.  0.
        -24    2    5    5    0    0  0.33473860397E+03  0.10145822456E+03 -0.14289578886E+02  0.35920861842E+03  0.80516676303E+02 0.  0.
         12    1    4    4    0    0 -0.33629301259E+02  0.94521581586E+01  0.17293014414E+02  0.38978475401E+02  0.00000000000E+00 0. -1.
        -11    1    4    4    0    0 -0.64719251217E+02 -0.34819755631E+02 -0.68274196014E+02  0.10031132888E+03  0.00000000000E+00 0.  1.
          5    1    3    3  501    0 -0.39117354396E+03 -0.37991721349E+02 -0.16329990900E+03  0.42561609775E+03  0.47000000000E+01 0. -1.
         13    1    6    6    0    0  0.25693884362E+03  0.42036086897E+02 -0.57216200260E+00  0.26035539045E+03  0.00000000000E+00 0. -1.
        -14    1    6    6    0    0  0.77799760341E+02  0.59422137668E+02 -0.13717416883E+02  0.98853227970E+02  0.00000000000E+00 0.  1.
         -5    1    5    5    0  502  0.15478349247E+03 -0.38098905744E+02 -0.51746869722E+02  0.16765823775E+03  0.47000000000E+01 0.  1.
</event>
<event>
12    1  0.9749377E-001  0.2814501E+03  0.7818608E-02  0.1094900E+00
         21   -1    0    0  503  502  0.00000000000E+00  0.00000000000E+00  0.32856352939E+03  0.32856352939E+03  0.00000000000E+00 0.  1.
         21   -1    0    0  501  503 -0.00000000000E+00 -0.00000000000E+00 -0.27747692524E+03  0.27747692524E+03  0.00000000000E+00 0. -1.
          6    2    1    2  501    0 -0.23105752567E+03 -0.86469773410E+02  0.15795988008E+02  0.30100749316E+03  0.17173059080E+03 0.  0.
         24    2    3    3    0    0 -0.62182831745E+02  0.72379279487E+01  0.40330494596E+02  0.10626708247E+03  0.75809312468E+02 0.  0.
         -6    2    1    2    0  502  0.23105752567E+03  0.86469773410E+02  0.35290616145E+02  0.30503296147E+03  0.17588370622E+03 0.  0.
        -24    2    5    5    0    0  0.97445458485E+02  0.81550851874E+02  0.70682946246E+02  0.16664550786E+03  0.81415524195E+02 0.  0.
         14    1    4    4    0    0 -0.54319593565E+02 -0.23922244163E+02  0.44052038293E+02  0.73915317010E+02  0.00000000000E+00 0. -1.
        -13    1    4    4    0    0 -0.78632381793E+01  0.31160172112E+02 -0.37215436976E+01  0.32351765457E+02  0.00000000000E+00 0.  1.
          5    1    3    3  501    0 -0.16887469393E+03 -0.93707701359E+02 -0.24534506588E+02  0.19474041069E+03  0.47000000000E+01 0. -1.
         11    1    6    6    0    0  0.72470445641E+01 -0.12294306082E+02 -0.61019861987E+01  0.15521077686E+02  0.00000000000E+00 0. -1.
        -12    1    6    6    0    0  0.90198413921E+02  0.93845157956E+02  0.76784932445E+02  0.15112443018E+03  0.00000000000E+00 0.  1.
         -5    1    5    5    0  502  0.13361206719E+03  0.49189215363E+01 -0.35392330101E+02  0.13838745361E+03  0.47000000000E+01 0.  1.
</event>
<event>
12    1  0.9749377E-001  0.1164460E+04  0.7818608E-02  0.9144547E-01
         21   -1    0    0  503  502  0.00000000000E+00  0.00000000000E+00  0.21303523443E+04  0.21303523443E+04  0.00000000000E+00 0. -1.
         21   -1    0    0  501  503 -0.00000000000E+00 -0.00000000000E+00 -0.85396444460E+03  0.85396444460E+03  0.00000000000E+00 0.  1.
          6    2    1    2  501    0  0.76886816616E+03  0.86158444253E+03  0.13843393092E+04  0.18107975713E+04  0.17060630882E+03 0.  0.
         24    2    3    3    0    0  0.62837388466E+03  0.61426727720E+03  0.10125126991E+04  0.13426292881E+04  0.72755842700E+02 0.  0.
         -6    2    1    2    0  502 -0.76886816616E+03 -0.86158444253E+03 -0.10795140955E+03  0.11735192176E+04  0.17890734656E+03 0.  0.
        -24    2    5    5    0    0 -0.20827467706E+03 -0.30386792731E+03 -0.54432893922E+02  0.38092910100E+03  0.80187166681E+02 0.  0.
         14    1    4    4    0    0  0.27423424412E+03  0.29481910701E+03  0.41682000994E+03  0.57953571693E+03  0.00000000000E+00 0. -1.
        -13    1    4    4    0    0  0.35413964054E+03  0.31944817019E+03  0.59569268915E+03  0.76309357115E+03  0.00000000000E+00 0.  1.
          5    1    3    3  501    0  0.14049428150E+03  0.24731716533E+03  0.37182661015E+03  0.46816828322E+03  0.47000000000E+01 0. -1.
         11    1    6    6    0    0 -0.37822262701E+02 -0.10803205860E+03  0.50618798199E+01  0.11457343439E+03  0.00000000000E+00 0. -1.
        -12    1    6    6    0    0 -0.17045241436E+03 -0.19583586870E+03 -0.59494773742E+02  0.26635566661E+03  0.00000000000E+00 0.  1.
         -5    1    5    5    0  502 -0.56059348910E+03 -0.55771651523E+03 -0.53518515624E+02  0.79259011657E+03  0.47000000000E+01 0.  1.
</event>
<event>
12    1  0.9749377E-001  0.7988264E+03  0.7818608E-02  0.9561717E-01
         21   -1    0    0  503  502  0.00000000000E+00  0.00000000000E+00  0.97993115177E+03  0.97993115177E+03  0.00000000000E+00 0. -1.
         21   -1    0    0  501  503 -0.00000000000E+00 -0.00000000000E+00 -0.71037633442E+03  0.71037633442E+03  0.00000000000E+00 0.  1.
          6    2    1    2  501    0 -0.39550279405E+03 -0.68476176227E+03 -0.76059611569E+02  0.81009659474E+03  0.15858845210E+03 0.  0.
         24    2    3    3    0    0 -0.23431934804E+03 -0.31713876680E+03  0.16890705369E+01  0.40120331082E+03  0.74018169291E+02 0.  0.
         -6    2    1    2    0  502  0.39550279405E+03  0.68476176227E+03  0.34561442891E+03  0.88021089144E+03  0.17320724229E+03 0.  0.
        -24    2    5    5    0    0  0.27048922375E+03  0.34464414342E+03  0.21904014468E+03  0.49634694831E+03  0.80235293704E+02 0.  0.
         12    1    4    4    0    0 -0.94645934398E+02 -0.10300157736E+03  0.32736674461E+02  0.14366233915E+03  0.00000000000E+00 0. -1.
        -11    1    4    4    0    0 -0.13967341364E+03 -0.21413718944E+03 -0.31047603924E+02  0.25754097167E+03  0.00000000000E+00 0.  1.
          5    1    3    3  501    0 -0.16118344601E+03 -0.36762299547E+03 -0.77748682105E+02  0.40889328392E+03  0.47000000000E+01 0. -1.
         13    1    6    6    0    0  0.21673575248E+02  0.22615420465E+02 -0.51204975177E+01  0.31739889755E+02  0.00000000000E+00 0. -1.
        -14    1    6    6    0    0  0.24881564850E+03  0.32202872295E+03  0.22416064220E+03  0.46460705855E+03  0.00000000000E+00 0.  1.
         -5    1    5    5    0  502  0.12501357029E+03  0.34011761885E+03  0.12657428423E+03  0.38386394314E+03  0.47000000000E+01 0.  1.
</event>
<event>
12    1  0.9749377E-001  0.4056829E+03  0.7818608E-02  0.1041829E+00
         21   -1    0    0  501  502  0.00000000000E+00  0.00000000000E+00  0.25836785518E+03  0.25836785518E+03  0.00000000000E+00 0.  1.
         21   -1    0    0  502  503 -0.00000000000E+00 -0.00000000000E+00 -0.17318068227E+04  0.17318068227E+04  0.00000000000E+00 0. -1.
         -6    2    1    2    0  503  0.53326607336E+02 -0.39005733701E+03  0.26074054002E+02  0.43035983925E+03  0.17187577415E+03 0.  0.
        -24    2    3    3    0    0  0.42336492279E+02 -0.22744908363E+03  0.81843462406E+02  0.25803879117E+03  0.79750869515E+02 0.  0.
          6    2    1    2  501    0 -0.53326607336E+02  0.39005733701E+03 -0.14995130215E+04  0.15598148387E+04  0.17173984953E+03 0.  0.
         24    2    5    5    0    0 -0.54805092139E+02  0.10400103268E+03 -0.53545618297E+03  0.55420155654E+03  0.81278708605E+02 0.  0.
         14    1    6    6    0    0 -0.28101548110E+02  0.68691829456E+02 -0.16273035283E+03  0.17885589778E+03  0.00000000000E+00 0. -1.
        -13    1    6    6    0    0 -0.26703544029E+02  0.35309203222E+02 -0.37272583014E+03  0.37534565876E+03  0.00000000000E+00 0.  1.
          5    1    5    5  501    0  0.14784848031E+01  0.28605630433E+03 -0.96405683858E+03  0.10056132821E+04  0.47000000000E+01 0. -1.
         13    1    4    4    0    0 -0.21322489575E+02 -0.34541702506E+02  0.22485402514E+02  0.46404429745E+02  0.00000000000E+00 0. -1.
        -14    1    4    4    0    0  0.63658981854E+02 -0.19290738112E+03  0.59358059892E+02  0.21163436143E+03  0.00000000000E+00 0.  1.
         -5    1    3    3    0  503  0.10990115057E+02 -0.16260825338E+03 -0.55769408404E+02  0.17232104808E+03  0.47000000000E+01 0.  1.
</event>
<event>
12    1  0.9749377E-001  0.7329407E+03  0.7818608E-02  0.9662500E-01
         21   -1    0    0  503  502  0.00000000000E+00  0.00000000000E+00  0.45737262232E+03  0.45737262232E+03  0.00000000000E+00 0. -1.
         21   -1    0    0  501  503 -0.00000000000E+00 -0.00000000000E+00 -0.12361965162E+04  0.12361965162E+04  0.00000000000E+00 0.  1.
          6    2    1    2  501    0  0.65532423654E+03  0.30484984676E+03 -0.25797554455E+03  0.78626440429E+03  0.17110537044E+03 0.  0.
         24    2    3    3    0    0  0.40443077293E+03  0.13099273863E+03 -0.19580920142E+03  0.47471895279E+03  0.79331539194E+02 0.  0.
         -6    2    1    2    0  502 -0.65532423654E+03 -0.30484984676E+03 -0.52084834937E+03  0.90730473426E+03  0.17185922640E+03 0.  0.
        -24    2    5    5    0    0 -0.53995025013E+03 -0.28638793846E+03 -0.37901027360E+03  0.72347837995E+03  0.78789941348E+02 0.  0.
         14    1    4    4    0    0  0.33124955301E+03  0.13750237411E+03 -0.15545396354E+03  0.39089525968E+03  0.00000000000E+00 0. -1.
        -13    1    4    4    0    0  0.73181219920E+02 -0.65096354835E+01 -0.40355237878E+02  0.83823693114E+02  0.00000000000E+00 0.  1.
          5    1    3    3  501    0  0.25089346361E+03  0.17385710813E+03 -0.62166343130E+02  0.31154545150E+03  0.47000000000E+01 0. -1.
         13    1    6    6    0    0 -0.24029975038E+03 -0.11598918569E+03 -0.12142829539E+03  0.29315915840E+03  0.00000000000E+00 0. -1.
        -14    1    6    6    0    0 -0.29965049975E+03 -0.17039875277E+03 -0.25758197820E+03  0.43031922155E+03  0.00000000000E+00 0.  1.
         -5    1    5    5    0  502 -0.11537398641E+03 -0.18461908307E+02 -0.14183807577E+03  0.18382635431E+03  0.47000000000E+01 0.  1.
</event>
<event>
12    1  0.9749377E-001  0.3284127E+03  0.7818608E-02  0.1071841E+00
         21   -1    0    0  503  502  0.00000000000E+00  0.00000000000E+00  0.77861182459E+02  0.77861182459E+02  0.00000000000E+00 0.  1.
         21   -1    0    0  501  503 -0.00000000000E+00 -0.00000000000E+00 -0.16261268763E+04  0.16261268763E+04  0.00000000000E+00 0. -1.
          6    2    1    2  501    0  0.29735318740E+03 -0.60264941735E+02 -0.95305072737E+03  0.10143439779E+04  0.16892967550E+03 0.  0.
         24    2    3    3    0    0  0.28984899328E+03 -0.91048865161E+02 -0.88447966886E+03  0.93866014251E+03  0.80475112691E+02 0.  0.
         -6    2    1    2    0  502 -0.29735318740E+03  0.60264941735E+02 -0.59521496644E+03  0.68964408085E+03  0.17110616796E+03 0.  0.
        -24    2    5    5    0    0 -0.14445857458E+03  0.10223713630E+02 -0.42193835754E+03  0.45315357294E+03  0.79645332631E+02 0.  0.
         14    1    4    4    0    0  0.24940120554E+03 -0.52866109766E+02 -0.66367905558E+03  0.71096109296E+03  0.00000000000E+00 0. -1.
        -13    1    4    4    0    0  0.40447787742E+02 -0.38182755395E+02 -0.22080061328E+03  0.22769904955E+03  0.00000000000E+00 0.  1.
          5    1    3    3  501    0  0.75041941171E+01  0.30783923426E+02 -0.68571058511E+02  0.75683835369E+02  0.47000000000E+01 0. -1.
         11    1    6    6    0    0 -0.14808240445E+03  0.67077285819E+01 -0.33815681270E+03  0.36922001856E+03  0.00000000000E+00 0. -1.
        -12    1    6    6    0    0  0.36238298734E+01  0.35159850477E+01 -0.83781544847E+02  0.83933554379E+02  0.00000000000E+00 0.  1.
         -5    1    5    5    0  502 -0.15289461282E+03  0.50041228106E+02 -0.17327660890E+03  0.23649050791E+03  0.47000000000E+01 0.  1.
</event>
<event>
12    1  0.9749377E-001  0.2149999E+03  0.7818608E-02  0.1137667E+00
         21   -1    0    0  503  502  0.00000000000E+00  0.00000000000E+00  0.12480455483E+04  0.12480455483E+04  0.00000000000E+00 0. -1.
         21   -1    0    0  501  503 -0.00000000000E+00 -0.00000000000E+00 -0.14266767535E+03  0.14266767535E+03  0.00000000000E+00 0. -1.
          6    2    1    2  501    0  0.18250995408E+03 -0.35057172030E+02 -0.34036447696E+01  0.25325091997E+03  0.17200452034E+03 0.  0.
         24    2    3    3    0    0  0.21905725737E+02 -0.28143369585E+02  0.20309689725E+02  0.90690374145E+02  0.80872432845E+02 0.  0.
         -6    2    1    2    0  502 -0.18250995408E+03  0.35057172030E+02  0.11087815177E+04  0.11374623037E+04  0.17287321832E+03 0.  0.
        -24    2    5    5    0    0 -0.17918734741E+03  0.66917074974E+02  0.10517525171E+04  0.10718841820E+04  0.78526059525E+02 0.  0.
         12    1    4    4    0    0  0.13232149447E+02 -0.13445519282E+02  0.51659575738E+02  0.54996213807E+02  0.00000000000E+00 0. -1.
        -11    1    4    4    0    0  0.86735762903E+01 -0.14697850303E+02 -0.31349886013E+02  0.35694160338E+02  0.00000000000E+00 0.  1.
          5    1    3    3  501    0  0.16060422835E+03 -0.69138024452E+01 -0.23713334495E+02  0.16256054583E+03  0.47000000000E+01 0. -1.
         11    1    6    6    0    0 -0.21994051880E+02  0.33644351386E+02  0.12492868420E+03  0.13123588242E+03  0.00000000000E+00 0. -1.
        -12    1    6    6    0    0 -0.15719329553E+03  0.33272723588E+02  0.92682383287E+03  0.94064829956E+03  0.00000000000E+00 0.  1.
         -5    1    5    5    0  502 -0.33226066768E+01 -0.31859902944E+02  0.57029000651E+02  0.65578121702E+02  0.47000000000E+01 0.  1.
</event>
<event>
12    1  0.9749377E-001  0.2845264E+03  0.7818608E-02  0.1093242E+00
         21   -1    0    0  501  502  0.00000000000E+00  0.00000000000E+00  0.32093464216E+03  0.32093464216E+03  0.00000000000E+00 0.  1.
         21   -1    0    0  502  503 -0.00000000000E+00 -0.00000000000E+00 -0.36100625485E+03  0.36100625485E+03  0.00000000000E+00 0. -1.
         -6    2    1    2    0  503 -0.23311768466E+03 -0.11946745876E+03  0.11393568372E+03  0.33310530931E+03  0.17135191409E+03 0.  0.
        -24    2    3    3    0    0 -0.95150076952E+02 -0.51099133539E+02  0.11810140723E+03  0.17899907348E+03  0.80175228871E+02 0.  0.
          6    2    1    2  501    0  0.23311768466E+03  0.11946745876E+03 -0.15400729641E+03  0.34883558769E+03  0.17132335302E+03 0.  0.
         24    2    5    5    0    0  0.12633355578E+03  0.10604025775E+03 -0.31872642868E+02  0.18597950551E+03  0.79798543396E+02 0.  0.
         12    1    6    6    0    0  0.63098758903E+02  0.19138687250E+02  0.16730763460E+02  0.68026915046E+02  0.00000000000E+00 0. -1.
        -11    1    6    6    0    0  0.63234796874E+02  0.86901570496E+02 -0.48603406328E+02  0.11795259046E+03  0.00000000000E+00 0.  1.
          5    1    5    5  501    0  0.10678412888E+03  0.13427201016E+02 -0.12213465355E+03  0.16285608218E+03  0.47000000000E+01 0. -1.
         11    1    4    4    0    0 -0.96846800692E+02 -0.67070108141E+02  0.10922746748E+03  0.16064974903E+03  0.00000000000E+00 0. -1.
        -12    1    4    4    0    0  0.16967237398E+01  0.15970974602E+02  0.88739397489E+01  0.18349324452E+02  0.00000000000E+00 0.  1.
         -5    1    3    3    0  503 -0.13796760770E+03 -0.68368325222E+02 -0.41657235050E+01  0.15410623583E+03  0.47000000000E+01 0.  1.
</event>
<event>
12    1  0.9749377E-001  0.2644653E+03  0.7818608E-02  0.1104490E+00
         21   -1    0    0  501  502  0.00000000000E+00  0.00000000000E+00  0.18255583208E+03  0.18255583208E+03  0.00000000000E+00 0. -1.
         21   -1    0    0  502  503 -0.00000000000E+00 -0.00000000000E+00 -0.43227764396E+03  0.43227764396E+03  0.00000000000E+00 0.  1.
         -6    2    1    2    0  503  0.12342679310E+03  0.18312767414E+03 -0.99489498736E+02  0.29734942364E+03  0.17247782783E+03 0.  0.
        -24    2    3    3    0    0  0.13590028254E+03  0.20035337079E+03 -0.76316994753E+02  0.26554741891E+03  0.77979407676E+02 0.  0.
          6    2    1    2  501    0 -0.12342679310E+03 -0.18312767414E+03 -0.15023231314E+03  0.31748405239E+03  0.17162883592E+03 0.  0.
         24    2    5    5    0    0 -0.13329250424E+02 -0.99060578228E+02 -0.11450256974E+03  0.17434967468E+03  0.85418402630E+02 0.  0.
         12    1    6    6    0    0 -0.20354324620E+02 -0.44513322994E+01 -0.63096660975E+02  0.66447735223E+02  0.00000000000E+00 0. -1.
        -11    1    6    6    0    0  0.70250741965E+01 -0.94609245929E+02 -0.51405908770E+02  0.10790193946E+03  0.00000000000E+00 0.  1.
          5    1    5    5  501    0 -0.11009754268E+03 -0.84067095909E+02 -0.35729743397E+02  0.14313437771E+03  0.47000000000E+01 0. -1.
         13    1    4    4    0    0 -0.77940756029E+01  0.22521977370E+01 -0.81561387106E+01  0.11504025722E+02  0.00000000000E+00 0. -1.
        -14    1    4    4    0    0  0.14369435814E+03  0.19810117306E+03 -0.68160856042E+02  0.25404339319E+03  0.00000000000E+00 0.  1.
         -5    1    3    3    0  503 -0.12473489437E+02 -0.17225696656E+02 -0.23172503983E+02  0.31802004731E+02  0.47000000000E+01 0.  1.
</event>
<event>
12    1  0.9749377E-001  0.6312321E+03  0.7818608E-02  0.9842647E-01
         21   -1    0    0  503  502  0.00000000000E+00  0.00000000000E+00  0.39650993928E+03  0.39650993928E+03  0.00000000000E+00 0. -1.
         21   -1    0    0  501  503 -0.00000000000E+00 -0.00000000000E+00 -0.10508612389E+04  0.10508612389E+04  0.00000000000E+00 0.  1.
          6    2    1    2  501    0 -0.55631676737E+03 -0.28120098651E+03 -0.33173895398E+03  0.72662146799E+03  0.17136418439E+03 0.  0.
         24    2    3    3    0    0 -0.33261508125E+03 -0.22754486575E+03 -0.16363517514E+03  0.44166113017E+03  0.76672192876E+02 0.  0.
         -6    2    1    2    0  502  0.55631676737E+03  0.28120098651E+03 -0.32261234562E+03  0.72074971017E+03  0.16382636754E+03 0.  0.
        -24    2    5    5    0    0  0.18067435558E+03  0.55121961124E+02 -0.88396612250E+02  0.22366013373E+03  0.80797530901E+02 0.  0.
         12    1    4    4    0    0 -0.13450835218E+03 -0.11544028343E+03 -0.36625889504E+02  0.18099837465E+03  0.00000000000E+00 0. -1.
        -11    1    4    4    0    0 -0.19810672907E+03 -0.11210458232E+03 -0.12700928563E+03  0.26066275552E+03  0.00000000000E+00 0.  1.
          5    1    3    3  501    0 -0.22370168612E+03 -0.53656120754E+02 -0.16810377885E+03  0.28496033782E+03  0.47000000000E+01 0. -1.
         13    1    6    6    0    0  0.17499646825E+03  0.52010308987E+02 -0.56488149345E+02  0.19110140543E+03  0.00000000000E+00 0. -1.
        -14    1    6    6    0    0  0.56778873321E+01  0.31116521372E+01 -0.31908462905E+02  0.32558728301E+02  0.00000000000E+00 0.  1.
         -5    1    5    5    0  502  0.37564241179E+03  0.22607902538E+03 -0.23421573337E+03  0.49708957645E+03  0.47000000000E+01 0.  1.
</event>
<event>
12    1  0.9749377E-001  0.2787577E+03  0.7818608E-02  0.1096369E+00
         21   -1    0    0  503  502  0.00000000000E+00  0.00000000000E+00  0.12300260013E+03  0.12300260013E+03  0.00000000000E+00 0. -1.
         21   -1    0    0  501  503 -0.00000000000E+00 -0.00000000000E+00 -0.73274596338E+03  0.73274596338E+03  0.00000000000E+00 0.  1.
          6    2    1    2  501    0 -0.69339811927E+02  0.23405812038E+03 -0.33851896089E+03  0.45155042569E+03  0.17237020284E+03 0.  0.
         24    2    3    3    0    0 -0.35708227143E+02  0.24731356446E+03 -0.30244247414E+03  0.40026306673E+03  0.79372512712E+02 0.  0.
         -6    2    1    2    0  502  0.69339811927E+02 -0.23405812038E+03 -0.27122440236E+03  0.40419813782E+03  0.17384546282E+03 0.  0.
        -24    2    5    5    0    0  0.12755650626E+02 -0.17833895938E+03 -0.25739377337E+03  0.32345305430E+03  0.80017702514E+02 0.  0.
         12    1    4    4    0    0 -0.35259966581E+02  0.79832797680E+02 -0.15129950263E+03  0.17466562434E+03  0.00000000000E+00 0. -1.
        -11    1    4    4    0    0 -0.44826056167E+00  0.16748076678E+03 -0.15114297151E+03  0.22559744240E+03  0.00000000000E+00 0.  1.
          5    1    3    3  501    0 -0.33631584785E+02 -0.13255444080E+02 -0.36076486748E+02  0.51287358959E+02  0.47000000000E+01 0. -1.
         13    1    6    6    0    0  0.33249361662E+02 -0.13133317112E+03 -0.13738171681E+03  0.19294470193E+03  0.00000000000E+00 0. -1.
        -14    1    6    6    0    0 -0.20493711036E+02 -0.47005788258E+02 -0.12001205656E+03  0.13050835238E+03  0.00000000000E+00 0.  1.
         -5    1    5    5    0  502  0.56584161301E+02 -0.55719161002E+02 -0.13830628992E+02  0.80745083511E+02  0.47000000000E+01 0.  1.
</event>
<event>
12    1  0.9749377E-001  0.2360705E+03  0.7818608E-02  0.1122439E+00
         21   -1    0    0  503  502  0.00000000000E+00  0.00000000000E+00  0.20492196911E+03  0.20492196911E+03  0.00000000000E+00 0.  1.
         21   -1    0    0  501  503 -0.00000000000E+00 -0.00000000000E+00 -0.50929256410E+03  0.50929256410E+03  0.00000000000E+00 0. -1.
          6    2    1    2  501    0 -0.13891301214E+03  0.15716490423E+03  0.41188979799E+02  0.27414384327E+03  0.17164114507E+03 0.  0.
         24    2    3    3    0    0 -0.51043883105E+02  0.14775108383E+03 -0.62434327003E+01  0.17373703271E+03  0.75562658144E+02 0.  0.
         -6    2    1    2    0  502  0.13891301214E+03 -0.15716490423E+03 -0.34555957480E+03  0.44007068994E+03  0.17393435642E+03 0.  0.
        -24    2    5    5    0    0  0.89871512722E+02 -0.40371582497E+02 -0.92729330454E+02  0.15724393887E+03  0.80125988987E+02 0.  0.
         12    1    4    4    0    0 -0.26355993810E+02  0.42115040377E+02  0.31557294755E+02  0.58857267078E+02  0.00000000000E+00 0. -1.
        -11    1    4    4    0    0 -0.24687889295E+02  0.10563604345E+03 -0.37800727455E+02  0.11487976563E+03  0.00000000000E+00 0.  1.
          5    1    3    3  501    0 -0.87869129039E+02  0.94138204018E+01  0.47432412499E+02  0.10040681057E+03  0.47000000000E+01 0. -1.
         11    1    6    6    0    0  0.55850353722E+02 -0.21747227302E+02 -0.10113273288E+03  0.11755863884E+03  0.00000000000E+00 0. -1.
        -12    1    6    6    0    0  0.34021159000E+02 -0.18624355195E+02  0.84034024212E+01  0.39685300029E+02  0.00000000000E+00 0.  1.
         -5    1    5    5    0  502  0.49041499421E+02 -0.11679332174E+03 -0.25283024434E+03  0.28282675107E+03  0.47000000000E+01 0.  1.
</event>
<event>
12    1  0.9749377E-001  0.6188754E+03  0.7818608E-02  0.9867001E-01
         21   -1    0    0  503  502  0.00000000000E+00  0.00000000000E+00  0.61947187967E+03  0.61947187967E+03  0.00000000000E+00 0.  1.
         21   -1    0    0  501  503 -0.00000000000E+00 -0.00000000000E+00 -0.92882082907E+03  0.92882082907E+03  0.00000000000E+00 0. -1.
          6    2    1    2  501    0 -0.41787019463E+03  0.43768500770E+03 -0.58719196716E+03  0.86041529432E+03  0.17127874026E+03 0.  0.
         24    2    3    3    0    0 -0.16284403268E+03  0.17774107149E+03 -0.32118429446E+03  0.40942597605E+03  0.79750933438E+02 0.  0.
         -6    2    1    2    0  502  0.41787019463E+03 -0.43768500770E+03  0.27784301777E+03  0.68787741443E+03  0.17261207729E+03 0.  0.
        -24    2    5    5    0    0  0.26095651164E+03 -0.36474418730E+03  0.21259724303E+03  0.50288723006E+03  0.81002193050E+02 0.  0.
         12    1    4    4    0    0 -0.13502656952E+03  0.11941122010E+03 -0.27930482066E+03  0.33241900789E+03  0.00000000000E+00 0. -1.
        -11    1    4    4    0    0 -0.27817463167E+02  0.58329851387E+02 -0.41879473797E+02  0.77006968161E+02  0.00000000000E+00 0.  1.
          5    1    3    3  501    0 -0.25502616195E+03  0.25994393622E+03 -0.26600767270E+03  0.45098931826E+03  0.47000000000E+01 0. -1.
         13    1    6    6    0    0  0.15467044688E+03 -0.14745865479E+03  0.10622182332E+03  0.23864215420E+03  0.00000000000E+00 0. -1.
        -14    1    6    6    0    0  0.10628606476E+03 -0.21728553251E+03  0.10637541970E+03  0.26424507586E+03  0.00000000000E+00 0.  1.
         -5    1    5    5    0  502  0.15691368298E+03 -0.72940820404E+02  0.65245774744E+02  0.18499018436E+03  0.47000000000E+01 0.  1.
</event>
<event>
12    1  0.9749377E-001  0.3834988E+03  0.7818608E-02  0.1049648E+00
         21   -1    0    0  501  502  0.00000000000E+00  0.00000000000E+00  0.10966094551E+03  0.10966094551E+03  0.00000000000E+00 0.  1.
         21   -1    0    0  502  503 -0.00000000000E+00 -0.00000000000E+00 -0.14756393888E+04  0.14756393888E+04  0.00000000000E+00 0. -1.
         -6    2    1    2    0  503  0.35608996580E+03  0.65227414338E+02 -0.75303113130E+03  0.85303633446E+03  0.17193145113E+03 0.  0.
        -24    2    3    3    0    0  0.18466871261E+03  0.95051666242E+02 -0.48344791682E+03  0.53214393571E+03  0.79485390916E+02 0.  0.
          6    2    1    2  501    0 -0.35608996580E+03 -0.65227414338E+02 -0.61294731194E+03  0.73226399980E+03  0.17161433174E+03 0.  0.
         24    2    5    5    0    0 -0.10299621890E+03 -0.24282404017E+02 -0.13508644547E+03  0.18994855995E+03  0.81450914211E+02 0.  0.
         14    1    6    6    0    0 -0.56248485529E+02 -0.35705637466E+02 -0.27475116703E+02  0.72067098658E+02  0.00000000000E+00 0. -1.
        -13    1    6    6    0    0 -0.46747733369E+02  0.11423233450E+02 -0.10761132877E+03  0.11788146129E+03  0.00000000000E+00 0.  1.
          5    1    5    5  501    0 -0.25309374690E+03 -0.40945010321E+02 -0.47786086647E+03  0.54231543985E+03  0.47000000000E+01 0. -1.
         11    1    4    4    0    0  0.21151343726E+02 -0.13866422953E+02 -0.68877454736E+02  0.73374115312E+02  0.00000000000E+00 0. -1.
        -12    1    4    4    0    0  0.16351736888E+03  0.10891808919E+03 -0.41457046208E+03  0.45876982040E+03  0.00000000000E+00 0.  1.
         -5    1    3    3    0  503  0.17142125319E+03 -0.29824251904E+02 -0.26958321448E+03  0.32089239875E+03  0.47000000000E+01 0.  1.
</event>
<event>
12    1  0.9749377E-001  0.1450415E+04  0.7818608E-02  0.8918113E-01
         21   -1    0    0  501  502  0.00000000000E+00  0.00000000000E+00  0.73932003993E+03  0.73932003993E+03  0.00000000000E+00 0.  1.
         21   -1    0    0  502  503 -0.00000000000E+00 -0.00000000000E+00 -0.31511057317E+04  0.31511057317E+04  0.00000000000E+00 0. -1.
         -6    2    1    2    0  503 -0.11765277984E+04  0.83969515833E+03 -0.62060692734E+03  0.15825514848E+04  0.17323574804E+03 0.  0.
        -24    2    3    3    0    0 -0.31711406321E+03  0.25029140771E+03 -0.13649095757E+03  0.43347398015E+03  0.77863933287E+02 0.  0.
          6    2    1    2  501    0  0.11765277984E+04 -0.83969515833E+03 -0.17911787645E+04  0.23078742869E+04  0.16928301311E+03 0.  0.
         24    2    5    5    0    0  0.75016773984E+03 -0.61135021287E+03 -0.12261737087E+04  0.15641155110E+04  0.80340819303E+02 0.  0.
         14    1    6    6    0    0  0.17472478052E+03 -0.18778430499E+03 -0.31787780690E+03  0.40845806915E+03  0.00000000000E+00 0. -1.
        -13    1    6    6    0    0  0.57544295932E+03 -0.42356590788E+03 -0.90829590181E+03  0.11556574419E+04  0.00000000000E+00 0.  1.
          5    1    5    5  501    0  0.42636005854E+03 -0.22834494546E+03 -0.56500505576E+03  0.74375877586E+03  0.47000000000E+01 0. -1.
         11    1    4    4    0    0 -0.29570815773E+03  0.23205774605E+03 -0.14677878400E+03  0.40353206004E+03  0.00000000000E+00 0. -1.
        -12    1    4    4    0    0 -0.21405905482E+02  0.18233661657E+02  0.10287826428E+02  0.29941920104E+02  0.00000000000E+00 0.  1.
         -5    1    3    3    0  503 -0.85941373517E+03  0.58940375063E+03 -0.48411596977E+03  0.11490775046E+04  0.47000000000E+01 0.  1.
</event>
<event>
12    1  0.9749377E-001  0.3799091E+03  0.7818608E-02  0.1050967E+00
         21   -1    0    0  503  502  0.00000000000E+00  0.00000000000E+00  0.34213958724E+03  0.34213958724E+03  0.00000000000E+00 0. -1.
         21   -1    0    0  501  503 -0.00000000000E+00 -0.00000000000E+00 -0.51202450092E+03  0.51202450092E+03  0.00000000000E+00 0.  1.
          6    2    1    2  501    0  0.24365839426E+03 -0.27319379705E+03 -0.18932963413E+03  0.44955066407E+03  0.17957122645E+03 0.  0.
         24    2    3    3    0    0  0.21956627370E+03 -0.26183513371E+03 -0.10550411988E+03  0.36146969936E+03  0.52557001874E+02 0.  0.
         -6    2    1    2    0  502 -0.24365839426E+03  0.27319379705E+03  0.19444720453E+02  0.40461342408E+03  0.17125904926E+03 0.  0.
        -24    2    5    5    0    0 -0.19462190880E+03  0.11931317683E+03  0.28263826390E+02  0.24279967679E+03  0.77714333384E+02 0.  0.
         12    1    4    4    0    0  0.19611836276E+03 -0.23374938670E+03 -0.11055429785E+03  0.32453573110E+03  0.00000000000E+00 0. -1.
        -11    1    4    4    0    0  0.23447910946E+02 -0.28085747017E+02  0.50501779669E+01  0.36933968251E+02  0.00000000000E+00 0.  1.
          5    1    3    3  501    0  0.24092120560E+02 -0.11358663333E+02 -0.83825514253E+02  0.88080964718E+02  0.47000000000E+01 0. -1.
         11    1    6    6    0    0 -0.40557259927E+01  0.75333227434E+01  0.19956566555E+02  0.21713231302E+02  0.00000000000E+00 0. -1.
        -12    1    6    6    0    0 -0.19056618281E+03  0.11177985409E+03  0.83072598345E+01  0.22108644549E+03  0.00000000000E+00 0.  1.
         -5    1    5    5    0  502 -0.49036485459E+02  0.15388062021E+03 -0.88191059369E+01  0.16181374729E+03  0.47000000000E+01 0.  1.
</event>
<event>
12    1  0.9749377E-001  0.3409942E+03  0.7818608E-02  0.1066373E+00
         21   -1    0    0  503  502  0.00000000000E+00  0.00000000000E+00  0.22069196293E+03  0.22069196293E+03  0.00000000000E+00 0. -1.
         21   -1    0    0  501  503 -0.00000000000E+00 -0.00000000000E+00 -0.89209108337E+03  0.89209108337E+03  0.00000000000E+00 0.  1.
          6    2    1    2  501    0 -0.21349744068E+03 -0.24910765976E+03 -0.31907669788E+02  0.37331378286E+03  0.17524068521E+03 0.  0.
         24    2    3    3    0    0 -0.16291540569E+03 -0.23979212468E+03 -0.72519172913E+02  0.30761214176E+03  0.72969218485E+02 0.  0.
         -6    2    1    2    0  502  0.21349744068E+03  0.24910765976E+03 -0.63949145065E+03  0.73946926344E+03  0.17386688240E+03 0.  0.
        -24    2    5    5    0    0  0.10567972458E+03  0.89286201872E+02 -0.17078948431E+03  0.23264465714E+03  0.76251285311E+02 0.  0.
         14    1    4    4    0    0 -0.15059334674E+03 -0.18032089950E+03 -0.75604292225E+02  0.24679949733E+03  0.00000000000E+00 0. -1.
        -13    1    4    4    0    0 -0.12322058950E+02 -0.59471225177E+02  0.30851193112E+01  0.60812644425E+02  0.00000000000E+00 0.  1.
          5    1    3    3  501    0 -0.50582034983E+02 -0.93155350784E+01  0.40611503126E+02  0.65701641098E+02  0.47000000000E+01 0. -1.
         13    1    6    6    0    0  0.71787957118E+02  0.40502059496E+02 -0.14724849213E+03  0.16874846976E+03  0.00000000000E+00 0. -1.
        -14    1    6    6    0    0  0.33891767461E+02  0.48784142376E+02 -0.23540992181E+02  0.63896187381E+02  0.00000000000E+00 0.  1.
         -5    1    5    5    0  502  0.10781771610E+03  0.15982145789E+03 -0.46870196634E+03  0.50682460630E+03  0.47000000000E+01 0.  1.
</event>
<event>
12    1  0.9749377E-001  0.2039538E+03  0.7818608E-02  0.1146445E+00
         21   -1    0    0  503  502  0.00000000000E+00  0.00000000000E+00  0.15773425052E+04  0.15773425052E+04  0.00000000000E+00 0. -1.
         21   -1    0    0  501  503 -0.00000000000E+00 -0.00000000000E+00 -0.39042179826E+02  0.39042179826E+02  0.00000000000E+00 0. -1.
          6    2    1    2  501    0 -0.14678430454E+03 -0.27613869865E+02  0.10826532513E+04  0.11066241922E+04  0.17369767547E+03 0.  0.
         24    2    3    3    0    0 -0.10570400057E+03 -0.17844643047E+01  0.10095007782E+04  0.10187144437E+04  0.86664736890E+02 0.  0.
         -6    2    1    2    0  502  0.14678430454E+03  0.27613869865E+02  0.45564707409E+03  0.50976049278E+03  0.17301256027E+03 0.  0.
        -24    2    5    5    0    0  0.23368136315E+01 -0.14218364916E+02  0.15501613196E+03  0.17358186934E+03  0.76766148769E+02 0.  0.
         12    1    4    4    0    0 -0.33767476924E+02 -0.39361899102E+02  0.51414825810E+03  0.51675722821E+03  0.00000000000E+00 0. -1.
        -11    1    4    4    0    0 -0.71936523646E+02  0.37577434798E+02  0.49535252006E+03  0.50195721548E+03  0.00000000000E+00 0.  1.
          5    1    3    3  501    0 -0.41080303972E+02 -0.25829405561E+02  0.73152473112E+02  0.87909748540E+02  0.47000000000E+01 0. -1.
         13    1    6    6    0    0 -0.24100826031E+02  0.20775363356E+02  0.44711095521E+02  0.54877569194E+02  0.00000000000E+00 0. -1.
        -14    1    6    6    0    0  0.26437639663E+02 -0.34993728271E+02  0.11030503644E+03  0.11870430015E+03  0.00000000000E+00 0.  1.
         -5    1    5    5    0  502  0.14444749091E+03  0.41832234781E+02  0.30063094213E+03  0.33617862344E+03  0.47000000000E+01 0.  1.
</event>
<event>
12    1  0.1282914E+000  0.1065579E+04  0.7818608E-02  0.9239406E-01
         21   -1    0    0  503  502  0.00000000000E+00  0.00000000000E+00  0.12567222385E+04  0.12567222385E+04  0.00000000000E+00 0.  1.
         21   -1    0    0  501  503 -0.00000000000E+00 -0.00000000000E+00 -0.92144793056E+03  0.92144793056E+03  0.00000000000E+00 0. -1.
          6    2    1    2  501    0  0.59262920023E+03 -0.87252457694E+03  0.29626289218E+03  0.11090949801E+04  0.17265997595E+03 0.  0.
         24    2    3    3    0    0  0.45065281417E+03 -0.75450231738E+03  0.26887372823E+03  0.92238985364E+03  0.78410806060E+02 0.  0.
         -6    2    1    2    0  502 -0.59262920023E+03  0.87252457694E+03  0.39011415764E+02  0.10690751890E+04  0.16997459447E+03 0.  0.
        -24    2    5    5    0    0 -0.50976172617E+03  0.65233502775E+03  0.52264030659E+02  0.83338858002E+03  0.80043678844E+02 0.  0.
         14    1    4    4    0    0  0.89013772794E+02 -0.12334658389E+03  0.74895831133E+02  0.16955004284E+03  0.00000000000E+00 0. -1.
        -13    1    4    4    0    0  0.36163904138E+03 -0.63115573349E+03  0.19397789710E+03  0.75283981080E+03  0.00000000000E+00 0.  1.
          5    1    3    3  501    0  0.14197638605E+03 -0.11802225955E+03  0.27389163950E+02  0.18670512647E+03  0.47000000000E+01 0. -1.
         11    1    6    6    0    0 -0.17396654254E+03  0.28533602281E+03  0.14035727194E+02  0.33448169677E+03  0.00000000000E+00 0. -1.
        -12    1    6    6    0    0 -0.33579518362E+03  0.36699900493E+03  0.38228303465E+02  0.49890688325E+03  0.00000000000E+00 0.  1.
         -5    1    5    5    0  502 -0.82867474059E+02  0.22018954919E+03 -0.13252614895E+02  0.23568660893E+03  0.47000000000E+01 0.  1.
</event>
<event>
12    1  0.9749377E-001  0.2188144E+03  0.7818608E-02  0.1134770E+00
         21   -1    0    0  503  502  0.00000000000E+00  0.00000000000E+00  0.28236014599E+03  0.28236014599E+03  0.00000000000E+00 0.  1.
         21   -1    0    0  501  503 -0.00000000000E+00 -0.00000000000E+00 -0.27556901824E+03  0.27556901824E+03  0.00000000000E+00 0. -1.
          6    2    1    2  501    0 -0.12685592360E+03  0.14159654112E+03 -0.10733431330E+03  0.27764295171E+03  0.17153118670E+03 0.  0.
         24    2    3    3    0    0 -0.12541746384E+03  0.11683014133E+03 -0.23581707909E+02  0.19016705426E+03  0.78921412918E+02 0.  0.
         -6    2    1    2    0  502  0.12685592360E+03 -0.14159654112E+03  0.11412544106E+03  0.28028621252E+03  0.17144602306E+03 0.  0.
        -24    2    5    5    0    0  0.53448768849E+01 -0.93596650110E+02  0.66639221510E+02  0.14119647509E+03  0.81894799067E+02 0.  0.
         12    1    4    4    0    0 -0.10090995304E+03  0.88039446473E+02 -0.51172827964E+02  0.14336115610E+03  0.00000000000E+00 0. -1.
        -11    1    4    4    0    0 -0.24507510804E+02  0.28790694859E+02  0.27591120054E+02  0.46805898155E+02  0.00000000000E+00 0.  1.
          5    1    3    3  501    0 -0.14384597634E+01  0.24766399785E+02 -0.83752605394E+02  0.87475897452E+02  0.47000000000E+01 0. -1.
         13    1    6    6    0    0  0.19833294490E+02 -0.93346392356E+02  0.27277278475E+02  0.99251994726E+02  0.00000000000E+00 0. -1.
        -14    1    6    6    0    0 -0.14488417605E+02 -0.25025775454E+00  0.39361943036E+02  0.41944480366E+02  0.00000000000E+00 0.  1.
         -5    1    5    5    0  502  0.12151104672E+03 -0.47999891007E+02  0.47486219550E+02  0.13908973743E+03  0.47000000000E+01 0.  1.
</event>
<event>
12    1  0.9749377E-001  0.2341411E+03  0.7818608E-02  0.1123759E+00
         21   -1    0    0  501  502  0.00000000000E+00  0.00000000000E+00  0.48869144617E+03  0.48869144617E+03  0.00000000000E+00 0. -1.
         21   -1    0    0  502  503 -0.00000000000E+00 -0.00000000000E+00 -0.15076704983E+03  0.15076704983E+03  0.00000000000E+00 0.  1.
         -6    2    1    2    0  503 -0.18964761497E+03  0.42047706748E+02  0.27507765537E+03  0.37779443291E+03  0.17125037093E+03 0.  0.
        -24    2    3    3    0    0 -0.27390434582E+02  0.42425518338E+02  0.10994633625E+03  0.14623887179E+03  0.82142864904E+02 0.  0.
          6    2    1    2  501    0  0.18964761497E+03 -0.42047706748E+02  0.62846740971E+02  0.26166406310E+03  0.16365861284E+03 0.  0.
         24    2    5    5    0    0  0.17384063477E+03 -0.12670773199E+02  0.23060936500E+01  0.19238112995E+03  0.81388367117E+02 0.  0.
         14    1    6    6    0    0  0.16674563056E+03  0.97129217240E+01  0.10883078516E+02  0.16738245893E+03  0.00000000000E+00 0. -1.
        -13    1    6    6    0    0  0.70950042033E+01 -0.22383694923E+02 -0.85769848660E+01  0.24998671014E+02  0.00000000000E+00 0.  1.
          5    1    5    5  501    0  0.15806980208E+02 -0.29376933549E+02  0.60540647321E+02  0.69282933151E+02  0.47000000000E+01 0. -1.
         13    1    4    4    0    0 -0.28612213366E+02 -0.92482201183E+01  0.82300749936E+02  0.87621925162E+02  0.00000000000E+00 0. -1.
        -14    1    4    4    0    0  0.12217787842E+01  0.51673738456E+02  0.27645586318E+02  0.58616946631E+02  0.00000000000E+00 0.  1.
         -5    1    3    3    0  503 -0.16225718039E+03 -0.37781158996E+00  0.16513131912E+03  0.23155556111E+03  0.47000000000E+01 0.  1.
</event>
<event>
12    1  0.9749377E-001  0.2837543E+03  0.7818608E-02  0.1093656E+00
         21   -1    0    0  501  502  0.00000000000E+00  0.00000000000E+00  0.49899294708E+03  0.49899294708E+03  0.00000000000E+00 0. -1.
         21   -1    0    0  502  503 -0.00000000000E+00 -0.00000000000E+00 -0.23010891579E+03  0.23010891579E+03  0.00000000000E+00 0.  1.
         -6    2    1    2    0  503 -0.25538999543E+02 -0.26124073151E+03 -0.12964382248E+01  0.31365485120E+03  0.17169369421E+03 0.  0.
        -24    2    3    3    0    0 -0.25407970163E+02 -0.25732283938E+03 -0.40767693888E+02  0.27371192853E+03  0.79972534940E+02 0.  0.
          6    2    1    2  501    0  0.25538999543E+02  0.26124073151E+03  0.27018046951E+03  0.41544701167E+03  0.17521350719E+03 0.  0.
         24    2    5    5    0    0 -0.43582431221E+02  0.70351473933E+02  0.29460751534E+02  0.10051121905E+03  0.48844765107E+02 0.  0.
         12    1    6    6    0    0 -0.86600569798E+01 -0.40022241066E+01 -0.57472667756E+01  0.11137569757E+02  0.00000000000E+00 0. -1.
        -11    1    6    6    0    0 -0.34922374242E+02  0.74353698039E+02  0.35208018309E+02  0.89373649294E+02  0.00000000000E+00 0.  1.
          5    1    5    5  501    0  0.69121430764E+02  0.19088925758E+03  0.24071971798E+03  0.31493579262E+03  0.47000000000E+01 0. -1.
         13    1    4    4    0    0  0.16044633792E+02 -0.16057638232E+03 -0.15307152404E+01  0.16138323309E+03  0.00000000000E+00 0. -1.
        -14    1    4    4    0    0 -0.41452603955E+02 -0.96746457057E+02 -0.39236978648E+02  0.11232869545E+03  0.00000000000E+00 0.  1.
         -5    1    3    3    0  503 -0.13102938023E+00 -0.39178921342E+01  0.39471255664E+02  0.39942922666E+02  0.47000000000E+01 0.  1.
</event>
<event>
12    1  0.9749377E-001  0.3631351E+03  0.7818608E-02  0.1057349E+00
         21   -1    0    0  503  502  0.00000000000E+00  0.00000000000E+00  0.90772648895E+02  0.90772648895E+02  0.00000000000E+00 0.  1.
         21   -1    0    0  501  503 -0.00000000000E+00 -0.00000000000E+00 -0.15594568370E+04  0.15594568370E+04  0.00000000000E+00 0. -1.
          6    2    1    2  501    0 -0.27423327541E+03 -0.19047750346E+03 -0.75406839168E+03  0.84286515067E+03  0.17411764478E+03 0.  0.
         24    2    3    3    0    0 -0.13133406438E+03 -0.15835516505E+03 -0.35782340894E+03  0.42039123967E+03  0.79788518202E+02 0.  0.
         -6    2    1    2    0  502  0.27423327541E+03  0.19047750346E+03 -0.71461579641E+03  0.80736433521E+03  0.17226684132E+03 0.  0.
        -24    2    5    5    0    0  0.14786918675E+03  0.17899683729E+03 -0.51922183216E+03  0.57433948704E+03  0.79808340602E+02 0.  0.
         12    1    4    4    0    0 -0.11785329445E+03 -0.11865076704E+03 -0.22009911689E+03  0.27642544165E+03  0.00000000000E+00 0. -1.
        -11    1    4    4    0    0 -0.13480769932E+02 -0.39704398003E+02 -0.13772429205E+03  0.14396579802E+03  0.00000000000E+00 0.  1.
          5    1    3    3  501    0 -0.14289921103E+03 -0.32122338415E+02 -0.39624498274E+03  0.42247391101E+03  0.47000000000E+01 0. -1.
         13    1    6    6    0    0 -0.70207810509E+01  0.21823361194E+02 -0.73361448303E+02  0.76859954186E+02  0.00000000000E+00 0. -1.
        -14    1    6    6    0    0  0.15488996780E+03  0.15717347610E+03 -0.44586038386E+03  0.49747953286E+03  0.00000000000E+00 0.  1.
         -5    1    5    5    0  502  0.12636408866E+03  0.11480666166E+02 -0.19539396425E+03  0.23302484817E+03  0.47000000000E+01 0.  1.
</event>
<event>
12    1  0.9749377E-001  0.7762295E+03  0.7818608E-02  0.9595076E-01
         21   -1    0    0  503  502  0.00000000000E+00  0.00000000000E+00  0.17715458358E+04  0.17715458358E+04  0.00000000000E+00 0. -1.
         21   -1    0    0  501  503 -0.00000000000E+00 -0.00000000000E+00 -0.76234800723E+03  0.76234800723E+03  0.00000000000E+00 0.  1.
          6    2    1    2  501    0 -0.39369992429E+03 -0.66207144711E+03  0.14341273823E+04  0.16375776944E+04  0.17776705258E+03 0.  0.
         24    2    3    3    0    0 -0.25578792468E+03 -0.53256946256E+03  0.99183587198E+03  0.11565014491E+04  0.68552972411E+02 0.  0.
         -6    2    1    2    0  502  0.39369992429E+03  0.66207144711E+03 -0.42492955374E+03  0.89631614865E+03  0.17169531511E+03 0.  0.
        -24    2    5    5    0    0  0.14787687330E+03  0.28149082707E+03 -0.23519604758E+03  0.40510186333E+03  0.87668030050E+02 0.  0.
         12    1    4    4    0    0 -0.23726032565E+03 -0.51247084005E+03  0.91831939984E+03  0.10780674117E+04  0.00000000000E+00 0. -1.
        -11    1    4    4    0    0 -0.18527599034E+02 -0.20098622507E+02  0.73516472140E+02  0.78434037437E+02  0.00000000000E+00 0.  1.
          5    1    3    3  501    0 -0.13791199961E+03 -0.12950198455E+03  0.44229151031E+03  0.48107624524E+03  0.47000000000E+01 0. -1.
         13    1    6    6    0    0  0.63301163443E+02  0.11248550218E+03 -0.44256776381E+02  0.13645031238E+03  0.00000000000E+00 0. -1.
        -14    1    6    6    0    0  0.84575709854E+02  0.16900532489E+03 -0.19093927120E+03  0.26865155095E+03  0.00000000000E+00 0.  1.
         -5    1    5    5    0  502  0.24582305100E+03  0.38058062004E+03 -0.18973350616E+03  0.49121428533E+03  0.47000000000E+01 0.  1.
</event>
<event>
12    1  0.9749377E-001  0.4589324E+03  0.7818608E-02  0.1025091E+00
         21   -1    0    0  501  502  0.00000000000E+00  0.00000000000E+00  0.12975525699E+04  0.12975525699E+04  0.00000000000E+00 0. -1.
         21   -1    0    0  502  503 -0.00000000000E+00 -0.00000000000E+00 -0.19319503592E+03  0.19319503592E+03  0.00000000000E+00 0.  1.
         -6    2    1    2    0  503 -0.38589902509E+03  0.23244884603E+03  0.75918428701E+03  0.89762158327E+03  0.16252138789E+03 0.  0.
        -24    2    3    3    0    0 -0.12846047159E+03  0.80228312387E+02  0.36790373006E+03  0.40510938653E+03  0.76300626428E+02 0.  0.
          6    2    1    2  501    0  0.38589902509E+03 -0.23244884603E+03  0.34517324696E+03  0.59312602254E+03  0.17234669889E+03 0.  0.
         24    2    5    5    0    0  0.96238757404E+02 -0.62686759414E+02  0.14899319595E+03  0.20424179923E+03  0.79524913591E+02 0.  0.
         12    1    6    6    0    0  0.69628572513E+02 -0.71757408936E+02  0.14457710759E+03  0.17578340049E+03  0.00000000000E+00 0. -1.
        -11    1    6    6    0    0  0.26610184891E+02  0.90706495223E+01  0.44160883582E+01  0.28458398744E+02  0.00000000000E+00 0.  1.
          5    1    5    5  501    0  0.28966026769E+03 -0.16976208661E+03  0.19618005101E+03  0.38888422331E+03  0.47000000000E+01 0. -1.
         11    1    4    4    0    0 -0.72241300470E+01  0.16280047544E+02  0.12448266568E+03  0.12575039585E+03  0.00000000000E+00 0. -1.
        -12    1    4    4    0    0 -0.12123634154E+03  0.63948264843E+02  0.24342106438E+03  0.27935899068E+03  0.00000000000E+00 0.  1.
         -5    1    3    3    0  503 -0.25743855350E+03  0.15222053364E+03  0.39128055695E+03  0.49251219674E+03  0.47000000000E+01 0.  1.
</event>
<event>
12    1  0.9749377E-001  0.3679833E+03  0.7818608E-02  0.1055467E+00
         21   -1    0    0  503  502  0.00000000000E+00  0.00000000000E+00  0.94017087830E+03  0.94017087830E+03  0.00000000000E+00 0.  1.
         21   -1    0    0  501  503 -0.00000000000E+00 -0.00000000000E+00 -0.15926535327E+03  0.15926535327E+03  0.00000000000E+00 0. -1.
          6    2    1    2  501    0 -0.33856961661E+03  0.29897479626E+01  0.28439832433E+03  0.47429022890E+03  0.17155317096E+03 0.  0.
         24    2    3    3    0    0 -0.10253008407E+03  0.48603525114E+02  0.11701731892E+03  0.18131622228E+03  0.79421651587E+02 0.  0.
         -6    2    1    2    0  502  0.33856961661E+03 -0.29897479626E+01  0.49650720069E+03  0.62514600267E+03  0.17219117408E+03 0.  0.
        -24    2    5    5    0    0  0.33376771196E+03 -0.21535792969E+02  0.40291208352E+03  0.52949481328E+03  0.78497989222E+02 0.  0.
         12    1    4    4    0    0  0.56801588383E+01 -0.12430832116E+02  0.17067406952E+02  0.21865181718E+02  0.00000000000E+00 0. -1.
        -11    1    4    4    0    0 -0.10821024291E+03  0.61034357230E+02  0.99949911968E+02  0.15945104056E+03  0.00000000000E+00 0.  1.
          5    1    3    3  501    0 -0.23603953253E+03 -0.45613777151E+02  0.16738100541E+03  0.29297400662E+03  0.47000000000E+01 0. -1.
         13    1    6    6    0    0  0.23153021361E+02 -0.14246091935E+02  0.10904538507E+02  0.29290313990E+02  0.00000000000E+00 0. -1.
        -14    1    6    6    0    0  0.31061469060E+03 -0.72897010339E+01  0.39200754501E+03  0.50020449929E+03  0.00000000000E+00 0.  1.
         -5    1    5    5    0  502  0.48019046439E+01  0.18546045007E+02  0.93595117173E+02  0.95651189393E+02  0.47000000000E+01 0.  1.
</event>
<event>
12    1  0.9749377E-001  0.1757929E+03  0.7818608E-02  0.1171938E+00
         21   -1    0    0  501  502  0.00000000000E+00  0.00000000000E+00  0.13190910837E+03  0.13190910837E+03  0.00000000000E+00 0. -1.
         21   -1    0    0  502  503 -0.00000000000E+00 -0.00000000000E+00 -0.32400143037E+03  0.32400143037E+03  0.00000000000E+00 0. -1.
         -6    2    1    2    0  503  0.82078758140E+02  0.81578237771E+02 -0.98692082549E+02  0.22812598116E+03  0.17002765865E+03 0.  0.
        -24    2    3    3    0    0  0.64035975292E+02  0.37409835326E+02 -0.13091350770E+03  0.17036180518E+03  0.79904294342E+02 0.  0.
          6    2    1    2  501    0 -0.82078758140E+02 -0.81578237771E+02 -0.93400239452E+02  0.22778455758E+03  0.17254062863E+03 0.  0.
         24    2    5    5    0    0 -0.68347688856E+02  0.89705652244E+01 -0.85243835568E+02  0.13571803320E+03  0.80006221137E+02 0.  0.
         14    1    6    6    0    0 -0.71498816941E+02 -0.21707145693E+02 -0.62159567555E+02  0.97196156492E+02  0.00000000000E+00 0. -1.
        -13    1    6    6    0    0  0.31511280853E+01  0.30677710917E+02 -0.23084268013E+02  0.38521876707E+02  0.00000000000E+00 0.  1.
          5    1    5    5  501    0 -0.13731069285E+02 -0.90548802995E+02 -0.81564038841E+01  0.92066524383E+02  0.47000000000E+01 0. -1.
         11    1    4    4    0    0 -0.17619733722E+02  0.35134140221E+01 -0.99661663146E+01  0.20545645902E+02  0.00000000000E+00 0. -1.
        -12    1    4    4    0    0  0.81655709014E+02  0.33896421304E+02 -0.12094734139E+03  0.14981615928E+03  0.00000000000E+00 0.  1.
         -5    1    3    3    0  503  0.18042782849E+02  0.44168402445E+02  0.32221425154E+02  0.57764175978E+02  0.47000000000E+01 0.  1.
</event>
<event>
12    1  0.9749377E-001  0.3184424E+03  0.7818608E-02  0.1076368E+00
         21   -1    0    0  501  502  0.00000000000E+00  0.00000000000E+00  0.48111911398E+03  0.48111911398E+03  0.00000000000E+00 0. -1.
         21   -1    0    0  502  503 -0.00000000000E+00 -0.00000000000E+00 -0.83220956220E+03  0.83220956220E+03  0.00000000000E+00 0.  1.
         -6    2    1    2    0  503  0.18616274643E+03  0.21404493186E+03  0.38339812389E+03  0.50745101427E+03  0.17332227054E+03 0.  0.
        -24    2    3    3    0    0  0.27899294870E+02  0.99040790615E+02  0.20218670043E+03  0.24074341670E+03  0.80563527709E+02 0.  0.
          6    2    1    2  501    0 -0.18616274643E+03 -0.21404493186E+03 -0.73448857211E+03  0.80587766191E+03  0.17173684052E+03 0.  0.
         24    2    5    5    0    0 -0.16546208782E+03 -0.97581001079E+02 -0.39569397129E+03  0.44699573706E+03  0.79572079006E+02 0.  0.
         14    1    6    6    0    0 -0.24074942977E+01  0.65009055444E+01 -0.53190387920E+02  0.53640238336E+02  0.00000000000E+00 0. -1.
        -13    1    6    6    0    0 -0.16305459352E+03 -0.10408190662E+03 -0.34250358337E+03  0.39335549873E+03  0.00000000000E+00 0.  1.
          5    1    5    5  501    0 -0.20700658616E+02 -0.11646393078E+03 -0.33879460082E+03  0.35888192485E+03  0.47000000000E+01 0. -1.
         13    1    4    4    0    0 -0.22031699881E+02  0.29028568320E+02  0.26239575495E+02  0.44906223405E+02  0.00000000000E+00 0. -1.
        -14    1    4    4    0    0  0.49930994751E+02  0.70012222295E+02  0.17594712493E+03  0.19583719330E+03  0.00000000000E+00 0.  1.
         -5    1    3    3    0  503  0.15826345156E+03  0.11500414124E+03  0.18121142347E+03  0.26670759756E+03  0.47000000000E+01 0.  1.
</event>
<event>
12    1  0.9749377E-001  0.2523299E+03  0.7818608E-02  0.1111841E+00
         21   -1    0    0  501  502  0.00000000000E+00  0.00000000000E+00  0.26676652464E+03  0.26676652464E+03  0.00000000000E+00 0.  1.
         21   -1    0    0  502  503 -0.00000000000E+00 -0.00000000000E+00 -0.41573859225E+03  0.41573859225E+03  0.00000000000E+00 0. -1.
         -6    2    1    2    0  503  0.21174267615E+03  0.56916610015E+01  0.12214080769E+03  0.29809475899E+03  0.17051320338E+03 0.  0.
        -24    2    3    3    0    0  0.91512434837E+02  0.11502182523E+02 -0.68627286550E+01  0.12159242055E+03  0.78935377096E+02 0.  0.
          6    2    1    2  501    0 -0.21174267615E+03 -0.56916610015E+01 -0.27111287530E+03  0.38441035789E+03  0.17146946140E+03 0.  0.
         24    2    5    5    0    0 -0.15896262932E+03 -0.67873439030E+02 -0.19660115632E+03  0.27383733619E+03  0.80367597832E+02 0.  0.
         14    1    6    6    0    0 -0.91643741187E+02  0.98821680639E+00 -0.11875502825E+03  0.15000769516E+03  0.00000000000E+00 0. -1.
        -13    1    6    6    0    0 -0.67318888136E+02 -0.68861655836E+02 -0.77846128065E+02  0.12382964104E+03  0.00000000000E+00 0.  1.
          5    1    5    5  501    0 -0.52780046832E+02  0.62181778029E+02 -0.74511718981E+02  0.11057302170E+03  0.47000000000E+01 0. -1.
         11    1    4    4    0    0  0.34638755487E+01 -0.20557590681E+02 -0.17589955178E+02  0.27276720690E+02  0.00000000000E+00 0. -1.
        -12    1    4    4    0    0  0.88048559289E+02  0.32059773204E+02  0.10727226523E+02  0.94315699857E+02  0.00000000000E+00 0.  1.
         -5    1    3    3    0  503  0.12023024132E+03 -0.58105215216E+01  0.12900353634E+03  0.17650233845E+03  0.47000000000E+01 0.  1.
</event>
<event>
12    1  0.9749377E-001  0.4137377E+03  0.7818608E-02  0.1039124E+00
         21   -1    0    0  501  502  0.00000000000E+00  0.00000000000E+00  0.10193600152E+03  0.10193600152E+03  0.00000000000E+00 0. -1.
         21   -1    0    0  502  503 -0.00000000000E+00 -0.00000000000E+00 -0.19004577813E+04  0.19004577813E+04  0.00000000000E+00 0.  1.
         -6    2    1    2    0  503  0.36688613161E+03 -0.15952395361E+03 -0.10494166311E+04  0.11362271179E+04  0.17228892160E+03 0.  0.
        -24    2    3    3    0    0  0.35022556390E+03 -0.16897984161E+03 -0.10420153172E+04  0.11151591854E+04  0.81067594790E+02 0.  0.
          6    2    1    2  501    0 -0.36688613161E+03  0.15952395361E+03 -0.74910514870E+03  0.86616666493E+03  0.17039026467E+03 0.  0.
         24    2    5    5    0    0 -0.36891277971E+03  0.14275438916E+03 -0.64715854691E+03  0.76272332193E+03  0.80356868582E+02 0.  0.
         14    1    6    6    0    0 -0.12879701144E+03  0.85202217762E+02 -0.28946898547E+03  0.32808593633E+03  0.00000000000E+00 0. -1.
        -13    1    6    6    0    0 -0.24011576827E+03  0.57552171399E+02 -0.35768956144E+03  0.43463738561E+03  0.00000000000E+00 0.  1.
          5    1    5    5  501    0  0.20266480989E+01  0.16769564451E+02 -0.10194660179E+03  0.10344334300E+03  0.47000000000E+01 0. -1.
         13    1    4    4    0    0  0.54264958242E+01 -0.22029849380E+01 -0.10291598283E+01  0.59463576683E+01  0.00000000000E+00 0. -1.
        -14    1    4    4    0    0  0.34479906807E+03 -0.16677685667E+03 -0.10409861574E+04  0.11092128277E+04  0.00000000000E+00 0.  1.
         -5    1    3    3    0  503  0.16660567714E+02  0.94558879939E+01 -0.74013138790E+01  0.21067932538E+02  0.47000000000E+01 0.  1.
</event>
<event>
12    1  0.9749377E-001  0.4037655E+03  0.7818608E-02  0.1042484E+00
         21   -1    0    0  503  502  0.00000000000E+00  0.00000000000E+00  0.44857147829E+03  0.44857147829E+03  0.00000000000E+00 0. -1.
         21   -1    0    0  501  503 -0.00000000000E+00 -0.00000000000E+00 -0.46407144136E+03  0.46407144136E+03  0.00000000000E+00 0.  1.
          6    2    1    2  501    0 -0.12850078305E+03  0.36832559124E+03 -0.17171390954E+03  0.46015731897E+03  0.17344422465E+03 0.  0.
         24    2    3    3    0    0 -0.73808182460E+02  0.25065941046E+03 -0.43079644414E+02  0.27738567230E+03  0.82517680458E+02 0.  0.
         -6    2    1    2    0  502  0.12850078305E+03 -0.36832559124E+03  0.15621394648E+03  0.45248560068E+03  0.16782201684E+03 0.  0.
        -24    2    5    5    0    0  0.65400801893E+02 -0.26311316562E+03  0.42832982367E+02  0.28536709437E+03  0.78063508504E+02 0.  0.
         12    1    4    4    0    0 -0.58083340014E+02  0.63495350428E+02 -0.17693287977E+02  0.87854347375E+02  0.00000000000E+00 0. -1.
        -11    1    4    4    0    0 -0.15724842445E+02  0.18716406003E+03 -0.25386356437E+02  0.18953132493E+03  0.00000000000E+00 0.  1.
          5    1    3    3  501    0 -0.54692600595E+02  0.11766618079E+03 -0.12863426513E+03  0.18277164667E+03  0.47000000000E+01 0. -1.
         11    1    6    6    0    0 -0.15593637910E+02 -0.68335120996E+02  0.21650494246E+02  0.73359349819E+02  0.00000000000E+00 0. -1.
        -12    1    6    6    0    0  0.80994439803E+02 -0.19477804463E+03  0.21182488121E+02  0.21200774455E+03  0.00000000000E+00 0.  1.
         -5    1    5    5    0  502  0.63099981162E+02 -0.10521242562E+03  0.11338096411E+03  0.16711850631E+03  0.47000000000E+01 0.  1.
</event>
<event>
12    1  0.9749377E-001  0.5325819E+03  0.7818608E-02  0.1005608E+00
         21   -1    0    0  501  502  0.00000000000E+00  0.00000000000E+00  0.26069078411E+03  0.26069078411E+03  0.00000000000E+00 0. -1.
         21   -1    0    0  502  503 -0.00000000000E+00 -0.00000000000E+00 -0.18603313035E+04  0.18603313035E+04  0.00000000000E+00 0.  1.
         -6    2    1    2    0  503 -0.88745054300E+02  0.51335638479E+03 -0.14660615762E+03  0.56786655662E+03  0.17195522153E+03 0.  0.
        -24    2    3    3    0    0 -0.14024074179E+02  0.97073736144E+02 -0.33148849382E+02  0.12995204530E+03  0.78541090882E+02 0.  0.
          6    2    1    2  501    0  0.88745054300E+02 -0.51335638479E+03 -0.14530343618E+04  0.15531555310E+04  0.17196739369E+03 0.  0.
         24    2    5    5    0    0  0.88082450167E+01 -0.17820093025E+03 -0.40341488307E+03  0.44841926733E+03  0.80641891752E+02 0.  0.
         14    1    6    6    0    0 -0.33378371099E+02 -0.11546977050E+03 -0.24661428942E+03  0.27434648039E+03  0.00000000000E+00 0. -1.
        -13    1    6    6    0    0  0.42186616116E+02 -0.62731159752E+02 -0.15680059365E+03  0.17407278694E+03  0.00000000000E+00 0.  1.
          5    1    5    5  501    0  0.79936809284E+02 -0.33515545454E+03 -0.10496194787E+04  0.11047362637E+04  0.47000000000E+01 0. -1.
         13    1    4    4    0    0 -0.21399021959E+02  0.53411047411E+02  0.19870987979E+02  0.60872935608E+02  0.00000000000E+00 0. -1.
        -14    1    4    4    0    0  0.73749477797E+01  0.43662688733E+02 -0.53019837361E+02  0.69079109693E+02  0.00000000000E+00 0.  1.
         -5    1    3    3    0  503 -0.74720980121E+02  0.41628264864E+03 -0.11345730824E+03  0.43791451132E+03  0.47000000000E+01 0.  1.
</event>
<event>
12    1  0.9749377E-001  0.2180586E+03  0.7818608E-02  0.1135339E+00
         21   -1    0    0  501  502  0.00000000000E+00  0.00000000000E+00  0.45534311057E+02  0.45534311057E+02  0.00000000000E+00 0. -1.
         21   -1    0    0  502  503 -0.00000000000E+00 -0.00000000000E+00 -0.19115830367E+04  0.19115830367E+04  0.00000000000E+00 0.  1.
         -6    2    1    2    0  503  0.16310700839E+03 -0.10621395430E+03 -0.13976534307E+04  0.14216947543E+04  0.17290333132E+03 0.  0.
        -24    2    3    3    0    0  0.11875832578E+03 -0.61176566897E+02 -0.12671788982E+04  0.12766400559E+04  0.78875598470E+02 0.  0.
          6    2    1    2  501    0 -0.16310700839E+03  0.10621395430E+03 -0.46839529495E+03  0.53542259339E+03  0.17145816081E+03 0.  0.
         24    2    5    5    0    0 -0.38927990531E+02  0.45134927881E+02 -0.30719749629E+03  0.32291871992E+03  0.79709772238E+02 0.  0.
         12    1    6    6    0    0  0.61797590635E+01  0.52482134803E+02 -0.18709007778E+03  0.19441003343E+03  0.00000000000E+00 0. -1.
        -11    1    6    6    0    0 -0.45107749595E+02 -0.73472069228E+01 -0.12010741851E+03  0.12850868649E+03  0.00000000000E+00 0.  1.
          5    1    5    5  501    0 -0.12417901786E+03  0.61079026423E+02 -0.16119779866E+03  0.21250387347E+03  0.47000000000E+01 0. -1.
         11    1    4    4    0    0  0.37318866422E+02 -0.32168630009E+02 -0.20055333414E+03  0.20651672665E+03  0.00000000000E+00 0. -1.
        -12    1    4    4    0    0  0.81439459354E+02 -0.29007936888E+02 -0.10666255640E+04  0.10701233292E+04  0.00000000000E+00 0.  1.
         -5    1    3    3    0  503  0.44348682616E+02 -0.45037387407E+02 -0.13047453249E+03  0.14505469845E+03  0.47000000000E+01 0.  1.
</event>
<event>
12    1  0.9749377E-001  0.1068737E+04  0.7818608E-02  0.9236210E-01
         21   -1    0    0  501  502  0.00000000000E+00  0.00000000000E+00  0.36188855715E+04  0.36188855715E+04  0.00000000000E+00 0.  1.
         21   -1    0    0  502  503 -0.00000000000E+00 -0.00000000000E+00 -0.32576786420E+03  0.32576786420E+03  0.00000000000E+00 0. -1.
         -6    2    1    2    0  503  0.14014156180E+03  0.10492542999E+04  0.13379502042E+04  0.17146475744E+04  0.17126386750E+03 0.  0.
        -24    2    3    3    0    0  0.94978476091E+02  0.35039392987E+03  0.44885982778E+03  0.58285726320E+03  0.80315797073E+02 0.  0.
          6    2    1    2  501    0 -0.14014156180E+03 -0.10492542999E+04  0.19551675031E+04  0.22300058612E+04  0.17225542914E+03 0.  0.
         24    2    5    5    0    0 -0.21424571997E+02 -0.24536283961E+03  0.42507592114E+03  0.49751126017E+03  0.78523753875E+02 0.  0.
         14    1    6    6    0    0 -0.38663416105E+02 -0.96426830933E+02  0.12895067770E+03  0.16559369175E+03  0.00000000000E+00 0. -1.
        -13    1    6    6    0    0  0.17238844108E+02 -0.14893600867E+03  0.29612524343E+03  0.33191756842E+03  0.00000000000E+00 0.  1.
          5    1    5    5  501    0 -0.11871698981E+03 -0.80389146032E+03  0.15300915819E+04  0.17324946011E+04  0.47000000000E+01 0. -1.
         13    1    4    4    0    0  0.10727572598E+03  0.29352750669E+03  0.36100406693E+03  0.47748341846E+03  0.00000000000E+00 0. -1.
        -14    1    4    4    0    0 -0.12297249886E+02  0.56866423183E+02  0.87855760847E+02  0.10537384474E+03  0.00000000000E+00 0.  1.
         -5    1    3    3    0  503  0.45163085711E+02  0.69886037006E+03  0.88909037641E+03  0.11317903112E+04  0.47000000000E+01 0.  1.
</event>
<event>
12    1  0.9749377E-001  0.7658322E+03  0.7818608E-02  0.9610834E-01
         21   -1    0    0  501  502  0.00000000000E+00  0.00000000000E+00  0.57827973076E+03  0.57827973076E+03  0.00000000000E+00 0.  1.
         21   -1    0    0  502  503 -0.00000000000E+00 -0.00000000000E+00 -0.10434491285E+04  0.10434491285E+04  0.00000000000E+00 0. -1.
         -6    2    1    2    0  503  0.43241664614E+03 -0.61924966892E+03 -0.29314662226E+03  0.82830747534E+03  0.17234855161E+03 0.  0.
        -24    2    3    3    0    0  0.33886510271E+03 -0.42766154972E+03 -0.15104892667E+03  0.57204248790E+03  0.81809967413E+02 0.  0.
          6    2    1    2  501    0 -0.43241664614E+03  0.61924966892E+03 -0.17202277546E+03  0.79342138390E+03  0.17167221335E+03 0.  0.
         24    2    5    5    0    0 -0.24599810348E+03  0.44878571341E+03 -0.78206821129E+02  0.52391562058E+03  0.80296868813E+02 0.  0.
         12    1    6    6    0    0 -0.92745533859E+02  0.24728151861E+03 -0.54321991156E+02  0.26963078871E+03  0.00000000000E+00 0. -1.
        -11    1    6    6    0    0 -0.15325256962E+03  0.20150419480E+03 -0.23884829973E+02  0.25428483187E+03  0.00000000000E+00 0.  1.
          5    1    5    5  501    0 -0.18641854266E+03  0.17046395551E+03 -0.93815954327E+02  0.26950576332E+03  0.47000000000E+01 0. -1.
         11    1    4    4    0    0  0.32623810387E+02 -0.72691028873E+02 -0.60120568083E+00  0.79678479724E+02  0.00000000000E+00 0. -1.
        -12    1    4    4    0    0  0.30624129233E+03 -0.35497052085E+03 -0.15044772099E+03  0.49236400818E+03  0.00000000000E+00 0.  1.
         -5    1    3    3    0  503  0.93551543426E+02 -0.19158811920E+03 -0.14209769558E+03  0.25626498744E+03  0.47000000000E+01 0.  1.
</event>
<event>
12    1  0.9749377E-001  0.2242607E+03  0.7818608E-02  0.1130746E+00
         21   -1    0    0  501  502  0.00000000000E+00  0.00000000000E+00  0.23443051602E+03  0.23443051602E+03  0.00000000000E+00 0.  1.
         21   -1    0    0  502  503 -0.00000000000E+00 -0.00000000000E+00 -0.25921259088E+03  0.25921259088E+03  0.00000000000E+00 0. -1.
         -6    2    1    2    0  503 -0.15029425729E+03  0.79103239585E+02  0.36813710560E+02  0.24447147532E+03  0.17194582482E+03 0.  0.
        -24    2    3    3    0    0 -0.24364988112E+02  0.28495920477E+02  0.53228053741E+02  0.10768404079E+03  0.85772704318E+02 0.  0.
          6    2    1    2  501    0  0.15029425729E+03 -0.79103239585E+02 -0.61595785420E+02  0.24917163157E+03  0.17160062619E+03 0.  0.
         24    2    5    5    0    0  0.14510572069E+03 -0.11719547628E+03 -0.62095504848E+02  0.21043819475E+03  0.75086165484E+02 0.  0.
         14    1    6    6    0    0  0.47248069976E+02 -0.47124959237E+02  0.13807451686E+02  0.68145341892E+02  0.00000000000E+00 0. -1.
        -13    1    6    6    0    0  0.97857650719E+02 -0.70070517044E+02 -0.75902956534E+02  0.14229285286E+03  0.00000000000E+00 0.  1.
          5    1    5    5  501    0  0.51885365998E+01  0.38092236697E+02  0.49971942799E+00  0.38733436823E+02  0.47000000000E+01 0. -1.
         13    1    4    4    0    0 -0.40658670136E+02  0.47067054441E+02  0.18172072331E+02  0.64797062308E+02  0.00000000000E+00 0. -1.
        -14    1    4    4    0    0  0.16293682024E+02 -0.18571133963E+02  0.35055981410E+02  0.42886978481E+02  0.00000000000E+00 0.  1.
         -5    1    3    3    0  503 -0.12592926918E+03  0.50607319107E+02 -0.16414343181E+02  0.13678743453E+03  0.47000000000E+01 0.  1.
</event>
<event>
12    1  0.9749377E-001  0.1722397E+03  0.7818608E-02  0.1175532E+00
         21   -1    0    0  501  502  0.00000000000E+00  0.00000000000E+00  0.15902396997E+03  0.15902396997E+03  0.00000000000E+00 0.  1.
         21   -1    0    0  502  503 -0.00000000000E+00 -0.00000000000E+00 -0.32210220434E+03  0.32210220434E+03  0.00000000000E+00 0. -1.
         -6    2    1    2    0  503 -0.12672256841E+02 -0.12486917196E+03  0.68228845028E+01  0.20904293988E+03  0.16703144243E+03 0.  0.
        -24    2    3    3    0    0  0.29398555294E+02 -0.10048877448E+03 -0.46129127268E+02  0.13699876894E+03  0.75355805745E+02 0.  0.
          6    2    1    2  501    0  0.12672256841E+02  0.12486917196E+03 -0.16990111887E+03  0.27208323443E+03  0.17149344030E+03 0.  0.
         24    2    5    5    0    0 -0.32335311348E+02  0.22319103338E+02 -0.12200264247E+03  0.15018757491E+03  0.78281212005E+02 0.  0.
         14    1    6    6    0    0 -0.11117573878E+02  0.45638319493E+02 -0.10342888802E+03  0.11359573729E+03  0.00000000000E+00 0. -1.
        -13    1    6    6    0    0 -0.21217737471E+02 -0.23319216155E+02 -0.18573754458E+02  0.36591837616E+02  0.00000000000E+00 0.  1.
          5    1    5    5  501    0  0.45007568189E+02  0.10255006862E+03 -0.47898476396E+02  0.12189565952E+03  0.47000000000E+01 0. -1.
         11    1    4    4    0    0  0.13962953627E+02 -0.33505181609E+02 -0.56828754596E+02  0.67431955463E+02  0.00000000000E+00 0. -1.
        -12    1    4    4    0    0  0.15435601667E+02 -0.66983592874E+02  0.10699627328E+02  0.69566813482E+02  0.00000000000E+00 0.  1.
         -5    1    3    3    0  503 -0.42070812134E+02 -0.24380397476E+02  0.52952011771E+02  0.72044170932E+02  0.47000000000E+01 0.  1.
</event>
<event>
12    1  0.9749377E-001  0.2310718E+03  0.7818608E-02  0.1125888E+00
         21   -1    0    0  503  502  0.00000000000E+00  0.00000000000E+00  0.66242998475E+03  0.66242998475E+03  0.00000000000E+00 0. -1.
         21   -1    0    0  501  503 -0.00000000000E+00 -0.00000000000E+00 -0.13832146437E+03  0.13832146437E+03  0.00000000000E+00 0.  1.
          6    2    1    2  501    0  0.84729330651E+01 -0.20784143919E+03  0.79167005635E+02  0.28019523552E+03  0.17021192905E+03 0.  0.
         24    2    3    3    0    0  0.19728949191E+02 -0.74748761295E+02 -0.21072453691E+02  0.11313118190E+03  0.79862427095E+02 0.  0.
         -6    2    1    2    0  502 -0.84729330651E+01  0.20784143919E+03  0.44494151474E+03  0.52055621360E+03  0.17244119442E+03 0.  0.
        -24    2    5    5    0    0 -0.64142205041E+02  0.11235529342E+03  0.31411251145E+03  0.34922323376E+03  0.80946048223E+02 0.  0.
         14    1    4    4    0    0 -0.85176137446E+00 -0.12073270365E+01  0.24271789283E+02  0.24316720400E+02  0.00000000000E+00 0. -1.
        -13    1    4    4    0    0  0.20580710565E+02 -0.73541434258E+02 -0.45344242974E+02  0.88814461497E+02  0.00000000000E+00 0.  1.
          5    1    3    3  501    0 -0.11256016126E+02 -0.13309267789E+03  0.10023945933E+03  0.16706405362E+03  0.47000000000E+01 0. -1.
         11    1    6    6    0    0 -0.35497800614E+02  0.10443124240E+03  0.17415872900E+03  0.20614858992E+03  0.00000000000E+00 0. -1.
        -12    1    6    6    0    0 -0.28644404427E+02  0.79240510199E+01  0.13995378245E+03  0.14307464385E+03  0.00000000000E+00 0.  1.
         -5    1    5    5    0  502  0.55669271976E+02  0.95486145769E+02  0.13082900329E+03  0.17133297983E+03  0.47000000000E+01 0.  1.
</event>
<event>
12    1  0.9749377E-001  0.3179790E+03  0.7818608E-02  0.1076583E+00
         21   -1    0    0  503  502  0.00000000000E+00  0.00000000000E+00  0.16931825557E+03  0.16931825557E+03  0.00000000000E+00 0.  1.
         21   -1    0    0  501  503 -0.00000000000E+00 -0.00000000000E+00 -0.70946293764E+03  0.70946293764E+03  0.00000000000E+00 0. -1.
          6    2    1    2  501    0 -0.26482769755E+03 -0.95498418444E+02 -0.13535703737E+03  0.35668493591E+03  0.17218872968E+03 0.  0.
         24    2    3    3    0    0 -0.78362453320E+02  0.18652024707E+01 -0.12009108254E+02  0.11278790108E+03  0.80204356980E+02 0.  0.
         -6    2    1    2    0  502  0.26482769755E+03  0.95498418444E+02 -0.40478764471E+03  0.52209625730E+03  0.17169102267E+03 0.  0.
        -24    2    5    5    0    0  0.19134026136E+03  0.11995101146E+03 -0.35980529555E+03  0.43240883166E+03  0.80735408754E+02 0.  0.
         14    1    4    4    0    0 -0.67188032833E+02 -0.33235883638E+02 -0.38473409270E+01  0.75057696137E+02  0.00000000000E+00 0. -1.
        -13    1    4    4    0    0 -0.11174420487E+02  0.35101086109E+02 -0.81617673269E+01  0.37730204944E+02  0.00000000000E+00 0.  1.
          5    1    3    3  501    0 -0.18646524423E+03 -0.97363620914E+02 -0.12334792911E+03  0.24389703483E+03  0.47000000000E+01 0. -1.
         13    1    6    6    0    0  0.11517425479E+03  0.31430813972E+02 -0.14418190890E+03  0.18719355728E+03  0.00000000000E+00 0. -1.
        -14    1    6    6    0    0  0.76166006574E+02  0.88520197484E+02 -0.21562338665E+03  0.24521527438E+03  0.00000000000E+00 0.  1.
         -5    1    5    5    0  502  0.73487436182E+02 -0.24452593012E+02 -0.44982349166E+02  0.89687425641E+02  0.47000000000E+01 0.  1.
</event>
<event>
12    1  0.9749377E-001  0.2849208E+03  0.7818608E-02  0.1093031E+00
         21   -1    0    0  501  502  0.00000000000E+00  0.00000000000E+00  0.12062144952E+04  0.12062144952E+04  0.00000000000E+00 0. -1.
         21   -1    0    0  502  503 -0.00000000000E+00 -0.00000000000E+00 -0.81415236477E+02  0.81415236477E+02  0.00000000000E+00 0.  1.
         -6    2    1    2    0  503  0.23576708918E+03 -0.15440319527E+01  0.79574729384E+03  0.84812682825E+03  0.17469074609E+03 0.  0.
        -24    2    3    3    0    0  0.25268654000E+03  0.10018410930E+02  0.66856375583E+03  0.71921716902E+03  0.79655411343E+02 0.  0.
          6    2    1    2  501    0 -0.23576708918E+03  0.15440319527E+01  0.32905196491E+03  0.43950290345E+03  0.17116980504E+03 0.  0.
         24    2    5    5    0    0 -0.11926826445E+03 -0.63611402488E+02  0.16743935204E+03  0.22984143003E+03  0.80745383237E+02 0.  0.
         12    1    6    6    0    0 -0.11294520709E+02 -0.39720631388E+02  0.75389661808E+02  0.85958686957E+02  0.00000000000E+00 0. -1.
        -11    1    6    6    0    0 -0.10797374374E+03 -0.23890771100E+02  0.92049690228E+02  0.14388274307E+03  0.00000000000E+00 0.  1.
          5    1    5    5  501    0 -0.11649882473E+03  0.65155434441E+02  0.16161261287E+03  0.20966147343E+03  0.47000000000E+01 0. -1.
         13    1    4    4    0    0  0.70775567200E+01 -0.14907079989E+02  0.66245742890E+02  0.68270134714E+02  0.00000000000E+00 0. -1.
        -14    1    4    4    0    0  0.24560898328E+03  0.24925490919E+02  0.60231801294E+03  0.65094703431E+03  0.00000000000E+00 0.  1.
         -5    1    3    3    0  503 -0.16919450817E+02 -0.11562442882E+02  0.12718353801E+03  0.12890965923E+03  0.47000000000E+01 0.  1.
</event>
<event>
12    1  0.9749377E-001  0.7820651E+03  0.7818608E-02  0.9586346E-01
         21   -1    0    0  501  502  0.00000000000E+00  0.00000000000E+00  0.93456180601E+03  0.93456180601E+03  0.00000000000E+00 0.  1.
         21   -1    0    0  502  503 -0.00000000000E+00 -0.00000000000E+00 -0.67650569707E+03  0.67650569707E+03  0.00000000000E+00 0. -1.
         -6    2    1    2    0  503 -0.24455760212E+03  0.73335021138E+03  0.19632098853E+03  0.81540214027E+03  0.16949267400E+03 0.  0.
        -24    2    3    3    0    0 -0.76495404091E+02  0.39211676161E+03  0.13907691393E+03  0.43071506780E+03  0.81030735288E+02 0.  0.
          6    2    1    2  501    0  0.24455760212E+03 -0.73335021138E+03  0.61735120411E+02  0.79566536281E+03  0.17793591881E+03 0.  0.
         24    2    5    5    0    0  0.31958877499E+02 -0.19201301052E+03  0.36956117723E+02  0.21353112424E+03  0.79620476776E+02 0.  0.
         14    1    6    6    0    0  0.32776531982E+02 -0.47372956165E+02 -0.15525565803E+02  0.59661890836E+02  0.00000000000E+00 0. -1.
        -13    1    6    6    0    0 -0.81765448287E+00 -0.14464005435E+03  0.52481683526E+02  0.15386923340E+03  0.00000000000E+00 0.  1.
          5    1    5    5  501    0  0.21259872462E+03 -0.54133720086E+03  0.24779002688E+02  0.58213423857E+03  0.47000000000E+01 0. -1.
         11    1    4    4    0    0 -0.75327379105E+02  0.36314024430E+03  0.14954163548E+03  0.39988467315E+03  0.00000000000E+00 0. -1.
        -12    1    4    4    0    0 -0.11680249857E+01  0.28976517309E+02 -0.10464721548E+02  0.30830394659E+02  0.00000000000E+00 0.  1.
         -5    1    3    3    0  503 -0.16806219803E+03  0.34123344977E+03  0.57244074593E+02  0.38468707246E+03  0.47000000000E+01 0.  1.
</event>
<event>
12    1  0.9749377E-001  0.4332231E+03  0.7818608E-02  0.1032847E+00
         21   -1    0    0  501  502  0.00000000000E+00  0.00000000000E+00  0.23402225178E+03  0.23402225178E+03  0.00000000000E+00 0. -1.
         21   -1    0    0  502  503 -0.00000000000E+00 -0.00000000000E+00 -0.13976879079E+04  0.13976879079E+04  0.00000000000E+00 0.  1.
         -6    2    1    2    0  503 -0.11536648538E+03  0.40459242835E+03 -0.86291150085E+02  0.46218550737E+03  0.17077711093E+03 0.  0.
        -24    2    3    3    0    0 -0.46567750457E+02  0.29410968561E+03 -0.11423141378E+03  0.32898471644E+03  0.80703563766E+02 0.  0.
          6    2    1    2  501    0  0.11536648538E+03 -0.40459242835E+03 -0.10773745060E+04  0.11695246523E+04  0.17334251378E+03 0.  0.
         24    2    5    5    0    0  0.11921713632E+03 -0.28517541884E+03 -0.62793359605E+03  0.70444995805E+03  0.80071201115E+02 0.  0.
         12    1    6    6    0    0  0.96225301012E+02 -0.26010435459E+03 -0.59782972913E+03  0.65902501384E+03  0.00000000000E+00 0. -1.
        -11    1    6    6    0    0  0.22991835306E+02 -0.25071064249E+02 -0.30103866921E+02  0.45424944215E+02  0.00000000000E+00 0.  1.
          5    1    5    5  501    0 -0.38506509348E+01 -0.11941700951E+03 -0.44944091000E+03  0.46507469427E+03  0.47000000000E+01 0. -1.
         13    1    4    4    0    0 -0.50973011478E+02  0.11122264337E+03 -0.69290279633E+02  0.14060535960E+03  0.00000000000E+00 0. -1.
        -14    1    4    4    0    0  0.44052610210E+01  0.18288704224E+03 -0.44941134143E+02  0.18837935683E+03  0.00000000000E+00 0.  1.
         -5    1    3    3    0  503 -0.68798734927E+02  0.11048274274E+03  0.27940263691E+02  0.13320079093E+03  0.47000000000E+01 0.  1.
</event>
<event>
12    1  0.9749377E-001  0.2044747E+03  0.7818608E-02  0.1146018E+00
         21   -1    0    0  501  502  0.00000000000E+00  0.00000000000E+00  0.84015853471E+02  0.84015853471E+02  0.00000000000E+00 0.  1.
         21   -1    0    0  502  503 -0.00000000000E+00 -0.00000000000E+00 -0.70438598026E+03  0.70438598026E+03  0.00000000000E+00 0. -1.
         -6    2    1    2    0  503 -0.16452645564E+03 -0.30227978915E+02 -0.24328657805E+03  0.34155318548E+03  0.17171934700E+03 0.  0.
        -24    2    3    3    0    0 -0.11844090492E+03 -0.21110644867E+02 -0.67639204308E+02  0.15967109821E+03  0.80286302441E+02 0.  0.
          6    2    1    2  501    0  0.16452645564E+03  0.30227978915E+02 -0.37708354874E+03  0.44684864825E+03  0.17175280609E+03 0.  0.
         24    2    5    5    0    0  0.40463437229E+02 -0.30211097659E+02 -0.20449710962E+03  0.22582221661E+03  0.81403964887E+02 0.  0.
         12    1    6    6    0    0 -0.17168494046E+02  0.14380636423E+02 -0.58756477138E+02  0.62879913306E+02  0.00000000000E+00 0. -1.
        -11    1    6    6    0    0  0.57631931275E+02 -0.44591734082E+02 -0.14574063248E+03  0.16294230330E+03  0.00000000000E+00 0.  1.
          5    1    5    5  501    0  0.12406301841E+03  0.60439076574E+02 -0.17258643912E+03  0.22102643164E+03  0.47000000000E+01 0. -1.
         11    1    4    4    0    0 -0.31756169597E+02  0.14203524363E+02 -0.55198153105E+02  0.65245923382E+02  0.00000000000E+00 0. -1.
        -12    1    4    4    0    0 -0.86684735327E+02 -0.35314169229E+02 -0.12441051204E+02  0.94425174833E+02  0.00000000000E+00 0.  1.
         -5    1    3    3    0  503 -0.46085550720E+02 -0.91173340483E+01 -0.17564737374E+03  0.18188208726E+03  0.47000000000E+01 0.  1.
</event>
<event>
12    1  0.9749377E-001  0.5975055E+03  0.7818608E-02  0.9910595E-01
         21   -1    0    0  501  502  0.00000000000E+00  0.00000000000E+00  0.75208724447E+03  0.75208724447E+03  0.00000000000E+00 0. -1.
         21   -1    0    0  502  503 -0.00000000000E+00 -0.00000000000E+00 -0.47857502980E+03  0.47857502980E+03  0.00000000000E+00 0.  1.
         -6    2    1    2    0  503  0.39815744911E+03  0.41291395205E+03  0.17728806479E+03  0.62506315106E+03  0.17391261834E+03 0.  0.
        -24    2    3    3    0    0  0.33076997068E+03  0.40717112663E+03  0.14507675402E+03  0.55000510130E+03  0.79128042027E+02 0.  0.
          6    2    1    2  501    0 -0.39815744911E+03 -0.41291395205E+03  0.96224149886E+02  0.60559912321E+03  0.16871255119E+03 0.  0.
         24    2    5    5    0    0 -0.23778616775E+03 -0.15728718492E+03  0.50768424288E+02  0.30039049793E+03  0.79846717054E+02 0.  0.
         12    1    6    6    0    0 -0.25403079682E+02  0.73714895805E+01  0.11332307084E+02  0.28776318385E+02  0.00000000000E+00 0. -1.
        -11    1    6    6    0    0 -0.21238308807E+03 -0.16465867450E+03  0.39436117205E+02  0.27161417954E+03  0.00000000000E+00 0.  1.
          5    1    5    5  501    0 -0.16037128135E+03 -0.25562676713E+03  0.45455725597E+02  0.30520862528E+03  0.47000000000E+01 0. -1.
         11    1    4    4    0    0  0.13016300007E+03  0.10360381820E+03  0.36939088721E+02  0.17041318613E+03  0.00000000000E+00 0. -1.
        -12    1    4    4    0    0  0.20060697061E+03  0.30356730842E+03  0.10813766530E+03  0.37959191516E+03  0.00000000000E+00 0.  1.
         -5    1    3    3    0  503  0.67387478428E+02  0.57428254265E+01  0.32211310768E+02  0.75058049763E+02  0.47000000000E+01 0.  1.
</event>
<event>
12    1  0.9749377E-001  0.6296654E+03  0.7818608E-02  0.9845702E-01
         21   -1    0    0  501  502  0.00000000000E+00  0.00000000000E+00  0.84147523681E+03  0.84147523681E+03  0.00000000000E+00 0. -1.
         21   -1    0    0  502  503 -0.00000000000E+00 -0.00000000000E+00 -0.60175472902E+03  0.60175472902E+03  0.00000000000E+00 0.  1.
         -6    2    1    2    0  503 -0.14376082651E+03  0.60659841931E+03 -0.18131909993E+03  0.67175411857E+03  0.17247655569E+03 0.  0.
        -24    2    3    3    0    0 -0.19598550504E+02  0.27653787470E+03 -0.12513307112E+03  0.31463341947E+03  0.80489774705E+02 0.  0.
          6    2    1    2  501    0  0.14376082651E+03 -0.60659841931E+03  0.42103960771E+03  0.77147584726E+03  0.17109007596E+03 0.  0.
         24    2    5    5    0    0  0.11750372192E+03 -0.50160061370E+03  0.40827844222E+03  0.66239371275E+03  0.81632370924E+02 0.  0.
         14    1    6    6    0    0  0.79705054472E+02 -0.45046155508E+03  0.36814831868E+03  0.58719817171E+03  0.00000000000E+00 0. -1.
        -13    1    6    6    0    0  0.37798667444E+02 -0.51139058628E+02  0.40130123535E+02  0.75195541043E+02  0.00000000000E+00 0.  1.
          5    1    5    5  501    0  0.26257104594E+02 -0.10499780561E+03  0.12761165497E+02  0.10908213451E+03  0.47000000000E+01 0. -1.
         13    1    4    4    0    0 -0.19827403754E+02  0.26779741424E+03 -0.97553969681E+02  0.28570151910E+03  0.00000000000E+00 0. -1.
        -14    1    4    4    0    0  0.22885325033E+00  0.87404604613E+01 -0.27579101441E+02  0.28931900373E+02  0.00000000000E+00 0.  1.
         -5    1    3    3    0  503 -0.12416227601E+03  0.33006054461E+03 -0.56186028805E+02  0.35712069910E+03  0.47000000000E+01 0.  1.
</event>
<event>
12    1  0.9749377E-001  0.3127910E+03  0.7818608E-02  0.1079016E+00
         21   -1    0    0  503  502  0.00000000000E+00  0.00000000000E+00  0.18702817738E+04  0.18702817738E+04  0.00000000000E+00 0. -1.
         21   -1    0    0  501  503 -0.00000000000E+00 -0.00000000000E+00 -0.68681673981E+02  0.68681673981E+02  0.00000000000E+00 0.  1.
          6    2    1    2  501    0 -0.18650999218E+03 -0.21497184045E+03  0.53997853221E+03  0.63398639155E+03  0.17135652906E+03 0.  0.
         24    2    3    3    0    0 -0.12188418296E+03 -0.49776582829E+02  0.23181215119E+03  0.27838186859E+03  0.80163140320E+02 0.  0.
         -6    2    1    2    0  502  0.18650999218E+03  0.21497184045E+03  0.12616215676E+04  0.13049770562E+04  0.17400364384E+03 0.  0.
        -24    2    5    5    0    0  0.85979173554E+02  0.96638483779E+02  0.87815070836E+03  0.89123653527E+03  0.80140379158E+02 0.  0.
         12    1    4    4    0    0 -0.97891864311E+02 -0.15615230459E+02  0.20777548565E+03  0.23021143533E+03  0.00000000000E+00 0. -1.
        -11    1    4    4    0    0 -0.23992318650E+02 -0.34161352370E+02  0.24036665541E+02  0.48170433258E+02  0.00000000000E+00 0.  1.
          5    1    3    3  501    0 -0.64625809217E+02 -0.16519525762E+03  0.30816638102E+03  0.35560452296E+03  0.47000000000E+01 0. -1.
         13    1    6    6    0    0 -0.15493769905E+02  0.16317949463E+02  0.14915710407E+03  0.15084486758E+03  0.00000000000E+00 0. -1.
        -14    1    6    6    0    0  0.10147294346E+03  0.80320534316E+02  0.72899360429E+03  0.74039166769E+03  0.00000000000E+00 0.  1.
         -5    1    5    5    0  502  0.10053081862E+03  0.11833335667E+03  0.38347085924E+03  0.41374052095E+03  0.47000000000E+01 0.  1.
</event>
<event>
12    1  0.9749377E-001  0.2263575E+03  0.7818608E-02  0.1129230E+00
         21   -1    0    0  503  502  0.00000000000E+00  0.00000000000E+00  0.64405512795E+03  0.64405512795E+03  0.00000000000E+00 0.  1.
         21   -1    0    0  501  503 -0.00000000000E+00 -0.00000000000E+00 -0.94403771151E+02  0.94403771151E+02  0.00000000000E+00 0. -1.
          6    2    1    2  501    0  0.50180815666E+02 -0.16290215299E+03  0.20716046814E+03  0.31855924184E+03  0.17178272698E+03 0.  0.
         24    2    3    3    0    0  0.32950943389E+02 -0.38158264036E+02  0.15707159756E+03  0.18295359562E+03  0.79112031984E+02 0.  0.
         -6    2    1    2    0  502 -0.50180815666E+02  0.16290215299E+03  0.34249088866E+03  0.41989965727E+03  0.17309098083E+03 0.  0.
        -24    2    5    5    0    0  0.31502221492E+02  0.65132799116E+02  0.10699946747E+03  0.15211380145E+03  0.80343332487E+02 0.  0.
         12    1    4    4    0    0  0.55002239747E+02 -0.81698555018E+01  0.80816738686E+02  0.98098614506E+02  0.00000000000E+00 0. -1.
        -11    1    4    4    0    0 -0.22051296358E+02 -0.29988408534E+02  0.76254858875E+02  0.84854981112E+02  0.00000000000E+00 0.  1.
          5    1    3    3  501    0  0.17229872278E+02 -0.12474388896E+03  0.50088870582E+02  0.13560564622E+03  0.47000000000E+01 0. -1.
         13    1    6    6    0    0 -0.24262218895E+02  0.57762210567E+01  0.37564367195E+02  0.45089928789E+02  0.00000000000E+00 0. -1.
        -14    1    6    6    0    0  0.55764440387E+02  0.59356578059E+02  0.69435100270E+02  0.10702387266E+03  0.00000000000E+00 0.  1.
         -5    1    5    5    0  502 -0.81683037159E+02  0.97769353877E+02  0.23549142119E+03  0.26778585581E+03  0.47000000000E+01 0.  1.
</event>
<event>
12    1  0.9749377E-001  0.2859925E+03  0.7818608E-02  0.1092460E+00
         21   -1    0    0  503  502  0.00000000000E+00  0.00000000000E+00  0.20156311714E+03  0.20156311714E+03  0.00000000000E+00 0. -1.
         21   -1    0    0  501  503 -0.00000000000E+00 -0.00000000000E+00 -0.52672258668E+03  0.52672258668E+03  0.00000000000E+00 0.  1.
          6    2    1    2  501    0 -0.22269119860E+03  0.14168467875E+03 -0.25526158300E+03  0.40537449714E+03  0.17176754366E+03 0.  0.
         24    2    3    3    0    0 -0.23169577416E+03  0.87787881012E+02 -0.21394493665E+03  0.33670789352E+03  0.78804351568E+02 0.  0.
         -6    2    1    2    0  502  0.22269119860E+03 -0.14168467875E+03 -0.69897886538E+02  0.32291120668E+03  0.17239493825E+03 0.  0.
        -24    2    5    5    0    0  0.13811718085E+03 -0.11552866930E+03  0.18646485124E+02  0.19761516899E+03  0.79251716266E+02 0.  0.
         14    1    4    4    0    0 -0.21922900422E+03  0.80149470484E+02 -0.16559048322E+03  0.28619137311E+03  0.00000000000E+00 0. -1.
        -13    1    4    4    0    0 -0.12466769939E+02  0.76384105271E+01 -0.48354453424E+02  0.50516520407E+02  0.00000000000E+00 0.  1.
          5    1    3    3  501    0  0.90045755641E+01  0.53896797736E+02 -0.41316646354E+02  0.68666603624E+02  0.47000000000E+01 0. -1.
         13    1    6    6    0    0  0.13429657118E+03 -0.10936168269E+03 -0.46098897269E+01  0.17325356491E+03  0.00000000000E+00 0. -1.
        -14    1    6    6    0    0  0.38206096700E+01 -0.61669866148E+01  0.23256374851E+02  0.24361604080E+02  0.00000000000E+00 0.  1.
         -5    1    5    5    0  502  0.84574017747E+02 -0.26156009445E+02 -0.88544371662E+02  0.12529603769E+03  0.47000000000E+01 0.  1.
</event>
<event>
12    1  0.9749377E-001  0.6074130E+03  0.7818608E-02  0.9890145E-01
         21   -1    0    0  501  502  0.00000000000E+00  0.00000000000E+00  0.27026617527E+03  0.27026617527E+03  0.00000000000E+00 0.  1.
         21   -1    0    0  502  503 -0.00000000000E+00 -0.00000000000E+00 -0.15286645895E+04  0.15286645895E+04  0.00000000000E+00 0. -1.
         -6    2    1    2    0  503  0.29526279430E+03 -0.51918854201E+03 -0.85815392575E+03  0.10595697539E+04  0.17182270902E+03 0.  0.
        -24    2    3    3    0    0  0.26545384938E+03 -0.51349213719E+03 -0.77090888349E+03  0.96707754009E+03  0.82453264221E+02 0.  0.
          6    2    1    2  501    0 -0.29526279430E+03  0.51918854201E+03 -0.40024448849E+03  0.73936101085E+03  0.17240125856E+03 0.  0.
         24    2    5    5    0    0 -0.52465235801E+02  0.16312844910E+03 -0.15161004481E+03  0.24179632082E+03  0.78207181294E+02 0.  0.
         14    1    6    6    0    0 -0.41816261471E+02  0.15369858607E+03 -0.15959637810E+03  0.22548361135E+03  0.00000000000E+00 0. -1.
        -13    1    6    6    0    0 -0.10648974330E+02  0.94298630276E+01  0.79863332949E+01  0.16312709478E+02  0.00000000000E+00 0.  1.
          5    1    5    5  501    0 -0.24279755849E+03  0.35606009291E+03 -0.24863444368E+03  0.49756469002E+03  0.47000000000E+01 0. -1.
         13    1    4    4    0    0  0.15878283982E+03 -0.35095046001E+03 -0.56571720862E+03  0.68440790156E+03  0.00000000000E+00 0. -1.
        -14    1    4    4    0    0  0.10667100956E+03 -0.16254167719E+03 -0.20519167488E+03  0.28266963852E+03  0.00000000000E+00 0.  1.
         -5    1    3    3    0  503  0.29808944919E+02 -0.56964048106E+01 -0.87245042255E+02  0.92492213851E+02  0.47000000000E+01 0.  1.
</event>
<event>
12    1  0.9749377E-001  0.1048083E+04  0.7818608E-02  0.9257325E-01
         21   -1    0    0  503  502  0.00000000000E+00  0.00000000000E+00  0.11187413873E+04  0.11187413873E+04  0.00000000000E+00 0. -1.
         21   -1    0    0  501  503 -0.00000000000E+00 -0.00000000000E+00 -0.12638121540E+04  0.12638121540E+04  0.00000000000E+00 0.  1.
          6    2    1    2  501    0  0.90057885218E+03 -0.51906257136E+03  0.47951524316E+03  0.11575931854E+04  0.17210140141E+03 0.  0.
         24    2    3    3    0    0  0.73302720139E+03 -0.47717066696E+03  0.41478454933E+03  0.97309212828E+03  0.99203550177E+02 0.  0.
         -6    2    1    2    0  502 -0.90057885218E+03  0.51906257136E+03 -0.62458600985E+03  0.12249603560E+04  0.17306636927E+03 0.  0.
        -24    2    5    5    0    0 -0.75209506603E+03  0.46929425021E+03 -0.57901078864E+03  0.10617932290E+04  0.79166193960E+02 0.  0.
         12    1    4    4    0    0  0.55363376993E+03 -0.30750266441E+03  0.29407272453E+03  0.69824566389E+03  0.00000000000E+00 0. -1.
        -11    1    4    4    0    0  0.17939343146E+03 -0.16966800255E+03  0.12071182480E+03  0.27484646439E+03  0.00000000000E+00 0.  1.
          5    1    3    3  501    0  0.16755165079E+03 -0.41891904396E+02  0.64730693829E+02  0.18450105707E+03  0.47000000000E+01 0. -1.
         11    1    6    6    0    0 -0.40122118696E+03  0.25002678744E+03 -0.35573685265E+03  0.59164224294E+03  0.00000000000E+00 0. -1.
        -12    1    6    6    0    0 -0.35087387906E+03  0.21926746277E+03 -0.22327393599E+03  0.47015098610E+03  0.00000000000E+00 0.  1.
         -5    1    5    5    0  502 -0.14848378615E+03  0.49768321144E+02 -0.45575221208E+02  0.16316712699E+03  0.47000000000E+01 0.  1.
</event>
<event>
12    1  0.9749377E-001  0.5739845E+03  0.7818608E-02  0.9960900E-01
         21   -1    0    0  503  502  0.00000000000E+00  0.00000000000E+00  0.52497587015E+03  0.52497587015E+03  0.00000000000E+00 0. -1.
         21   -1    0    0  501  503 -0.00000000000E+00 -0.00000000000E+00 -0.82289001666E+03  0.82289001666E+03  0.00000000000E+00 0.  1.
          6    2    1    2  501    0 -0.53275866337E+03 -0.18350464317E+03  0.14927564458E+03  0.60847130453E+03  0.17449459277E+03 0.  0.
         24    2    3    3    0    0 -0.39788489020E+03 -0.19551744185E+03  0.11300646997E+03  0.46821159881E+03  0.99559947197E+02 0.  0.
         -6    2    1    2    0  502  0.53275866337E+03  0.18350464317E+03 -0.44718979108E+03  0.73939458228E+03  0.17093826836E+03 0.  0.
        -24    2    5    5    0    0  0.33949594618E+03  0.13745487035E+03 -0.36816059027E+03  0.52552835302E+03  0.80538753090E+02 0.  0.
         14    1    4    4    0    0 -0.59403966719E+02 -0.54450413940E+02  0.53470019282E+02  0.96709471109E+02  0.00000000000E+00 0. -1.
        -13    1    4    4    0    0 -0.33848092348E+03 -0.14106702791E+03  0.59536450686E+02  0.37150212770E+03  0.00000000000E+00 0.  1.
          5    1    3    3  501    0 -0.13487377317E+03  0.12012798680E+02  0.36269174611E+02  0.14025970572E+03  0.47000000000E+01 0. -1.
         13    1    6    6    0    0  0.10083987598E+03  0.34891756059E+02 -0.59733094683E+02  0.12228719405E+03  0.00000000000E+00 0. -1.
        -14    1    6    6    0    0  0.23865607020E+03  0.10256311429E+03 -0.30842749559E+03  0.40324115897E+03  0.00000000000E+00 0.  1.
         -5    1    5    5    0  502  0.19326271720E+03  0.46049772816E+02 -0.79029200815E+02  0.21386622926E+03  0.47000000000E+01 0.  1.
</event>
<event>
12    1  0.1067542E+000  0.8097718E+03  0.7818608E-02  0.9545979E-01
         21   -1    0    0  503  502  0.00000000000E+00  0.00000000000E+00  0.12277984205E+04  0.12277984205E+04  0.00000000000E+00 0. -1.
         21   -1    0    0  501  503 -0.00000000000E+00 -0.00000000000E+00 -0.57025421801E+03  0.57025421801E+03  0.00000000000E+00 0.  1.
          6    2    1    2  501    0 -0.38876929679E+03 -0.69549395219E+03  0.12785793395E+03  0.82582361670E+03  0.17545253193E+03 0.  0.
         24    2    3    3    0    0 -0.18078297444E+03 -0.46480885173E+03  0.83684863318E+02  0.51206052768E+03  0.80455423456E+02 0.  0.
         -6    2    1    2    0  502  0.38876929679E+03  0.69549395219E+03  0.52968626854E+03  0.97222902182E+03  0.17265087350E+03 0.  0.
        -24    2    5    5    0    0  0.10333632419E+03  0.29275782518E+03  0.18248667393E+03  0.36870767311E+03  0.79110188639E+02 0.  0.
         14    1    4    4    0    0 -0.17874587251E+03 -0.38076379729E+03  0.77965918298E+02  0.42779649447E+03  0.00000000000E+00 0. -1.
        -13    1    4    4    0    0 -0.20371019293E+01 -0.84045054442E+02  0.57189450203E+01  0.84264033208E+02  0.00000000000E+00 0.  1.
          5    1    3    3  501    0 -0.20798632236E+03 -0.23068510045E+03  0.44173070636E+02  0.31376308902E+03  0.47000000000E+01 0. -1.
         11    1    6    6    0    0  0.68629146937E+02  0.20496961368E+03  0.16676504103E+03  0.27300747472E+03  0.00000000000E+00 0. -1.
        -12    1    6    6    0    0  0.34707177254E+02  0.87788211497E+02  0.15721632897E+02  0.95700198390E+02  0.00000000000E+00 0.  1.
         -5    1    5    5    0  502  0.28543297260E+03  0.40273612700E+03  0.34719959462E+03  0.60352134871E+03  0.47000000000E+01 0.  1.
</event>
<event>
12    1  0.9749377E-001  0.2862581E+03  0.7818608E-02  0.1092319E+00
         21   -1    0    0  501  502  0.00000000000E+00  0.00000000000E+00  0.17220825707E+03  0.17220825707E+03  0.00000000000E+00 0. -1.
         21   -1    0    0  502  503 -0.00000000000E+00 -0.00000000000E+00 -0.57590969329E+03  0.57590969329E+03  0.00000000000E+00 0.  1.
         -6    2    1    2    0  503 -0.25720540682E+03 -0.46428424400E+02 -0.16447626278E+03  0.35386350418E+03  0.17279096818E+03 0.  0.
        -24    2    3    3    0    0 -0.59980915290E+02  0.20569811068E+02 -0.31954856252E+02  0.10694190366E+03  0.79966434177E+02 0.  0.
          6    2    1    2  501    0  0.25720540682E+03  0.46428424400E+02 -0.23922517344E+03  0.39425444618E+03  0.17290941222E+03 0.  0.
         24    2    5    5    0    0  0.11129265066E+03 -0.72694076625E+01 -0.17680831739E+03  0.22664793229E+03  0.87574001486E+02 0.  0.
         12    1    6    6    0    0  0.14540528493E+02  0.31875712405E+02 -0.64005975321E+02  0.72967478283E+02  0.00000000000E+00 0. -1.
        -11    1    6    6    0    0  0.96752122163E+02 -0.39145120067E+02 -0.11280234207E+03  0.15368045401E+03  0.00000000000E+00 0.  1.
          5    1    5    5  501    0  0.14591275616E+03  0.53697832062E+02 -0.62416856058E+02  0.16760651389E+03  0.47000000000E+01 0. -1.
         13    1    4    4    0    0 -0.24415948533E+02  0.23027799630E+02 -0.55043369021E+02  0.64468523884E+02  0.00000000000E+00 0. -1.
        -14    1    4    4    0    0 -0.35564966756E+02 -0.24579885620E+01  0.23088512769E+02  0.42473379781E+02  0.00000000000E+00 0.  1.
         -5    1    3    3    0  503 -0.19722449153E+03 -0.66998235468E+02 -0.13252140652E+03  0.24692160052E+03  0.47000000000E+01 0.  1.
</event>
<event>
12    1  0.9749377E-001  0.4700084E+03  0.7818608E-02  0.1021918E+00
         21   -1    0    0  503  502  0.00000000000E+00  0.00000000000E+00  0.83271924403E+02  0.83271924403E+02  0.00000000000E+00 0. -1.
         21   -1    0    0  501  503 -0.00000000000E+00 -0.00000000000E+00 -0.33602251570E+04  0.33602251570E+04  0.00000000000E+00 0.  1.
          6    2    1    2  501    0  0.36982261262E+03  0.27771384114E+03 -0.10386172589E+04  0.11514559330E+04  0.18229430290E+03 0.  0.
         24    2    3    3    0    0  0.34891832124E+03  0.24793915665E+03 -0.10225159281E+04  0.11113951781E+04  0.80265798141E+02 0.  0.
         -6    2    1    2    0  502 -0.36982261262E+03 -0.27771384114E+03 -0.22383359737E+04  0.22920411483E+04  0.17149621656E+03 0.  0.
        -24    2    5    5    0    0 -0.21807017873E+03 -0.22235177248E+03 -0.17031438486E+04  0.17329825999E+04  0.74396296832E+02 0.  0.
         12    1    4    4    0    0  0.14832398648E+03  0.11859610587E+03 -0.35691187889E+03  0.40429089847E+03  0.00000000000E+00 0. -1.
        -11    1    4    4    0    0  0.20059433476E+03  0.12934305078E+03 -0.66560404919E+03  0.70710427959E+03  0.00000000000E+00 0.  1.
          5    1    3    3  501    0  0.20904291384E+02  0.29774684485E+02 -0.16101330816E+02  0.40060754967E+02  0.47000000000E+01 0. -1.
         13    1    6    6    0    0 -0.16383892337E+03 -0.14573831845E+03 -0.13442407854E+04  0.13620081275E+04  0.00000000000E+00 0. -1.
        -14    1    6    6    0    0 -0.54231255363E+02 -0.76613454027E+02 -0.35890306329E+03  0.37097447248E+03  0.00000000000E+00 0.  1.
         -5    1    5    5    0  502 -0.15175243389E+03 -0.55362068659E+02 -0.53519212502E+03  0.55905854839E+03  0.47000000000E+01 0.  1.
</event>
<event>
12    1  0.9749377E-001  0.3635961E+03  0.7818608E-02  0.1057169E+00
         21   -1    0    0  503  502  0.00000000000E+00  0.00000000000E+00  0.92657009717E+02  0.92657009717E+02  0.00000000000E+00 0.  1.
         21   -1    0    0  501  503 -0.00000000000E+00 -0.00000000000E+00 -0.16875702761E+04  0.16875702761E+04  0.00000000000E+00 0. -1.
          6    2    1    2  501    0  0.10745624632E+02 -0.35769954963E+03 -0.80309694029E+03  0.89525937389E+03  0.16870155531E+03 0.  0.
         24    2    3    3    0    0  0.23066122251E+02 -0.32818581354E+03 -0.59440669844E+03  0.68408039216E+03  0.80054266455E+02 0.  0.
         -6    2    1    2    0  502 -0.10745624632E+02  0.35769954963E+03 -0.79181632612E+03  0.88496791196E+03  0.16772201596E+03 0.  0.
        -24    2    5    5    0    0 -0.12820388297E+02  0.27240887582E+03 -0.44521117819E+03  0.52798608854E+03  0.78647050312E+02 0.  0.
         14    1    4    4    0    0  0.54633580146E+01 -0.10240828625E+03 -0.26669597426E+03  0.28573422626E+03  0.00000000000E+00 0. -1.
        -13    1    4    4    0    0  0.17602764236E+02 -0.22577752728E+03 -0.32771072419E+03  0.39834616590E+03  0.00000000000E+00 0.  1.
          5    1    3    3  501    0 -0.12320497619E+02 -0.29513736095E+02 -0.20869024185E+03  0.21117898173E+03  0.47000000000E+01 0. -1.
         11    1    6    6    0    0  0.25810771779E+02  0.14458542402E+03 -0.19212836736E+03  0.24183558531E+03  0.00000000000E+00 0. -1.
        -12    1    6    6    0    0 -0.38631160076E+02  0.12782345181E+03 -0.25308281084E+03  0.28615050323E+03  0.00000000000E+00 0.  1.
         -5    1    5    5    0  502  0.20747636652E+01  0.85290673808E+02 -0.34660514792E+03  0.35698182342E+03  0.47000000000E+01 0.  1.
</event>
<event>
12    1  0.9749377E-001  0.1503040E+03  0.7818608E-02  0.1200100E+00
         21   -1    0    0  503  502  0.00000000000E+00  0.00000000000E+00  0.14737553585E+03  0.14737553585E+03  0.00000000000E+00 0.  1.
         21   -1    0    0  501  503 -0.00000000000E+00 -0.00000000000E+00 -0.22782247755E+03  0.22782247755E+03  0.00000000000E+00 0.  1.
          6    2    1    2  501    0 -0.36005397641E+02 -0.44332236243E+02 -0.13330418529E+02  0.18122353962E+03  0.17147167528E+03 0.  0.
         24    2    3    3    0    0 -0.28916400487E+02 -0.72350982678E+02  0.42371869006E+02  0.11829390535E+03  0.78276751645E+02 0.  0.
         -6    2    1    2    0  502  0.36005397641E+02  0.44332236243E+02 -0.67116523172E+02  0.19397447379E+03  0.17279969031E+03 0.  0.
        -24    2    5    5    0    0  0.36671321912E+02  0.94277652423E+02 -0.46411132826E+02  0.13969932992E+03  0.84432505193E+02 0.  0.
         12    1    4    4    0    0 -0.26631573410E+02 -0.88461363482E+02  0.43234648015E+02  0.10199945255E+03  0.00000000000E+00 0. -1.
        -11    1    4    4    0    0 -0.22848270770E+01  0.16110380804E+02 -0.86277900923E+00  0.16294452800E+02  0.00000000000E+00 0.  1.
          5    1    3    3  501    0 -0.70889971535E+01  0.28018746435E+02 -0.55702287535E+02  0.62929634268E+02  0.47000000000E+01 0. -1.
         13    1    6    6    0    0 -0.12247662383E+02  0.15266634364E+02 -0.42381889234E+02  0.46682972203E+02  0.00000000000E+00 0. -1.
        -14    1    6    6    0    0  0.48918984295E+02  0.79011018059E+02 -0.40292435918E+01  0.93016357718E+02  0.00000000000E+00 0.  1.
         -5    1    5    5    0  502 -0.66592427157E+00 -0.49945416180E+02 -0.20705390346E+02  0.54275143868E+02  0.47000000000E+01 0.  1.
</event>
<event>
12    1  0.9749377E-001  0.7178288E+03  0.7818608E-02  0.9687219E-01
         21   -1    0    0  501  502  0.00000000000E+00  0.00000000000E+00  0.99375245789E+03  0.99375245789E+03  0.00000000000E+00 0.  1.
         21   -1    0    0  502  503 -0.00000000000E+00 -0.00000000000E+00 -0.69768345261E+03  0.69768345261E+03  0.00000000000E+00 0. -1.
         -6    2    1    2    0  503  0.11987343526E+03  0.70055533288E+03 -0.25653225611E+03  0.77493201938E+03  0.17194016785E+03 0.  0.
        -24    2    3    3    0    0  0.89430034906E+02  0.58556565605E+03 -0.15284894263E+03  0.61706579152E+03  0.80762139119E+02 0.  0.
          6    2    1    2  501    0 -0.11987343526E+03 -0.70055533288E+03  0.55260126140E+03  0.91650389112E+03  0.17165026490E+03 0.  0.
         24    2    5    5    0    0 -0.95079707786E+02 -0.42438767314E+03  0.41717047971E+03  0.60788293941E+03  0.79658087704E+02 0.  0.
         12    1    6    6    0    0 -0.55422852684E+02 -0.37061151155E+03  0.36494663610E+03  0.52307803652E+03  0.00000000000E+00 0. -1.
        -11    1    6    6    0    0 -0.39656855103E+02 -0.53776161591E+02  0.52223843616E+02  0.84804902890E+02  0.00000000000E+00 0.  1.
          5    1    5    5  501    0 -0.24793727478E+02 -0.27616765974E+03  0.13543078168E+03  0.30862095171E+03  0.47000000000E+01 0. -1.
         13    1    4    4    0    0  0.25380963643E+02  0.41129526374E+03 -0.11032767858E+03  0.42659135476E+03  0.00000000000E+00 0. -1.
        -14    1    4    4    0    0  0.64049071263E+02  0.17427039231E+03 -0.42521264057E+02  0.19047443677E+03  0.00000000000E+00 0.  1.
         -5    1    3    3    0  503  0.30443400358E+02  0.11498967683E+03 -0.10368331348E+03  0.15786622785E+03  0.47000000000E+01 0.  1.
</event>
<event>
12    1  0.9749377E-001  0.2534692E+03  0.7818608E-02  0.1111132E+00
         21   -1    0    0  503  502  0.00000000000E+00  0.00000000000E+00  0.16361414692E+03  0.16361414692E+03  0.00000000000E+00 0. -1.
         21   -1    0    0  501  503 -0.00000000000E+00 -0.00000000000E+00 -0.51382850554E+03  0.51382850554E+03  0.00000000000E+00 0.  1.
          6    2    1    2  501    0  0.13150032330E+01 -0.21393871052E+03 -0.67209160352E+02  0.28207316496E+03  0.17110434846E+03 0.  0.
         24    2    3    3    0    0 -0.19249886913E+02 -0.19489135683E+03 -0.28834149609E+01  0.21174814872E+03  0.80472139836E+02 0.  0.
         -6    2    1    2    0  502 -0.13150032330E+01  0.21393871052E+03 -0.28300519827E+03  0.39536948750E+03  0.17450956508E+03 0.  0.
        -24    2    5    5    0    0  0.68065080958E+02  0.14781196370E+03 -0.17448381604E+03  0.25050636890E+03  0.76338764359E+02 0.  0.
         12    1    4    4    0    0  0.20711036111E+02 -0.14023354312E+03  0.12532160216E+02  0.14230758473E+03  0.00000000000E+00 0. -1.
        -11    1    4    4    0    0 -0.39960923023E+02 -0.54657813713E+02 -0.15415575177E+02  0.69440563987E+02  0.00000000000E+00 0.  1.
          5    1    3    3  501    0  0.20564890146E+02 -0.19047353693E+02 -0.64325745391E+02  0.70325016243E+02  0.47000000000E+01 0. -1.
         11    1    6    6    0    0  0.19152326823E+02  0.10895307375E+03 -0.77220522280E+02  0.13490957328E+03  0.00000000000E+00 0. -1.
        -12    1    6    6    0    0  0.48912754135E+02  0.38858889948E+02 -0.97263293757E+02  0.11559679562E+03  0.00000000000E+00 0.  1.
         -5    1    5    5    0  502 -0.69380084191E+02  0.66126746827E+02 -0.10852138223E+03  0.14486311860E+03  0.47000000000E+01 0.  1.
</event>
<event>
12    1  0.9749377E-001  0.2058705E+03  0.7818608E-02  0.1144878E+00
         21   -1    0    0  503  502  0.00000000000E+00  0.00000000000E+00  0.33583145892E+03  0.33583145892E+03  0.00000000000E+00 0.  1.
         21   -1    0    0  501  503 -0.00000000000E+00 -0.00000000000E+00 -0.17823898418E+03  0.17823898418E+03  0.00000000000E+00 0. -1.
          6    2    1    2  501    0  0.99727975482E+02 -0.14271832547E+03  0.67840016496E+02  0.25229140765E+03  0.16951252761E+03 0.  0.
         24    2    3    3    0    0  0.77308765268E+01 -0.85475085186E+02  0.80570006425E+02  0.14309251838E+03  0.81352235628E+02 0.  0.
         -6    2    1    2    0  502 -0.99727975482E+02  0.14271832547E+03  0.89752458246E+02  0.26177903546E+03  0.17366222999E+03 0.  0.
        -24    2    5    5    0    0 -0.32643705649E+02  0.10528767131E+03 -0.64324366451E+01  0.13859227832E+03  0.83757615291E+02 0.  0.
         14    1    4    4    0    0  0.27682647670E+02 -0.68791162958E+02  0.88915762031E+02  0.11577808869E+03  0.00000000000E+00 0. -1.
        -13    1    4    4    0    0 -0.19951771143E+02 -0.16683922228E+02 -0.83457556067E+01  0.27314429690E+02  0.00000000000E+00 0.  1.
          5    1    3    3  501    0  0.91997098955E+02 -0.57243240282E+02 -0.12729989929E+02  0.10919888927E+03  0.47000000000E+01 0. -1.
         13    1    6    6    0    0 -0.46679578293E+02  0.47127106412E+02  0.25147630642E+02  0.70939061985E+02  0.00000000000E+00 0. -1.
        -14    1    6    6    0    0  0.14035872643E+02  0.58160564898E+02 -0.31580067287E+02  0.67653216331E+02  0.00000000000E+00 0.  1.
         -5    1    5    5    0  502 -0.67084269833E+02  0.37430654158E+02  0.96184894891E+02  0.12318675714E+03  0.47000000000E+01 0.  1.
</event>
<event>
12    1  0.9749377E-001  0.3430215E+03  0.7818608E-02  0.1065516E+00
         21   -1    0    0  503  502  0.00000000000E+00  0.00000000000E+00  0.26855172811E+03  0.26855172811E+03  0.00000000000E+00 0. -1.
         21   -1    0    0  501  503 -0.00000000000E+00 -0.00000000000E+00 -0.57512501002E+03  0.57512501002E+03  0.00000000000E+00 0.  1.
          6    2    1    2  501    0 -0.28051528433E+03 -0.14177171634E+03 -0.32664534481E+03  0.48490767942E+03  0.17219242719E+03 0.  0.
         24    2    3    3    0    0 -0.51532199972E+02 -0.55514643022E+02 -0.13269447223E+03  0.17263765749E+03  0.80364759701E+02 0.  0.
         -6    2    1    2    0  502  0.28051528433E+03  0.14177171634E+03  0.20072062910E+02  0.35876905871E+03  0.17182638180E+03 0.  0.
        -24    2    5    5    0    0  0.23984475327E+03  0.16660504176E+03  0.40416071914E+02  0.30674257651E+03  0.84704213355E+02 0.  0.
         14    1    4    4    0    0 -0.45270085841E+01 -0.54175007136E+02 -0.36254255439E+02  0.65343677906E+02  0.00000000000E+00 0. -1.
        -13    1    4    4    0    0 -0.47005191388E+02 -0.13396358860E+01 -0.96440216789E+02  0.10729397959E+03  0.00000000000E+00 0.  1.
          5    1    3    3  501    0 -0.22898308436E+03 -0.86257073314E+02 -0.19395087259E+03  0.31227002193E+03  0.47000000000E+01 0. -1.
         13    1    6    6    0    0  0.13569369593E+03  0.93468627442E+02 -0.19791354992E+02  0.16595439483E+03  0.00000000000E+00 0. -1.
        -14    1    6    6    0    0  0.10415105735E+03  0.73136414320E+02  0.60207426906E+02  0.14078818168E+03  0.00000000000E+00 0.  1.
         -5    1    5    5    0  502  0.40670531054E+02 -0.24833325426E+02 -0.20344009004E+02  0.52026482202E+02  0.47000000000E+01 0.  1.
</event>
<event>
12    1  0.9749377E-001  0.1018190E+04  0.7818608E-02  0.9288816E-01
         21   -1    0    0  503  502  0.00000000000E+00  0.00000000000E+00  0.12136730226E+04  0.12136730226E+04  0.00000000000E+00 0. -1.
         21   -1    0    0  501  503 -0.00000000000E+00 -0.00000000000E+00 -0.87191103496E+03  0.87191103496E+03  0.00000000000E+00 0.  1.
          6    2    1    2  501    0 -0.13328895162E+03  0.10039145160E+04  0.22490496895E+03  0.10516102654E+04  0.17231252135E+03 0.  0.
         24    2    3    3    0    0 -0.13778283298E+03  0.76815173731E+03  0.11987349798E+03  0.79342819259E+03  0.78214069652E+02 0.  0.
         -6    2    1    2    0  502  0.13328895162E+03 -0.10039145160E+04  0.11685701865E+03  0.10339737922E+04  0.17273083092E+03 0.  0.
        -24    2    5    5    0    0  0.91231234012E+02 -0.54324504708E+03  0.12879930197E+03  0.57121044080E+03  0.79080896899E+02 0.  0.
         14    1    4    4    0    0 -0.11627682091E+03  0.48569047329E+03  0.51872310644E+02  0.50210185375E+03  0.00000000000E+00 0. -1.
        -13    1    4    4    0    0 -0.21506012065E+02  0.28246126402E+03  0.68001187338E+02  0.29132633885E+03  0.00000000000E+00 0.  1.
          5    1    3    3  501    0  0.44938813538E+01  0.23576277873E+03  0.10503147097E+03  0.25818207276E+03  0.47000000000E+01 0. -1.
         11    1    6    6    0    0  0.10265197388E+03 -0.46868284689E+03  0.97808997532E+02  0.48966073837E+03  0.00000000000E+00 0. -1.
        -12    1    6    6    0    0 -0.11420739864E+02 -0.74562200197E+02  0.30990304434E+02  0.81549702428E+02  0.00000000000E+00 0.  1.
         -5    1    5    5    0  502  0.42057717612E+02 -0.46066946895E+03 -0.11942283320E+02  0.46276335136E+03  0.47000000000E+01 0.  1.
</event>
<event>
12    1  0.9749377E-001  0.5240786E+03  0.7818608E-02  0.1007678E+00
         21   -1    0    0  501  502  0.00000000000E+00  0.00000000000E+00  0.46200990021E+03  0.46200990021E+03  0.00000000000E+00 0. -1.
         21   -1    0    0  502  503 -0.00000000000E+00 -0.00000000000E+00 -0.12024500663E+04  0.12024500663E+04  0.00000000000E+00 0.  1.
         -6    2    1    2    0  503  0.18003963833E+03  0.48167697836E+03 -0.94141724495E+03  0.10863491518E+04  0.17164226690E+03 0.  0.
        -24    2    3    3    0    0  0.35678091545E+02  0.13530195836E+03 -0.20574450878E+03  0.26048452891E+03  0.77083336457E+02 0.  0.
          6    2    1    2  501    0 -0.18003963833E+03 -0.48167697836E+03  0.20097707887E+03  0.57811081466E+03  0.17144487435E+03 0.  0.
         24    2    5    5    0    0 -0.18516816456E+03 -0.39642489892E+03  0.20995786313E+03  0.49210521417E+03  0.81518635111E+02 0.  0.
         14    1    6    6    0    0 -0.16824200599E+03 -0.34343529531E+03  0.15132023405E+03  0.41127969543E+03  0.00000000000E+00 0. -1.
        -13    1    6    6    0    0 -0.16926158571E+02 -0.52989603615E+02  0.58637629075E+02  0.80825518734E+02  0.00000000000E+00 0.  1.
          5    1    5    5  501    0  0.51285262288E+01 -0.85252079437E+02 -0.89807842603E+01  0.86005600489E+02  0.47000000000E+01 0. -1.
         11    1    4    4    0    0  0.49251238596E+02  0.11120597242E+03 -0.12190449778E+03  0.17220092736E+03  0.00000000000E+00 0. -1.
        -12    1    4    4    0    0 -0.13573147051E+02  0.24095985939E+02 -0.83840010992E+02  0.88283601549E+02  0.00000000000E+00 0.  1.
         -5    1    3    3    0  503  0.14436154679E+03  0.34637502000E+03 -0.73567273617E+03  0.82586462293E+03  0.47000000000E+01 0.  1.
</event>
<event>
12    1  0.9749377E-001  0.3626144E+03  0.7818608E-02  0.1057553E+00
         21   -1    0    0  503  502  0.00000000000E+00  0.00000000000E+00  0.15992558591E+03  0.15992558591E+03  0.00000000000E+00 0.  1.
         21   -1    0    0  501  503 -0.00000000000E+00 -0.00000000000E+00 -0.96446416283E+03  0.96446416283E+03  0.00000000000E+00 0. -1.
          6    2    1    2  501    0 -0.14853816226E+03 -0.30754660184E+03 -0.53435129012E+03  0.65605283185E+03  0.16800452070E+03 0.  0.
         24    2    3    3    0    0 -0.11194367805E+03 -0.15237722278E+03 -0.20008186458E+03  0.28568162438E+03  0.76361200197E+02 0.  0.
         -6    2    1    2    0  502  0.14853816226E+03  0.30754660184E+03 -0.27018728680E+03  0.46833691688E+03  0.17230728312E+03 0.  0.
        -24    2    5    5    0    0  0.72523140677E+02  0.23388829248E+03 -0.25090106081E+03  0.36064346974E+03  0.84551940584E+02 0.  0.
         14    1    4    4    0    0 -0.41667767005E+02 -0.11531918974E+03 -0.13979200388E+03  0.18594763424E+03  0.00000000000E+00 0. -1.
        -13    1    4    4    0    0 -0.70275911049E+02 -0.37058033043E+02 -0.60289860702E+02  0.99733990145E+02  0.00000000000E+00 0.  1.
          5    1    3    3  501    0 -0.36594484208E+02 -0.15516937906E+03 -0.33426942554E+03  0.37037120747E+03  0.47000000000E+01 0. -1.
         11    1    6    6    0    0  0.18833103728E+02  0.11524503945E+01 -0.97895752383E+01  0.21256757074E+02  0.00000000000E+00 0. -1.
        -12    1    6    6    0    0  0.53690036949E+02  0.23273584208E+03 -0.24111148558E+03  0.33938671267E+03  0.00000000000E+00 0.  1.
         -5    1    5    5    0  502  0.76015021585E+02  0.73658309366E+02 -0.19286225981E+02  0.10769344714E+03  0.47000000000E+01 0.  1.
</event>
<event>
12    1  0.9749377E-001  0.6088874E+03  0.7818608E-02  0.9887137E-01
         21   -1    0    0  503  502  0.00000000000E+00  0.00000000000E+00  0.25788256980E+04  0.25788256980E+04  0.00000000000E+00 0. -1.
         21   -1    0    0  501  503 -0.00000000000E+00 -0.00000000000E+00 -0.31078804900E+03  0.31078804900E+03  0.00000000000E+00 0.  1.
          6    2    1    2  501    0 -0.54908305229E+03  0.21683059448E+03  0.83286214765E+02  0.61988729114E+03  0.16975262923E+03 0.  0.
         24    2    3    3    0    0 -0.10225028713E+03  0.52678541118E+02 -0.21084551922E+01  0.13623477507E+03  0.72974779495E+02 0.  0.
         -6    2    1    2    0  502  0.54908305229E+03 -0.21683059448E+03  0.21847514343E+04  0.22697264559E+04  0.17323870823E+03 0.  0.
        -24    2    5    5    0    0  0.35673068812E+03 -0.67774887001E+02  0.13139575008E+04  0.13655576661E+04  0.80082496752E+02 0.  0.
         12    1    4    4    0    0 -0.46910936309E+02 -0.42447461491E+01 -0.25379408991E+02  0.53504842920E+02  0.00000000000E+00 0. -1.
        -11    1    4    4    0    0 -0.55339350820E+02  0.56923287268E+02  0.23270953799E+02  0.82729932148E+02  0.00000000000E+00 0.  1.
          5    1    3    3  501    0 -0.44683276516E+03  0.16415205336E+03  0.85394669957E+02  0.48365251607E+03  0.47000000000E+01 0. -1.
         11    1    6    6    0    0  0.58286787219E+02  0.18536931121E+02  0.21560741083E+03  0.22411497716E+03  0.00000000000E+00 0. -1.
        -12    1    6    6    0    0  0.29844390090E+03 -0.86311818123E+02  0.10983500900E+04  0.11414426889E+04  0.00000000000E+00 0.  1.
         -5    1    5    5    0  502  0.19235236416E+03 -0.14905570747E+03  0.87079393345E+03  0.90416878980E+03  0.47000000000E+01 0.  1.
</event>
<event>
12    1  0.9749377E-001  0.2508647E+03  0.7818608E-02  0.1112760E+00
         21   -1    0    0  503  502  0.00000000000E+00  0.00000000000E+00  0.10514364681E+04  0.10514364681E+04  0.00000000000E+00 0.  1.
         21   -1    0    0  501  503 -0.00000000000E+00 -0.00000000000E+00 -0.13666251599E+03  0.13666251599E+03  0.00000000000E+00 0. -1.
          6    2    1    2  501    0  0.11784074396E+03 -0.16487020872E+03  0.87894990135E+03  0.91825661762E+03  0.17196993939E+03 0.  0.
         24    2    3    3    0    0  0.13431934137E+03 -0.17830072570E+03  0.84301718829E+03  0.87624265771E+03  0.85383729047E+02 0.  0.
         -6    2    1    2    0  502 -0.11784074396E+03  0.16487020872E+03  0.35824050733E+02  0.26984236644E+03  0.17453628120E+03 0.  0.
        -24    2    5    5    0    0 -0.44899427591E+02  0.14948438836E+03 -0.20038387404E+02  0.17656932051E+03  0.80085248413E+02 0.  0.
         14    1    4    4    0    0  0.10333113314E+03 -0.67664421784E+02  0.46757833729E+03  0.48361689234E+03  0.00000000000E+00 0. -1.
        -13    1    4    4    0    0  0.30988208233E+02 -0.11063630392E+03  0.37543885100E+03  0.39262576537E+03  0.00000000000E+00 0.  1.
          5    1    3    3  501    0 -0.16478597412E+02  0.13430516986E+02  0.35932713062E+02  0.42013959909E+02  0.47000000000E+01 0. -1.
         11    1    6    6    0    0 -0.50462920277E+02  0.65492673557E+02  0.17323760463E+02  0.84474311415E+02  0.00000000000E+00 0. -1.
        -12    1    6    6    0    0  0.55634926858E+01  0.83991714807E+02 -0.37362147867E+02  0.92095009096E+02  0.00000000000E+00 0.  1.
         -5    1    5    5    0  502 -0.72941316370E+02  0.15385820354E+02  0.55862438137E+02  0.93273045926E+02  0.47000000000E+01 0.  1.
</event>
<event>
12    1  0.9749377E-001  0.2632853E+03  0.7818608E-02  0.1105185E+00
         21   -1    0    0  501  502  0.00000000000E+00  0.00000000000E+00  0.37862126815E+03  0.37862126815E+03  0.00000000000E+00 0.  1.
         21   -1    0    0  502  503 -0.00000000000E+00 -0.00000000000E+00 -0.27379962081E+03  0.27379962081E+03  0.00000000000E+00 0. -1.
         -6    2    1    2    0  503  0.17263613176E+03 -0.14672322585E+03 -0.10076759297E+03  0.30106743365E+03  0.17075289989E+03 0.  0.
        -24    2    3    3    0    0  0.10762372758E+03 -0.13487562942E+03 -0.12856408991E+03  0.22922236784E+03  0.78992825982E+02 0.  0.
          6    2    1    2  501    0 -0.17263613176E+03  0.14672322585E+03  0.20558924030E+03  0.35135345531E+03  0.17277550704E+03 0.  0.
         24    2    5    5    0    0 -0.18566659467E+03  0.80404310944E+02  0.15045743715E+03  0.26400589004E+03  0.78260666937E+02 0.  0.
         14    1    6    6    0    0 -0.51829396823E+02  0.63585862536E+02  0.58355541079E+02  0.10067183054E+03  0.00000000000E+00 0. -1.
        -13    1    6    6    0    0 -0.13383719785E+03  0.16818448409E+02  0.92101896067E+02  0.16333405951E+03  0.00000000000E+00 0.  1.
          5    1    5    5  501    0  0.13030462910E+02  0.66318914905E+02  0.55131803157E+02  0.87347565262E+02  0.47000000000E+01 0. -1.
         11    1    4    4    0    0  0.34943296719E+02 -0.69943661443E+02 -0.15072088095E+02  0.79626111303E+02  0.00000000000E+00 0. -1.
        -12    1    4    4    0    0  0.72680430862E+02 -0.64931967974E+02 -0.11349200182E+03  0.14959625654E+03  0.00000000000E+00 0.  1.
         -5    1    3    3    0  503  0.65012404183E+02 -0.11847596433E+02  0.27796496945E+02  0.71845065811E+02  0.47000000000E+01 0.  1.
</event>
<event>
12    1  0.9749377E-001  0.1865583E+03  0.7818608E-02  0.1161603E+00
         21   -1    0    0  503  502  0.00000000000E+00  0.00000000000E+00  0.66947894988E+03  0.66947894988E+03  0.00000000000E+00 0. -1.
         21   -1    0    0  501  503 -0.00000000000E+00 -0.00000000000E+00 -0.98295791196E+02  0.98295791196E+02  0.00000000000E+00 0.  1.
          6    2    1    2  501    0  0.16871926720E+03  0.16356347530E+02  0.41501083214E+03  0.48033593865E+03  0.17249609253E+03 0.  0.
         24    2    3    3    0    0  0.10557039837E+02  0.13429314416E+01  0.10467198772E+03  0.13166276621E+03  0.79155571108E+02 0.  0.
         -6    2    1    2    0  502 -0.16871926720E+03 -0.16356347530E+02  0.15617232655E+03  0.28743880243E+03  0.17174850315E+03 0.  0.
        -24    2    5    5    0    0 -0.66244231236E+02 -0.19759396488E+02  0.15289916249E+03  0.18474743307E+03  0.77296366122E+02 0.  0.
         14    1    4    4    0    0  0.25286027036E+02  0.36858118258E+01 -0.38130570256E+00  0.25556090588E+02  0.00000000000E+00 0. -1.
        -13    1    4    4    0    0 -0.14728987199E+02 -0.23428803842E+01  0.10505329342E+03  0.10610667562E+03  0.00000000000E+00 0.  1.
          5    1    3    3  501    0  0.15816222736E+03  0.15013416088E+02  0.31033884442E+03  0.34867317244E+03  0.47000000000E+01 0. -1.
         11    1    6    6    0    0 -0.84827542585E+01  0.29801026761E+01 -0.81585051047E+01  0.12140812877E+02  0.00000000000E+00 0. -1.
        -12    1    6    6    0    0 -0.57761476978E+02 -0.22739499164E+02  0.16105766759E+03  0.17260662020E+03  0.00000000000E+00 0.  1.
         -5    1    5    5    0  502 -0.10247503596E+03  0.34030489586E+01  0.32731640610E+01  0.10269136936E+03  0.47000000000E+01 0.  1.
</event>
<event>
12    1  0.9749377E-001  0.2320302E+03  0.7818608E-02  0.1125219E+00
         21   -1    0    0  501  502  0.00000000000E+00  0.00000000000E+00  0.94553098408E+03  0.94553098408E+03  0.00000000000E+00 0.  1.
         21   -1    0    0  502  503 -0.00000000000E+00 -0.00000000000E+00 -0.80076296532E+02  0.80076296532E+02  0.00000000000E+00 0. -1.
         -6    2    1    2    0  503  0.13679526543E+03 -0.16073525912E+03  0.48648141584E+03  0.55752885837E+03  0.17212057341E+03 0.  0.
        -24    2    3    3    0    0  0.75347852880E+02 -0.14832274519E+03  0.23272499463E+03  0.29610149500E+03  0.76408353880E+02 0.  0.
          6    2    1    2  501    0 -0.13679526543E+03  0.16073525912E+03  0.37897327171E+03  0.46807842225E+03  0.17586330069E+03 0.  0.
         24    2    5    5    0    0 -0.27499516745E+02  0.47936592112E+02  0.23170929205E+03  0.25272320483E+03  0.84413754539E+02 0.  0.
         12    1    6    6    0    0 -0.63025178907E+01 -0.49830196141E+01  0.16406271842E+03  0.16425933091E+03  0.00000000000E+00 0. -1.
        -11    1    6    6    0    0 -0.21196998854E+02  0.52919611726E+02  0.67646573629E+02  0.88463873922E+02  0.00000000000E+00 0.  1.
          5    1    5    5  501    0 -0.10929574869E+03  0.11279866701E+03  0.14726397967E+03  0.21535521741E+03  0.47000000000E+01 0. -1.
         11    1    4    4    0    0 -0.10780219164E+02 -0.35371679203E+02  0.76425712569E+02  0.84901462629E+02  0.00000000000E+00 0. -1.
        -12    1    4    4    0    0  0.86128072043E+02 -0.11295106599E+03  0.15629928206E+03  0.21120003237E+03  0.00000000000E+00 0.  1.
         -5    1    3    3    0  503  0.61447412554E+02 -0.12412513924E+02  0.25375642121E+03  0.26142736336E+03  0.47000000000E+01 0.  1.
</event>
<event>
12    1  0.9749377E-001  0.5816322E+03  0.7818608E-02  0.9944264E-01
         21   -1    0    0  501  502  0.00000000000E+00  0.00000000000E+00  0.65472825001E+03  0.65472825001E+03  0.00000000000E+00 0.  1.
         21   -1    0    0  502  503 -0.00000000000E+00 -0.00000000000E+00 -0.61151813117E+03  0.61151813117E+03  0.00000000000E+00 0. -1.
         -6    2    1    2    0  503  0.47306432856E+03 -0.31747084029E+03 -0.19196796805E+03  0.62562795894E+03  0.17315036491E+03 0.  0.
        -24    2    3    3    0    0  0.12947709738E+03 -0.14825319766E+03 -0.76403052207E+02  0.22554779725E+03  0.79316159119E+02 0.  0.
          6    2    1    2  501    0 -0.47306432856E+03  0.31747084029E+03  0.23517808689E+03  0.64061842224E+03  0.17465862983E+03 0.  0.
         24    2    5    5    0    0 -0.41526768431E+03  0.29095693985E+03  0.15164847959E+03  0.53553405472E+03  0.81830751673E+02 0.  0.
         12    1    6    6    0    0 -0.61730828522E+02  0.81829838701E+02  0.22409144127E+02  0.10492372197E+03  0.00000000000E+00 0. -1.
        -11    1    6    6    0    0 -0.35353685579E+03  0.20912710115E+03  0.12923933547E+03  0.43061033275E+03  0.00000000000E+00 0.  1.
          5    1    5    5  501    0 -0.57796644250E+02  0.26513900436E+02  0.83529607295E+02  0.10508436752E+03  0.47000000000E+01 0. -1.
         13    1    4    4    0    0  0.99814961042E+02 -0.77091319238E+02 -0.78262766513E+02  0.14842896810E+03  0.00000000000E+00 0. -1.
        -14    1    4    4    0    0  0.29662136340E+02 -0.71161878418E+02  0.18597143060E+01  0.77118829150E+02  0.00000000000E+00 0.  1.
         -5    1    3    3    0  503  0.34358723118E+03 -0.16921764263E+03 -0.11556491584E+03  0.40008016169E+03  0.47000000000E+01 0.  1.
</event>
<event>
12    1  0.9749377E-001  0.5778138E+03  0.7818608E-02  0.9952535E-01
         21   -1    0    0  501  502  0.00000000000E+00  0.00000000000E+00  0.43223880741E+03  0.43223880741E+03  0.00000000000E+00 0.  1.
         21   -1    0    0  502  503 -0.00000000000E+00 -0.00000000000E+00 -0.87260426750E+03  0.87260426750E+03  0.00000000000E+00 0. -1.
         -6    2    1    2    0  503 -0.50210749778E+03 -0.27341529865E+03 -0.37016000197E+03  0.70249936754E+03  0.17210191592E+03 0.  0.
        -24    2    3    3    0    0 -0.17574086139E+03 -0.15619897045E+03 -0.18172446264E+03  0.30780341946E+03  0.80225905883E+02 0.  0.
          6    2    1    2  501    0  0.50210749778E+03  0.27341529865E+03 -0.70205458117E+02  0.60234370737E+03  0.17612856268E+03 0.  0.
         24    2    5    5    0    0  0.22605749627E+03  0.12928168055E+03  0.32669850713E+02  0.27434443546E+03  0.79886203939E+02 0.  0.
         12    1    6    6    0    0  0.61934074278E+02  0.22133139694E+02  0.42140764417E+02  0.78112415499E+02  0.00000000000E+00 0. -1.
        -11    1    6    6    0    0  0.16412342199E+03  0.10714854086E+03 -0.94709137041E+01  0.19623201997E+03  0.00000000000E+00 0.  1.
          5    1    5    5  501    0  0.27605000152E+03  0.14413361809E+03 -0.10287530883E+03  0.32799927190E+03  0.47000000000E+01 0. -1.
         11    1    4    4    0    0 -0.15786547915E+03 -0.13380585079E+03 -0.11869422704E+03  0.23856620621E+03  0.00000000000E+00 0. -1.
        -12    1    4    4    0    0 -0.17875382241E+02 -0.22393119667E+02 -0.63030235602E+02  0.69237213251E+02  0.00000000000E+00 0.  1.
         -5    1    3    3    0  503 -0.32636663639E+03 -0.11721632819E+03 -0.18843553933E+03  0.39469594808E+03  0.47000000000E+01 0.  1.
</event>
<event>
12    1  0.9749377E-001  0.1145034E+04  0.7818608E-02  0.9162377E-01
         21   -1    0    0  501  502  0.00000000000E+00  0.00000000000E+00  0.19916004591E+04  0.19916004591E+04  0.00000000000E+00 0.  1.
         21   -1    0    0  502  503 -0.00000000000E+00 -0.00000000000E+00 -0.67099013985E+03  0.67099013985E+03  0.00000000000E+00 0. -1.
         -6    2    1    2    0  503 -0.37848143074E+03 -0.10763075588E+04  0.74462922492E+03  0.13732276622E+04  0.17203306356E+03 0.  0.
        -24    2    3    3    0    0 -0.21220851226E+03 -0.56464417125E+03  0.47237277722E+03  0.77024195014E+03  0.79253569596E+02 0.  0.
          6    2    1    2  501    0  0.37848143074E+03  0.10763075588E+04  0.57598109429E+03  0.12893629367E+04  0.17034202959E+03 0.  0.
         24    2    5    5    0    0  0.37751400631E+03  0.10365026415E+04  0.58009196865E+03  0.12490596287E+04  0.82393647106E+02 0.  0.
         12    1    6    6    0    0  0.49138936392E+02  0.79728053066E+02  0.64189864517E+02  0.11354090110E+03  0.00000000000E+00 0. -1.
        -11    1    6    6    0    0  0.32837506992E+03  0.95677458845E+03  0.51590210413E+03  0.11355187276E+04  0.00000000000E+00 0.  1.
          5    1    5    5  501    0  0.96742442796E+00  0.39804917307E+02 -0.41108743570E+01  0.40303308051E+02  0.47000000000E+01 0. -1.
         13    1    4    4    0    0 -0.21582216346E+03 -0.53521379285E+03  0.43578111989E+03  0.72314465687E+03  0.00000000000E+00 0. -1.
        -14    1    4    4    0    0  0.36136512022E+01 -0.29430378398E+02  0.36591657324E+02  0.47097293270E+02  0.00000000000E+00 0.  1.
         -5    1    3    3    0  503 -0.16627291848E+03 -0.51166338758E+03  0.27225644770E+03  0.60298571204E+03  0.47000000000E+01 0.  1.
</event>
<event>
12    1  0.9749377E-001  0.8217025E+03  0.7818608E-02  0.9529124E-01
         21   -1    0    0  503  502  0.00000000000E+00  0.00000000000E+00  0.20360291435E+04  0.20360291435E+04  0.00000000000E+00 0. -1.
         21   -1    0    0  501  503 -0.00000000000E+00 -0.00000000000E+00 -0.37258105598E+03  0.37258105598E+03  0.00000000000E+00 0.  1.
          6    2    1    2  501    0  0.18134382010E+02 -0.80867254914E+03  0.12082456549E+04  0.14645204251E+04  0.17516382418E+03 0.  0.
         24    2    3    3    0    0 -0.18843518943E+02 -0.75006937373E+03  0.11399641813E+04  0.13671235721E+04  0.80928259466E+02 0.  0.
         -6    2    1    2    0  502 -0.18134382010E+02  0.80867254914E+03  0.45520243256E+03  0.94408977435E+03  0.17267339079E+03 0.  0.
        -24    2    5    5    0    0  0.25878166382E+02  0.67008571138E+03  0.41709017298E+03  0.79369678799E+03  0.79409311664E+02 0.  0.
         12    1    4    4    0    0 -0.42489902878E+02 -0.59421552634E+03  0.86780378670E+03  0.10526067147E+04  0.00000000000E+00 0. -1.
        -11    1    4    4    0    0  0.23646383936E+02 -0.15585384738E+03  0.27216039464E+03  0.31451685746E+03  0.00000000000E+00 0.  1.
          5    1    3    3  501    0  0.36977900953E+02 -0.58603175413E+02  0.68281473612E+02  0.97396852957E+02  0.47000000000E+01 0. -1.
         13    1    6    6    0    0 -0.20623741812E+02  0.43320251610E+03  0.25930286483E+03  0.50529964812E+03  0.00000000000E+00 0. -1.
        -14    1    6    6    0    0  0.46501908194E+02  0.23688319527E+03  0.15778730816E+03  0.28839713987E+03  0.00000000000E+00 0.  1.
         -5    1    5    5    0  502 -0.44012548392E+02  0.13858683776E+03  0.38112259572E+02  0.15039298636E+03  0.47000000000E+01 0.  1.
</event>
<event>
12    1  0.9749377E-001  0.4182578E+03  0.7818608E-02  0.1037635E+00
         21   -1    0    0  503  502  0.00000000000E+00  0.00000000000E+00  0.80968115957E+03  0.80968115957E+03  0.00000000000E+00 0. -1.
         21   -1    0    0  501  503 -0.00000000000E+00 -0.00000000000E+00 -0.27596546132E+03  0.27596546132E+03  0.00000000000E+00 0.  1.
          6    2    1    2  501    0 -0.30993027125E+03  0.25402028075E+03  0.47502424669E+03  0.64573348596E+03  0.17533004271E+03 0.  0.
         24    2    3    3    0    0 -0.25472712948E+03  0.15813226644E+03  0.26202891318E+03  0.40566891080E+03  0.77565389626E+02 0.  0.
         -6    2    1    2    0  502  0.30993027125E+03 -0.25402028075E+03  0.58691451568E+02  0.43991313493E+03  0.17174342409E+03 0.  0.
        -24    2    5    5    0    0  0.18619344057E+03 -0.23260068166E+03  0.60018676495E+02  0.31424112524E+03  0.79838392026E+02 0.  0.
         12    1    4    4    0    0 -0.14485353100E+03  0.11149092433E+03  0.20072406418E+03  0.27148282007E+03  0.00000000000E+00 0. -1.
        -11    1    4    4    0    0 -0.10987359847E+03  0.46641342119E+02  0.61304849003E+02  0.13418609074E+03  0.00000000000E+00 0.  1.
          5    1    3    3  501    0 -0.55203141778E+02  0.95888014309E+02  0.21299533350E+03  0.24006457516E+03  0.47000000000E+01 0. -1.
         13    1    6    6    0    0  0.72981277217E+02 -0.92883056314E+02  0.64041710780E+02  0.13436841033E+03  0.00000000000E+00 0. -1.
        -14    1    6    6    0    0  0.11321216335E+03 -0.13971762535E+03 -0.40230342853E+01  0.17987271491E+03  0.00000000000E+00 0.  1.
         -5    1    5    5    0  502  0.12373683068E+03 -0.21419599090E+02 -0.13272249270E+01  0.12567200969E+03  0.47000000000E+01 0.  1.
</event>
<event>
12    1  0.9749377E-001  0.1440426E+03  0.7818608E-02  0.1207991E+00
         21   -1    0    0  503  502  0.00000000000E+00  0.00000000000E+00  0.22243965822E+02  0.22243965822E+02  0.00000000000E+00 0.  1.
         21   -1    0    0  501  503 -0.00000000000E+00 -0.00000000000E+00 -0.15169555709E+04  0.15169555709E+04  0.00000000000E+00 0.  1.
          6    2    1    2  501    0  0.10695751160E+02 -0.79749221245E+00 -0.48211773508E+03  0.51209106711E+03  0.17229252870E+03 0.  0.
         24    2    3    3    0    0  0.49138395475E+02  0.28153323652E+02 -0.42978807170E+03  0.44084171405E+03  0.80102676176E+02 0.  0.
         -6    2    1    2    0  502 -0.10695751160E+02  0.79749221245E+00 -0.10125938700E+04  0.10271084696E+04  0.17172777210E+03 0.  0.
        -24    2    5    5    0    0  0.50655991914E+02 -0.32058717797E+02 -0.50426408653E+03  0.51401508078E+03  0.79595498574E+02 0.  0.
         12    1    4    4    0    0  0.21443583467E+02 -0.22804977627E+02 -0.73865808249E+02  0.80225007976E+02  0.00000000000E+00 0. -1.
        -11    1    4    4    0    0  0.27694812008E+02  0.50958301279E+02 -0.35592226345E+03  0.36061670608E+03  0.00000000000E+00 0.  1.
          5    1    3    3  501    0 -0.38442644315E+02 -0.28950815865E+02 -0.52329663378E+02  0.71249353052E+02  0.47000000000E+01 0. -1.
         13    1    6    6    0    0  0.11654770819E+02  0.15358493457E+02 -0.29141180875E+02  0.34941743330E+02  0.00000000000E+00 0. -1.
        -14    1    6    6    0    0  0.39001221095E+02 -0.47417211254E+02 -0.47512290566E+03  0.47907333745E+03  0.00000000000E+00 0.  1.
         -5    1    5    5    0  502 -0.61351743074E+02  0.32856210009E+02 -0.50832978343E+03  0.51309338881E+03  0.47000000000E+01 0.  1.
</event>
<event>
12    1  0.9749377E-001  0.3668295E+03  0.7818608E-02  0.1055912E+00
         21   -1    0    0  501  502  0.00000000000E+00  0.00000000000E+00  0.26687647136E+03  0.26687647136E+03  0.00000000000E+00 0.  1.
         21   -1    0    0  502  503 -0.00000000000E+00 -0.00000000000E+00 -0.53298077093E+03  0.53298077093E+03  0.00000000000E+00 0. -1.
         -6    2    1    2    0  503  0.72154488529E+01 -0.33338202946E+03 -0.90924842762E+02  0.38616361607E+03  0.17221896260E+03 0.  0.
        -24    2    3    3    0    0 -0.55803960907E+02 -0.17689256976E+03 -0.20049264184E+02  0.20311762556E+03  0.80310233033E+02 0.  0.
          6    2    1    2  501    0 -0.72154488529E+01  0.33338202946E+03 -0.17517945681E+03  0.41369362622E+03  0.17105243062E+03 0.  0.
         24    2    5    5    0    0  0.52386889813E+02  0.14383664057E+03 -0.10745078899E+03  0.20371944765E+03  0.80762465912E+02 0.  0.
         14    1    6    6    0    0  0.52496132390E+02  0.15375130553E+03 -0.10519999087E+03  0.19355192054E+03  0.00000000000E+00 0. -1.
        -13    1    6    6    0    0 -0.10924257645E+00 -0.99146649595E+01 -0.22507981242E+01  0.10167527103E+02  0.00000000000E+00 0.  1.
          5    1    5    5  501    0 -0.59602338666E+02  0.18954538889E+03 -0.67728667816E+02  0.20997417857E+03  0.47000000000E+01 0. -1.
         13    1    4    4    0    0  0.84956769550E+01 -0.41860029985E+01  0.12802140191E+02  0.15924633167E+02  0.00000000000E+00 0. -1.
        -14    1    4    4    0    0 -0.64299637862E+02 -0.17270656676E+03 -0.32851404376E+02  0.18719299240E+03  0.00000000000E+00 0.  1.
         -5    1    3    3    0  503  0.63019409760E+02 -0.15648945969E+03 -0.70875578578E+02  0.18304599051E+03  0.47000000000E+01 0.  1.
</event>
<event>
12    1  0.9749377E-001  0.2506183E+03  0.7818608E-02  0.1112915E+00
         21   -1    0    0  503  502  0.00000000000E+00  0.00000000000E+00  0.42650272063E+03  0.42650272063E+03  0.00000000000E+00 0.  1.
         21   -1    0    0  501  503 -0.00000000000E+00 -0.00000000000E+00 -0.15970345537E+03  0.15970345537E+03  0.00000000000E+00 0. -1.
          6    2    1    2  501    0 -0.96748814519E+02 -0.17089238346E+03  0.12529580299E+03  0.28948288727E+03  0.17186263102E+03 0.  0.
         24    2    3    3    0    0  0.79890995758E+01 -0.46154174353E+02  0.74946771322E+02  0.11893445881E+03  0.79588651445E+02 0.  0.
         -6    2    1    2    0  502  0.96748814519E+02  0.17089238346E+03  0.14150346227E+03  0.29672328874E+03  0.17163024329E+03 0.  0.
        -24    2    5    5    0    0 -0.55118769122E+01  0.13848104926E+03  0.10442149713E+03  0.18312352758E+03  0.58506371433E+02 0.  0.
         14    1    4    4    0    0  0.35196593415E+02  0.38212182458E+01  0.26963163028E+02  0.44501843303E+02  0.00000000000E+00 0. -1.
        -13    1    4    4    0    0 -0.27207493839E+02 -0.49975392599E+02  0.47983608294E+02  0.74432615508E+02  0.00000000000E+00 0.  1.
          5    1    3    3  501    0 -0.10473791409E+03 -0.12473820911E+03  0.50349031672E+02  0.17054842846E+03  0.47000000000E+01 0. -1.
         11    1    6    6    0    0 -0.47282036201E+01  0.93388917124E+02  0.10138416463E+03  0.13792242236E+03  0.00000000000E+00 0. -1.
        -12    1    6    6    0    0 -0.78367329212E+00  0.45092132140E+02  0.30373325022E+01  0.45201105225E+02  0.00000000000E+00 0.  1.
         -5    1    5    5    0  502  0.10226069143E+03  0.32411334195E+02  0.37081965132E+02  0.11359976115E+03  0.47000000000E+01 0.  1.
</event>
<event>
12    1  0.9749377E-001  0.3147529E+03  0.7818608E-02  0.1078090E+00
         21   -1    0    0  501  502  0.00000000000E+00  0.00000000000E+00  0.39586356962E+03  0.39586356962E+03  0.00000000000E+00 0. -1.
         21   -1    0    0  502  503 -0.00000000000E+00 -0.00000000000E+00 -0.38071102486E+03  0.38071102486E+03  0.00000000000E+00 0.  1.
         -6    2    1    2    0  503  0.28888430868E+03 -0.97362714152E+02  0.17874815009E+03  0.39314280407E+03  0.17226932786E+03 0.  0.
        -24    2    3    3    0    0  0.18798025624E+03 -0.47115026981E+02  0.18648378538E+03  0.28005704936E+03  0.78098310999E+02 0.  0.
          6    2    1    2  501    0 -0.28888430868E+03  0.97362714152E+02 -0.16359560532E+03  0.38343179041E+03  0.16529601904E+03 0.  0.
         24    2    5    5    0    0 -0.99201700971E+02  0.59807466129E+02 -0.12011818959E+03  0.18518380430E+03  0.80291664719E+02 0.  0.
         14    1    6    6    0    0 -0.53903133593E+02  0.47528665237E+02 -0.11805134891E+03  0.13820507519E+03  0.00000000000E+00 0. -1.
        -13    1    6    6    0    0 -0.45298567378E+02  0.12278800891E+02 -0.20668406834E+01  0.46978729104E+02  0.00000000000E+00 0.  1.
          5    1    5    5  501    0 -0.18968260771E+03  0.37555248023E+02 -0.43477415732E+02  0.19824798612E+03  0.47000000000E+01 0. -1.
         13    1    4    4    0    0  0.16360389424E+03 -0.15203593349E+02  0.17064299985E+03  0.23688903913E+03  0.00000000000E+00 0. -1.
        -14    1    4    4    0    0  0.24376362003E+02 -0.31911433633E+02  0.15840785530E+02  0.43168010230E+02  0.00000000000E+00 0.  1.
         -5    1    3    3    0  503  0.10090405244E+03 -0.50247687171E+02 -0.77356352931E+01  0.11308575471E+03  0.47000000000E+01 0.  1.
</event>
<event>
12    1  0.9749377E-001  0.5294459E+03  0.7818608E-02  0.1006367E+00
         21   -1    0    0  501  502  0.00000000000E+00  0.00000000000E+00  0.28160279759E+03  0.28160279759E+03  0.00000000000E+00 0.  1.
         21   -1    0    0  502  503 -0.00000000000E+00 -0.00000000000E+00 -0.11891679528E+04  0.11891679528E+04  0.00000000000E+00 0. -1.
         -6    2    1    2    0  503  0.36032529998E+03 -0.36769459984E+03 -0.70906739537E+03  0.89300148294E+03  0.17216688648E+03 0.  0.
        -24    2    3    3    0    0  0.21325999518E+03 -0.19306455813E+03 -0.29213136398E+03  0.41762626313E+03  0.79480895063E+02 0.  0.
          6    2    1    2  501    0 -0.36032529998E+03  0.36769459984E+03 -0.19849775984E+03  0.57776926746E+03  0.17141273347E+03 0.  0.
         24    2    5    5    0    0 -0.64284323122E+02  0.93852985951E+02 -0.44082291385E+02  0.14591776940E+03  0.80049296318E+02 0.  0.
         12    1    6    6    0    0 -0.19121917942E+02  0.87173205402E+02 -0.11842746019E+02  0.90028140706E+02  0.00000000000E+00 0. -1.
        -11    1    6    6    0    0 -0.45162405180E+02  0.66797805494E+01 -0.32239545366E+02  0.55889628691E+02  0.00000000000E+00 0.  1.
          5    1    5    5  501    0 -0.29604097686E+03  0.27384161389E+03 -0.15441546846E+03  0.43185149806E+03  0.47000000000E+01 0. -1.
         13    1    4    4    0    0  0.87585784498E+02 -0.46141584764E+02 -0.14072176918E+03  0.17205502553E+03  0.00000000000E+00 0. -1.
        -14    1    4    4    0    0  0.12567421069E+03 -0.14692297337E+03 -0.15140959480E+03  0.24557123759E+03  0.00000000000E+00 0.  1.
         -5    1    3    3    0  503  0.14706530480E+03 -0.17463004170E+03 -0.41693603139E+03  0.47537521981E+03  0.47000000000E+01 0.  1.
</event>
<event>
12    1  0.9749377E-001  0.3134583E+03  0.7818608E-02  0.1078700E+00
         21   -1    0    0  503  502  0.00000000000E+00  0.00000000000E+00  0.90080965325E+03  0.90080965325E+03  0.00000000000E+00 0.  1.
         21   -1    0    0  501  503 -0.00000000000E+00 -0.00000000000E+00 -0.11651637666E+03  0.11651637666E+03  0.00000000000E+00 0. -1.
          6    2    1    2  501    0 -0.12146292238E+03 -0.24580021618E+03  0.39962416890E+03  0.51445511688E+03  0.17260823597E+03 0.  0.
         24    2    3    3    0    0 -0.12840955848E+03 -0.11078439592E+03  0.20155788884E+03  0.27460126811E+03  0.77576264434E+02 0.  0.
         -6    2    1    2    0  502  0.12146292238E+03  0.24580021618E+03  0.38466910769E+03  0.50287091304E+03  0.17244664386E+03 0.  0.
        -24    2    5    5    0    0  0.37145895861E+02  0.41410825019E+02  0.16205650922E+03  0.18908301782E+03  0.79971253850E+02 0.  0.
         12    1    4    4    0    0 -0.94393842325E+02 -0.10458795563E+03  0.11660316068E+03  0.18288011103E+03  0.00000000000E+00 0. -1.
        -11    1    4    4    0    0 -0.34015716159E+02 -0.61964402935E+01  0.84954728166E+02  0.91721157079E+02  0.00000000000E+00 0.  1.
          5    1    3    3  501    0  0.69466360996E+01 -0.13501582026E+03  0.19806628006E+03  0.23985384877E+03  0.47000000000E+01 0. -1.
         13    1    6    6    0    0  0.58587100200E+02  0.44226302302E+02  0.10542803251E+03  0.12846588716E+03  0.00000000000E+00 0. -1.
        -14    1    6    6    0    0 -0.21441204339E+02 -0.28154772830E+01  0.56628476708E+02  0.60617130665E+02  0.00000000000E+00 0.  1.
         -5    1    5    5    0  502  0.84317026523E+02  0.20438939116E+03  0.22261259847E+03  0.31378789521E+03  0.47000000000E+01 0.  1.
</event>
<event>
12    1  0.9749377E-001  0.6800913E+03  0.7818608E-02  0.9751898E-01
         21   -1    0    0  501  502  0.00000000000E+00  0.00000000000E+00  0.60301055487E+03  0.60301055487E+03  0.00000000000E+00 0. -1.
         21   -1    0    0  502  503 -0.00000000000E+00 -0.00000000000E+00 -0.11209014078E+04  0.11209014078E+04  0.00000000000E+00 0.  1.
         -6    2    1    2    0  503 -0.58876692698E+03 -0.32170118602E+03  0.20480275357E+03  0.72300547445E+03  0.17508455333E+03 0.  0.
        -24    2    3    3    0    0 -0.39099982216E+03 -0.20924550755E+03  0.20636213629E+03  0.49544750590E+03  0.78856556212E+02 0.  0.
          6    2    1    2  501    0  0.58876692698E+03  0.32170118602E+03 -0.72269360654E+03  0.10009064883E+04  0.17143395792E+03 0.  0.
         24    2    5    5    0    0  0.55143641112E+03  0.26510258315E+03 -0.69007219125E+03  0.92551938064E+03  0.77620871560E+02 0.  0.
         14    1    6    6    0    0  0.49431489225E+03  0.20901135836E+03 -0.60234336225E+03  0.80675305185E+03  0.00000000000E+00 0. -1.
        -13    1    6    6    0    0  0.57121518876E+02  0.56091224793E+02 -0.87728828999E+02  0.11876632879E+03  0.00000000000E+00 0.  1.
          5    1    5    5  501    0  0.37330515863E+02  0.56598602864E+02 -0.32621415286E+02  0.75387107625E+02  0.47000000000E+01 0. -1.
         11    1    4    4    0    0 -0.46322670683E+02 -0.33783071965E+01  0.38352696825E+02  0.60233978222E+02  0.00000000000E+00 0. -1.
        -12    1    4    4    0    0 -0.34467715147E+03 -0.20586720035E+03  0.16800943946E+03  0.43521352768E+03  0.00000000000E+00 0.  1.
         -5    1    3    3    0  503 -0.19776710483E+03 -0.11245567847E+03 -0.15593827227E+01  0.22755796854E+03  0.47000000000E+01 0.  1.
</event>
<event>
12    1  0.9749377E-001  0.3631176E+03  0.7818608E-02  0.1057356E+00
         21   -1    0    0  503  502  0.00000000000E+00  0.00000000000E+00  0.14434958603E+03  0.14434958603E+03  0.00000000000E+00 0.  1.
         21   -1    0    0  501  503 -0.00000000000E+00 -0.00000000000E+00 -0.11357396816E+04  0.11357396816E+04  0.00000000000E+00 0. -1.
          6    2    1    2  501    0  0.26219751604E+03  0.19421161025E+03 -0.24094095458E+03  0.44377018870E+03  0.18003818988E+03 0.  0.
         24    2    3    3    0    0  0.74900629928E+02  0.25363231452E+02 -0.32604209172E+02  0.11663690080E+03  0.79295235030E+02 0.  0.
         -6    2    1    2    0  502 -0.26219751604E+03 -0.19421161025E+03 -0.75044914102E+03  0.83631907897E+03  0.17259780304E+03 0.  0.
        -24    2    5    5    0    0 -0.26772510638E+03 -0.14741640072E+03 -0.69355192596E+03  0.76229388750E+03  0.81666205610E+02 0.  0.
         14    1    4    4    0    0 -0.14403139347E+02  0.16641299002E+02 -0.95666977599E+01  0.23998019950E+02  0.00000000000E+00 0. -1.
        -13    1    4    4    0    0  0.89303769275E+02  0.87219324499E+01 -0.23037511412E+02  0.92638880846E+02  0.00000000000E+00 0.  1.
          5    1    3    3  501    0  0.18729688611E+03  0.16884837879E+03 -0.20833674541E+03  0.32713328791E+03  0.47000000000E+01 0. -1.
         11    1    6    6    0    0 -0.82007947290E+01 -0.28134551768E+02 -0.88219868074E+02  0.92959943849E+02  0.00000000000E+00 0. -1.
        -12    1    6    6    0    0 -0.25952431165E+03 -0.11928184895E+03 -0.60533205789E+03  0.66933394365E+03  0.00000000000E+00 0.  1.
         -5    1    5    5    0  502  0.55275903339E+01 -0.46795209529E+02 -0.56897215064E+02  0.74025191468E+02  0.47000000000E+01 0.  1.
</event>
<event>
12    1  0.9749377E-001  0.6230296E+03  0.7818608E-02  0.9858746E-01
         21   -1    0    0  501  502  0.00000000000E+00  0.00000000000E+00  0.11633821839E+04  0.11633821839E+04  0.00000000000E+00 0.  1.
         21   -1    0    0  502  503 -0.00000000000E+00 -0.00000000000E+00 -0.35204163560E+03  0.35204163560E+03  0.00000000000E+00 0. -1.
         -6    2    1    2    0  503  0.37823672003E+03 -0.48311662134E+03  0.47653071598E+03  0.79563321104E+03  0.17171487135E+03 0.  0.
        -24    2    3    3    0    0  0.39111230586E+03 -0.46820561354E+03  0.45062119743E+03  0.76274686106E+03  0.80857764818E+02 0.  0.
          6    2    1    2  501    0 -0.37823672003E+03  0.48311662134E+03  0.33480983231E+03  0.71979060844E+03  0.17186101941E+03 0.  0.
         24    2    5    5    0    0 -0.33682505699E+03  0.41757033364E+03  0.22947558218E+03  0.58891419376E+03  0.79654141463E+02 0.  0.
         14    1    6    6    0    0 -0.12532138418E+03  0.18766204348E+03  0.59966219629E+02  0.23349184010E+03  0.00000000000E+00 0. -1.
        -13    1    6    6    0    0 -0.21150367281E+03  0.22990829016E+03  0.16950936255E+03  0.35542235367E+03  0.00000000000E+00 0.  1.
          5    1    5    5  501    0 -0.41411663047E+02  0.65546287707E+02  0.10533425013E+03  0.13087641468E+03  0.47000000000E+01 0. -1.
         13    1    4    4    0    0  0.12863896704E+03 -0.15569232067E+03  0.10329406452E+03  0.22684299928E+03  0.00000000000E+00 0. -1.
        -14    1    4    4    0    0  0.26247333882E+03 -0.31251329287E+03  0.34732713291E+03  0.53590386177E+03  0.00000000000E+00 0.  1.
         -5    1    3    3    0  503 -0.12875585825E+02 -0.14911007805E+02  0.25909518548E+02  0.32886349988E+02  0.47000000000E+01 0.  1.
</event>
<event>
12    1  0.9749377E-001  0.5076468E+03  0.7818608E-02  0.1011802E+00
         21   -1    0    0  501  502  0.00000000000E+00  0.00000000000E+00  0.33645739168E+03  0.33645739168E+03  0.00000000000E+00 0. -1.
         21   -1    0    0  502  503 -0.00000000000E+00 -0.00000000000E+00 -0.98511845225E+03  0.98511845225E+03  0.00000000000E+00 0.  1.
         -6    2    1    2    0  503  0.49135312409E+03 -0.27149320651E+02 -0.60248818101E+03  0.79837907029E+03  0.17958884556E+03 0.  0.
        -24    2    3    3    0    0  0.44054806078E+03  0.23423055812E+02 -0.48347539932E+03  0.65936521513E+03  0.79892376219E+02 0.  0.
          6    2    1    2  501    0 -0.49135312409E+03  0.27149320651E+02 -0.46172879557E+02  0.52319677365E+03  0.17157491364E+03 0.  0.
         24    2    5    5    0    0 -0.44933337225E+03  0.47359760984E+02 -0.12483911820E+01  0.45827820082E+03  0.76641532377E+02 0.  0.
         14    1    6    6    0    0 -0.41276050759E+03  0.57637569773E+02  0.14823369560E+02  0.41702884596E+03  0.00000000000E+00 0. -1.
        -13    1    6    6    0    0 -0.36572864658E+02 -0.10277808789E+02 -0.16071760742E+02  0.41249354857E+02  0.00000000000E+00 0.  1.
          5    1    5    5  501    0 -0.42019751837E+02 -0.20210440333E+02 -0.44924488375E+02  0.64918572833E+02  0.47000000000E+01 0. -1.
         11    1    4    4    0    0  0.35632473013E+03  0.93660282367E+01 -0.34117696767E+03  0.49341337543E+03  0.00000000000E+00 0. -1.
        -12    1    4    4    0    0  0.84223330651E+02  0.14057027575E+02 -0.14229843164E+03  0.16595183970E+03  0.00000000000E+00 0.  1.
         -5    1    3    3    0  503  0.50805063309E+02 -0.50572376463E+02 -0.11901278169E+03  0.13901385516E+03  0.47000000000E+01 0.  1.
</event>
<event>
12    1  0.9749377E-001  0.4377230E+03  0.7818608E-02  0.1031448E+00
         21   -1    0    0  501  502  0.00000000000E+00  0.00000000000E+00  0.34525886790E+03  0.34525886790E+03  0.00000000000E+00 0. -1.
         21   -1    0    0  502  503 -0.00000000000E+00 -0.00000000000E+00 -0.87957321626E+03  0.87957321626E+03  0.00000000000E+00 0.  1.
         -6    2    1    2    0  503 -0.22388554306E+03 -0.36226265308E+03 -0.60538789711E+03  0.75918346281E+03  0.16883737153E+03 0.  0.
        -24    2    3    3    0    0 -0.50446098800E+02 -0.18919944792E+03 -0.24515599153E+03  0.32349868043E+03  0.78795279511E+02 0.  0.
          6    2    1    2  501    0  0.22388554306E+03  0.36226265308E+03  0.71073548752E+02  0.46564862136E+03  0.17440820805E+03 0.  0.
         24    2    5    5    0    0  0.92253617524E+02  0.14723393301E+03  0.93008641756E+02  0.21253293125E+03  0.79568074307E+02 0.  0.
         14    1    6    6    0    0  0.39911876344E+02  0.33017382412E+02  0.66215696370E+02  0.84069161174E+02  0.00000000000E+00 0. -1.
        -13    1    6    6    0    0  0.52341741181E+02  0.11421655059E+03  0.26792945386E+02  0.12846377008E+03  0.00000000000E+00 0.  1.
          5    1    5    5  501    0  0.13163192553E+03  0.21502872007E+03 -0.21935093004E+02  0.25311569011E+03  0.47000000000E+01 0. -1.
         13    1    4    4    0    0 -0.58151768456E+02 -0.17744428630E+03 -0.18929319779E+03  0.26589474918E+03  0.00000000000E+00 0. -1.
        -14    1    4    4    0    0  0.77056696558E+01 -0.11755161628E+02 -0.55862793742E+02  0.57603931241E+02  0.00000000000E+00 0.  1.
         -5    1    3    3    0  503 -0.17343944426E+03 -0.17306320516E+03 -0.36023190558E+03  0.43568478238E+03  0.47000000000E+01 0.  1.
</event>
<event>
12    1  0.9749377E-001  0.2782946E+03  0.7818608E-02  0.1096624E+00
         21   -1    0    0  501  502  0.00000000000E+00  0.00000000000E+00  0.13710393687E+04  0.13710393687E+04  0.00000000000E+00 0. -1.
         21   -1    0    0  502  503 -0.00000000000E+00 -0.00000000000E+00 -0.66385053078E+02  0.66385053078E+02  0.00000000000E+00 0.  1.
         -6    2    1    2    0  503 -0.51956157060E+02 -0.24103736593E+03  0.70294373412E+03  0.76476546335E+03  0.17302562403E+03 0.  0.
        -24    2    3    3    0    0  0.92397870083E+01 -0.91773478431E+02  0.43835141802E+03  0.45483670474E+03  0.78846162148E+02 0.  0.
          6    2    1    2  501    0  0.51956157060E+02  0.24103736593E+03  0.60171058152E+03  0.67265895844E+03  0.17209298774E+03 0.  0.
         24    2    5    5    0    0 -0.21734212392E+02  0.16335658444E+03  0.29037596276E+03  0.34339324629E+03  0.80268126791E+02 0.  0.
         12    1    6    6    0    0 -0.22084616421E+01  0.15347655265E+03  0.21015014548E+03  0.26023645625E+03  0.00000000000E+00 0. -1.
        -11    1    6    6    0    0 -0.19525750750E+02  0.98800317831E+01  0.80225817282E+02  0.83156790035E+02  0.00000000000E+00 0.  1.
          5    1    5    5  501    0  0.73690369452E+02  0.77680781488E+02  0.31133461876E+03  0.32926571216E+03  0.47000000000E+01 0. -1.
         11    1    4    4    0    0 -0.27509069868E+02 -0.49531368972E+02  0.13575286565E+03  0.14710182177E+03  0.00000000000E+00 0. -1.
        -12    1    4    4    0    0  0.36748856876E+02 -0.42242109459E+02  0.30259855237E+03  0.30773488296E+03  0.00000000000E+00 0.  1.
         -5    1    3    3    0  503 -0.61195944068E+02 -0.14926388749E+03  0.26459231609E+03  0.30992875861E+03  0.47000000000E+01 0.  1.
</event>
<event>
12    1  0.9749377E-001  0.6780384E+03  0.7818608E-02  0.9755544E-01
         21   -1    0    0  501  502  0.00000000000E+00  0.00000000000E+00  0.16294728098E+04  0.16294728098E+04  0.00000000000E+00 0.  1.
         21   -1    0    0  502  503 -0.00000000000E+00 -0.00000000000E+00 -0.31196388315E+03  0.31196388315E+03  0.00000000000E+00 0. -1.
         -6    2    1    2    0  503  0.52607575794E+02  0.66379776386E+03  0.40262156456E+03  0.79683560906E+03  0.17160371585E+03 0.  0.
        -24    2    3    3    0    0 -0.12128450341E+02  0.16366422130E+03  0.13082541058E+03  0.22393112070E+03  0.78081893698E+02 0.  0.
          6    2    1    2  501    0 -0.52607575794E+02 -0.66379776386E+03  0.91488736214E+03  0.11446010839E+04  0.17233028637E+03 0.  0.
         24    2    5    5    0    0 -0.23319581946E+02 -0.25427618158E+03  0.26937857738E+03  0.37957206870E+03  0.79435243879E+02 0.  0.
         14    1    6    6    0    0  0.24411641843E+02 -0.90455226632E+02  0.68834254013E+02  0.11625932568E+03  0.00000000000E+00 0. -1.
        -13    1    6    6    0    0 -0.47731223788E+02 -0.16382095494E+03  0.20054432337E+03  0.26331274302E+03  0.00000000000E+00 0.  1.
          5    1    5    5  501    0 -0.29287993849E+02 -0.40952158228E+03  0.64550878476E+03  0.76502901523E+03  0.47000000000E+01 0. -1.
         11    1    4    4    0    0  0.27167915621E+02  0.77628169356E+02  0.86883517814E+02  0.11963684209E+03  0.00000000000E+00 0. -1.
        -12    1    4    4    0    0 -0.39296365962E+02  0.86036051944E+02  0.43941892771E+02  0.10429427862E+03  0.00000000000E+00 0.  1.
         -5    1    3    3    0  503  0.64736026136E+02  0.50013354256E+03  0.27179615397E+03  0.57290448836E+03  0.47000000000E+01 0.  1.
</event>
<event>
12    1  0.9749377E-001  0.2481737E+03  0.7818608E-02  0.1114464E+00
         21   -1    0    0  503  502  0.00000000000E+00  0.00000000000E+00  0.47223954772E+03  0.47223954772E+03  0.00000000000E+00 0. -1.
         21   -1    0    0  501  503 -0.00000000000E+00 -0.00000000000E+00 -0.57322032443E+03  0.57322032443E+03  0.00000000000E+00 0. -1.
          6    2    1    2  501    0  0.18959719440E+03  0.32802592504E+02  0.40596228975E+03  0.47663896860E+03  0.15923636359E+03 0.  0.
         24    2    3    3    0    0  0.12565127096E+03 -0.38178728290E+02  0.26115037467E+03  0.30308779524E+03  0.80105157417E+02 0.  0.
         -6    2    1    2    0  502 -0.18959719440E+03 -0.32802592504E+02 -0.50694306646E+03  0.56882090356E+03  0.17188031154E+03 0.  0.
        -24    2    5    5    0    0 -0.37526289692E+02  0.17518328664E+02 -0.25150086195E+03  0.26727395031E+03  0.80421183141E+02 0.  0.
         14    1    4    4    0    0  0.65054808474E+02  0.18573498052E+02  0.87438706975E+02  0.11055600578E+03  0.00000000000E+00 0. -1.
        -13    1    4    4    0    0  0.60596462483E+02 -0.56752226342E+02  0.17371166770E+03  0.19253178946E+03  0.00000000000E+00 0.  1.
          5    1    3    3  501    0  0.63945923446E+02  0.70981320794E+02  0.14481191507E+03  0.17355117336E+03  0.47000000000E+01 0. -1.
         11    1    6    6    0    0  0.22864128797E+02 -0.79782036435E+01 -0.83379114682E+02  0.86824517759E+02  0.00000000000E+00 0. -1.
        -12    1    6    6    0    0 -0.60390418488E+02  0.25496532307E+02 -0.16812174727E+03  0.18044943255E+03  0.00000000000E+00 0.  1.
         -5    1    5    5    0  502 -0.15207090471E+03 -0.50320921168E+02 -0.25544220451E+03  0.30154695324E+03  0.47000000000E+01 0.  1.
</event>
<event>
12    1  0.9749377E-001  0.5170171E+03  0.7818608E-02  0.1009430E+00
         21   -1    0    0  501  502  0.00000000000E+00  0.00000000000E+00  0.36603503641E+03  0.36603503641E+03  0.00000000000E+00 0.  1.
         21   -1    0    0  502  503 -0.00000000000E+00 -0.00000000000E+00 -0.84706724216E+03  0.84706724216E+03  0.00000000000E+00 0. -1.
         -6    2    1    2    0  503  0.42106189482E+03 -0.28372403330E+03 -0.85124211473E+02  0.54693909067E+03  0.18467211805E+03 0.  0.
        -24    2    3    3    0    0  0.13644916945E+03 -0.10062759177E+03  0.30296690742E+02  0.18934604682E+03  0.78674950955E+02 0.  0.
          6    2    1    2  501    0 -0.42106189482E+03  0.28372403330E+03 -0.39590799428E+03  0.66616318790E+03  0.17099066245E+03 0.  0.
         24    2    5    5    0    0 -0.84479106778E+02  0.68803538091E+02 -0.12131600717E+03  0.18149666147E+03  0.79704568197E+02 0.  0.
         14    1    6    6    0    0 -0.49366143722E+02  0.62682618253E+02 -0.33153424137E+02  0.86401830473E+02  0.00000000000E+00 0. -1.
        -13    1    6    6    0    0 -0.35112963056E+02  0.61209198376E+01 -0.88162583036E+02  0.95094830994E+02  0.00000000000E+00 0.  1.
          5    1    5    5  501    0 -0.33658278804E+03  0.21492049521E+03 -0.27459198710E+03  0.48466652644E+03  0.47000000000E+01 0. -1.
         11    1    4    4    0    0  0.11841308365E+03 -0.52785228217E+02  0.43129143524E+02  0.13663111549E+03  0.00000000000E+00 0. -1.
        -12    1    4    4    0    0  0.18036085798E+02 -0.47842363550E+02 -0.12832452782E+02  0.52714931333E+02  0.00000000000E+00 0.  1.
         -5    1    3    3    0  503  0.28461272537E+03 -0.18309644153E+03 -0.11542090221E+03  0.35759304385E+03  0.47000000000E+01 0.  1.
</event>
<event>
12    1  0.9749377E-001  0.7189209E+03  0.7818608E-02  0.9685411E-01
         21   -1    0    0  501  502  0.00000000000E+00  0.00000000000E+00  0.73811499829E+03  0.73811499829E+03  0.00000000000E+00 0. -1.
         21   -1    0    0  502  503 -0.00000000000E+00 -0.00000000000E+00 -0.72310474644E+03  0.72310474644E+03  0.00000000000E+00 0.  1.
         -6    2    1    2    0  503 -0.65549128188E+03  0.27184218335E+03  0.30718597941E+02  0.73081276693E+03  0.17197870443E+03 0.  0.
        -24    2    3    3    0    0 -0.57667002996E+03  0.19114639609E+03 -0.35358531362E+01  0.61282947466E+03  0.80387776203E+02 0.  0.
          6    2    1    2  501    0  0.65549128188E+03 -0.27184218335E+03 -0.15708346095E+02  0.73040697780E+03  0.17228060775E+03 0.  0.
         24    2    5    5    0    0  0.31731342604E+03 -0.18737925386E+03 -0.49467491862E+02  0.38017845446E+03  0.79308444434E+02 0.  0.
         14    1    6    6    0    0  0.62513278962E+02 -0.35697221980E+02 -0.42435572945E+02  0.83564224133E+02  0.00000000000E+00 0. -1.
        -13    1    6    6    0    0  0.25480014708E+03 -0.15168203188E+03 -0.70319189168E+01  0.29661423033E+03  0.00000000000E+00 0.  1.
          5    1    5    5  501    0  0.33817785583E+03 -0.84462929492E+02  0.33759145767E+02  0.35022852334E+03  0.47000000000E+01 0. -1.
         13    1    4    4    0    0 -0.31867876360E+03  0.11563334682E+03 -0.40753322750E+02  0.34144993569E+03  0.00000000000E+00 0. -1.
        -14    1    4    4    0    0 -0.25799126635E+03  0.75513049266E+02  0.37217469614E+02  0.27137953896E+03  0.00000000000E+00 0.  1.
         -5    1    3    3    0  503 -0.78821251924E+02  0.80695787266E+02  0.34254451077E+02  0.11798329227E+03  0.47000000000E+01 0.  1.
</event>
<event>
12    1  0.9749377E-001  0.3344316E+03  0.7818608E-02  0.1069193E+00
         21   -1    0    0  503  502  0.00000000000E+00  0.00000000000E+00  0.44914666490E+03  0.44914666490E+03  0.00000000000E+00 0.  1.
         21   -1    0    0  501  503 -0.00000000000E+00 -0.00000000000E+00 -0.28696631151E+03  0.28696631151E+03  0.00000000000E+00 0. -1.
          6    2    1    2  501    0  0.31389393890E+03 -0.33965843048E+02  0.69796979655E+02  0.36457339947E+03  0.16840149008E+03 0.  0.
         24    2    3    3    0    0  0.19396812360E+03  0.96519636705E+01  0.10122941572E+03  0.23306369536E+03  0.79715105924E+02 0.  0.
         -6    2    1    2    0  502 -0.31389393890E+03  0.33965843048E+02  0.92383373740E+02  0.37153957694E+03  0.17269593545E+03 0.  0.
        -24    2    5    5    0    0 -0.29340514180E+03  0.48803994428E+02  0.12333668710E+03  0.33128837633E+03  0.77920746910E+02 0.  0.
         12    1    4    4    0    0  0.46470719371E+01  0.19202482797E+02  0.45613328686E+01  0.20276498235E+02  0.00000000000E+00 0. -1.
        -11    1    4    4    0    0  0.18932105166E+03 -0.95505191260E+01  0.96668082849E+02  0.21278719712E+03  0.00000000000E+00 0.  1.
          5    1    3    3  501    0  0.11992581530E+03 -0.43617806719E+02 -0.31432436063E+02  0.13150970411E+03  0.47000000000E+01 0. -1.
         13    1    6    6    0    0 -0.23994181738E+03  0.10174818821E+02  0.10926464628E+03  0.26384534408E+03  0.00000000000E+00 0. -1.
        -14    1    6    6    0    0 -0.53463324420E+02  0.38629175607E+02  0.14072040819E+02  0.67443032249E+02  0.00000000000E+00 0.  1.
         -5    1    5    5    0  502 -0.20488797098E+02 -0.14838151380E+02 -0.30953313361E+02  0.40251200615E+02  0.47000000000E+01 0.  1.
</event>
<event>
12    1  0.9749377E-001  0.6246539E+03  0.7818608E-02  0.9855537E-01
         21   -1    0    0  503  502  0.00000000000E+00  0.00000000000E+00  0.29454131451E+03  0.29454131451E+03  0.00000000000E+00 0.  1.
         21   -1    0    0  501  503 -0.00000000000E+00 -0.00000000000E+00 -0.15717966862E+04  0.15717966862E+04  0.00000000000E+00 0. -1.
          6    2    1    2  501    0  0.31337620406E+03 -0.52020846558E+03 -0.98296648536E+03  0.11682101310E+04  0.17225070639E+03 0.  0.
         24    2    3    3    0    0  0.12139341227E+03 -0.30397606773E+03 -0.60155950819E+03  0.68955867694E+03  0.80495445521E+02 0.  0.
         -6    2    1    2    0  502 -0.31337620406E+03  0.52020846558E+03 -0.29428888634E+03  0.69812786973E+03  0.17875984153E+03 0.  0.
        -24    2    5    5    0    0 -0.30761887902E+03  0.40853940080E+03 -0.27038193675E+03  0.58368679730E+03  0.77782188776E+02 0.  0.
         12    1    4    4    0    0  0.12266364339E+03 -0.21526258370E+03 -0.42445863979E+03  0.49147684202E+03  0.00000000000E+00 0. -1.
        -11    1    4    4    0    0 -0.12702311142E+01 -0.88713484031E+02 -0.17710086841E+03  0.19808183492E+03  0.00000000000E+00 0.  1.
          5    1    3    3  501    0  0.19198279179E+03 -0.21623239784E+03 -0.38140697717E+03  0.47865145404E+03  0.47000000000E+01 0. -1.
         11    1    6    6    0    0 -0.26893518089E+03  0.36645198983E+03 -0.21057402598E+03  0.50095370324E+03  0.00000000000E+00 0. -1.
        -12    1    6    6    0    0 -0.38683698133E+02  0.42087410965E+02 -0.59807910764E+02  0.82733094061E+02  0.00000000000E+00 0.  1.
         -5    1    5    5    0  502 -0.57573250390E+01  0.11166906478E+03 -0.23906949591E+02  0.11444107243E+03  0.47000000000E+01 0.  1.
</event>
<event>
12    1  0.9749377E-001  0.5257424E+03  0.7818608E-02  0.1007270E+00
         21   -1    0    0  501  502  0.00000000000E+00  0.00000000000E+00  0.13269699298E+04  0.13269699298E+04  0.00000000000E+00 0.  1.
         21   -1    0    0  502  503 -0.00000000000E+00 -0.00000000000E+00 -0.34638917757E+03  0.34638917757E+03  0.00000000000E+00 0. -1.
         -6    2    1    2    0  503  0.50299710016E+03  0.12095059473E+03 -0.70181806965E+01  0.54525367784E+03  0.17209645319E+03 0.  0.
        -24    2    3    3    0    0  0.18260391770E+03 -0.78954572610E+00 -0.97267157860E+01  0.20246820655E+03  0.86913471456E+02 0.  0.
          6    2    1    2  501    0 -0.50299710016E+03 -0.12095059473E+03  0.98759893293E+03  0.11281054295E+04  0.17214842048E+03 0.  0.
         24    2    5    5    0    0 -0.47672172930E+03 -0.99448682312E+02  0.81967376393E+03  0.95671791617E+03  0.79312320904E+02 0.  0.
         12    1    6    6    0    0 -0.37735702913E+03 -0.83183948861E+02  0.70625119531E+03  0.80505195339E+03  0.00000000000E+00 0. -1.
        -11    1    6    6    0    0 -0.99364700164E+02 -0.16264733451E+02  0.11342256862E+03  0.15166596278E+03  0.00000000000E+00 0.  1.
          5    1    5    5  501    0 -0.26275370861E+02 -0.21501912422E+02  0.16792516900E+03  0.17138751336E+03  0.47000000000E+01 0. -1.
         13    1    4    4    0    0  0.13678273789E+03  0.17693020628E+02 -0.41130243889E+02  0.14392448481E+03  0.00000000000E+00 0. -1.
        -14    1    4    4    0    0  0.45821179811E+02 -0.18482566355E+02  0.31403528103E+02  0.58543721744E+02  0.00000000000E+00 0.  1.
         -5    1    3    3    0  503  0.32039318246E+03  0.12174014046E+03  0.27085350895E+01  0.34278547129E+03  0.47000000000E+01 0.  1.
</event>
<event>
12    1  0.9749377E-001  0.5950337E+03  0.7818608E-02  0.9915763E-01
         21   -1    0    0  501  502  0.00000000000E+00  0.00000000000E+00  0.19897275959E+03  0.19897275959E+03  0.00000000000E+00 0.  1.
         21   -1    0    0  502  503 -0.00000000000E+00 -0.00000000000E+00 -0.18838351024E+04  0.18838351024E+04  0.00000000000E+00 0. -1.
         -6    2    1    2    0  503 -0.56363617805E+03 -0.14184048354E+03 -0.69835676659E+03  0.92483716457E+03  0.17267641286E+03 0.  0.
        -24    2    3    3    0    0 -0.32206978290E+03 -0.24626417301E+02 -0.38323199517E+03  0.51080917983E+03  0.98609586695E+02 0.  0.
          6    2    1    2  501    0  0.56363617805E+03  0.14184048354E+03 -0.98650557620E+03  0.11579706974E+04  0.17291159642E+03 0.  0.
         24    2    5    5    0    0  0.24884165822E+03  0.73675901727E+02 -0.57094458934E+03  0.63218079285E+03  0.79526859512E+02 0.  0.
         14    1    6    6    0    0  0.10975416309E+03  0.63903151918E+02 -0.21232417281E+03  0.24740885898E+03  0.00000000000E+00 0. -1.
        -13    1    6    6    0    0  0.13908749513E+03  0.97727498089E+01 -0.35862041653E+03  0.38477193387E+03  0.00000000000E+00 0.  1.
          5    1    5    5  501    0  0.31479451982E+03  0.68164581812E+02 -0.41556098686E+03  0.52578990455E+03  0.47000000000E+01 0. -1.
         11    1    4    4    0    0 -0.55385950535E+01 -0.15329360978E+02 -0.43131333069E+02  0.46108320675E+02  0.00000000000E+00 0. -1.
        -12    1    4    4    0    0 -0.31653118785E+03 -0.92970563229E+01 -0.34010066210E+03  0.46470085915E+03  0.00000000000E+00 0.  1.
         -5    1    3    3    0  503 -0.24156639515E+03 -0.11721406624E+03 -0.31512477142E+03  0.41402798474E+03  0.47000000000E+01 0.  1.
</event>
<event>
12    1  0.9749377E-001  0.2423414E+03  0.7818608E-02  0.1118243E+00
         21   -1    0    0  503  502  0.00000000000E+00  0.00000000000E+00  0.90489081895E+02  0.90489081895E+02  0.00000000000E+00 0. -1.
         21   -1    0    0  501  503 -0.00000000000E+00 -0.00000000000E+00 -0.82667877723E+03  0.82667877723E+03  0.00000000000E+00 0.  1.
          6    2    1    2  501    0  0.15210070533E+03 -0.14359116125E+03 -0.43080012621E+03  0.50893527838E+03  0.17225946329E+03 0.  0.
         24    2    3    3    0    0  0.12223766867E+03 -0.15944861352E+03 -0.42188040354E+03  0.47365197917E+03  0.77441684408E+02 0.  0.
         -6    2    1    2    0  502 -0.15210070533E+03  0.14359116125E+03 -0.30538956913E+03  0.40823258074E+03  0.17215691940E+03 0.  0.
        -24    2    5    5    0    0 -0.16440341736E+03  0.14449177155E+03 -0.31553604036E+03  0.39158299515E+03  0.76602177772E+02 0.  0.
         14    1    4    4    0    0  0.15928803669E+02 -0.58547405863E+02 -0.18886796224E+03  0.19837497998E+03  0.00000000000E+00 0. -1.
        -13    1    4    4    0    0  0.10630886500E+03 -0.10090120765E+03 -0.23301244130E+03  0.27527699919E+03  0.00000000000E+00 0.  1.
          5    1    3    3  501    0  0.29863036663E+02  0.15857452268E+02 -0.89197226648E+01  0.35283299216E+02  0.47000000000E+01 0. -1.
         13    1    6    6    0    0 -0.87168448643E+02  0.30386753080E+02 -0.15089757292E+03  0.17689480126E+03  0.00000000000E+00 0. -1.
        -14    1    6    6    0    0 -0.77234968715E+02  0.11410501847E+03 -0.16463846744E+03  0.21468819388E+03  0.00000000000E+00 0.  1.
         -5    1    5    5    0  502  0.12302712030E+02 -0.90061029877E+00  0.10146471226E+02  0.16649585597E+02  0.47000000000E+01 0.  1.
</event>
<event>
12    1  0.1059239E+000  0.8703134E+03  0.7818608E-02  0.9463471E-01
         21   -1    0    0  501  502  0.00000000000E+00  0.00000000000E+00  0.21487927308E+04  0.21487927308E+04  0.00000000000E+00 0.  1.
         21   -1    0    0  502  503 -0.00000000000E+00 -0.00000000000E+00 -0.36424941454E+03  0.36424941454E+03  0.00000000000E+00 0. -1.
         -6    2    1    2    0  503  0.71129627857E+03  0.49576470372E+03  0.84253838634E+03  0.12210353411E+04  0.17126393175E+03 0.  0.
        -24    2    3    3    0    0  0.66625175967E+03  0.47008041918E+03  0.83243506903E+03  0.11679989557E+04  0.80040043361E+02 0.  0.
          6    2    1    2  501    0 -0.71129627857E+03 -0.49576470372E+03  0.94200492994E+03  0.12920068043E+04  0.17373329259E+03 0.  0.
         24    2    5    5    0    0 -0.49508931478E+03 -0.33530596554E+03  0.74385052274E+03  0.95767206644E+03  0.79238036999E+02 0.  0.
         12    1    6    6    0    0 -0.36495322537E+03 -0.20358202859E+03  0.52402773778E+03  0.67025485380E+03  0.00000000000E+00 0. -1.
        -11    1    6    6    0    0 -0.13013608941E+03 -0.13172393695E+03  0.21982278497E+03  0.28741721264E+03  0.00000000000E+00 0.  1.
          5    1    5    5  501    0 -0.21620696378E+03 -0.16045873817E+03  0.19815440719E+03  0.33433473785E+03  0.47000000000E+01 0. -1.
         11    1    4    4    0    0  0.17727231918E+03  0.14519883153E+03  0.28071882812E+03  0.36236892291E+03  0.00000000000E+00 0. -1.
        -12    1    4    4    0    0  0.48897944048E+03  0.32488158765E+03  0.55171624090E+03  0.80563003276E+03  0.00000000000E+00 0.  1.
         -5    1    3    3    0  503  0.45044518900E+02  0.25684284536E+02  0.10103317313E+02  0.53036385395E+02  0.47000000000E+01 0.  1.
</event>
<event>
12    1  0.9749377E-001  0.1758329E+03  0.7818608E-02  0.1171898E+00
         21   -1    0    0  503  502  0.00000000000E+00  0.00000000000E+00  0.80592433604E+03  0.80592433604E+03  0.00000000000E+00 0.  1.
         21   -1    0    0  501  503 -0.00000000000E+00 -0.00000000000E+00 -0.69527244170E+02  0.69527244170E+02  0.00000000000E+00 0. -1.
          6    2    1    2  501    0  0.11587601620E+03 -0.13404379023E+02  0.57927107232E+03  0.61484603505E+03  0.16992275622E+03 0.  0.
         24    2    3    3    0    0  0.14019425359E+03  0.77870433337E+01  0.38240746581E+03  0.41530199826E+03  0.80778790948E+02 0.  0.
         -6    2    1    2    0  502 -0.11587601620E+03  0.13404379023E+02  0.15712601954E+03  0.26060554516E+03  0.17210385132E+03 0.  0.
        -24    2    5    5    0    0 -0.12258911338E+03 -0.21077040843E+02  0.64133750969E+02  0.16108828030E+03  0.79774454975E+02 0.  0.
         14    1    4    4    0    0  0.60053469594E+02  0.20566742652E+02  0.79616462791E+02  0.10182431567E+03  0.00000000000E+00 0. -1.
        -13    1    4    4    0    0  0.80140783993E+02 -0.12779699319E+02  0.30279100302E+03  0.31347768259E+03  0.00000000000E+00 0.  1.
          5    1    3    3  501    0 -0.24318237386E+02 -0.21191422357E+02  0.19686360651E+03  0.19954403680E+03  0.47000000000E+01 0. -1.
         11    1    6    6    0    0 -0.83046403942E+02 -0.43279074797E+02  0.16085265674E+02  0.95018520799E+02  0.00000000000E+00 0. -1.
        -12    1    6    6    0    0 -0.39542709436E+02  0.22202033953E+02  0.48048485295E+02  0.66069759500E+02  0.00000000000E+00 0.  1.
         -5    1    5    5    0  502  0.67130971774E+01  0.34481419866E+02  0.92992268576E+02  0.99517264857E+02  0.47000000000E+01 0.  1.
</event>
<event>
12    1  0.1029001E+000  0.7483969E+03  0.7818608E-02  0.9637869E-01
         21   -1    0    0  503  502  0.00000000000E+00  0.00000000000E+00  0.73596633817E+03  0.73596633817E+03  0.00000000000E+00 0. -1.
         21   -1    0    0  501  503 -0.00000000000E+00 -0.00000000000E+00 -0.11975118280E+04  0.11975118280E+04  0.00000000000E+00 0.  1.
          6    2    1    2  501    0 -0.73729941543E+03 -0.10180609089E+03  0.33116024380E+03  0.83260756707E+03  0.17202716509E+03 0.  0.
         24    2    3    3    0    0 -0.45846857088E+03 -0.31533654526E+02  0.26616930439E+03  0.53776732661E+03  0.84615584390E+02 0.  0.
         -6    2    1    2    0  502  0.73729941543E+03  0.10180609089E+03 -0.79270573367E+03  0.11008705991E+04  0.17192669292E+03 0.  0.
        -24    2    5    5    0    0  0.63623766032E+03  0.67777176467E+02 -0.74078020873E+03  0.98217015474E+03  0.80689461251E+02 0.  0.
         12    1    4    4    0    0 -0.13224098472E+03  0.59143360895E+01  0.11871877891E+03  0.17781115228E+03  0.00000000000E+00 0. -1.
        -11    1    4    4    0    0 -0.32622758616E+03 -0.37447990615E+02  0.14745052548E+03  0.35995617433E+03  0.00000000000E+00 0.  1.
          5    1    3    3  501    0 -0.27883084455E+03 -0.70272436361E+02  0.64990939410E+02  0.29484024045E+03  0.47000000000E+01 0. -1.
         11    1    6    6    0    0  0.83722074971E+02  0.25832184991E+02 -0.13744194654E+03  0.16299379217E+03  0.00000000000E+00 0. -1.
        -12    1    6    6    0    0  0.55251558535E+03  0.41944991476E+02 -0.60333826219E+03  0.81917636257E+03  0.00000000000E+00 0.  1.
         -5    1    5    5    0  502  0.10106175511E+03  0.34028914419E+02 -0.51925524941E+02  0.11870044441E+03  0.47000000000E+01 0.  1.
</event>
<event>
12    1  0.1223368E+000  0.1522307E+04  0.7818608E-02  0.8869753E-01
         21   -1    0    0  503  502  0.00000000000E+00  0.00000000000E+00  0.21535530540E+04  0.21535530540E+04  0.00000000000E+00 0. -1.
         21   -1    0    0  501  503 -0.00000000000E+00 -0.00000000000E+00 -0.11788441186E+04  0.11788441186E+04  0.00000000000E+00 0.  1.
          6    2    1    2  501    0 -0.63202041059E+03 -0.13779579529E+04  0.96760937875E+03  0.18065863369E+04  0.17107999142E+03 0.  0.
         24    2    3    3    0    0 -0.57381424912E+03 -0.11426594980E+04  0.84609183813E+03  0.15354001964E+04  0.81540442335E+02 0.  0.
         -6    2    1    2    0  502  0.63202041059E+03  0.13779579529E+04  0.70995566202E+01  0.15258108356E+04  0.17271474457E+03 0.  0.
        -24    2    5    5    0    0  0.55345832577E+03  0.10809217528E+04 -0.17152785211E+02  0.12175694182E+04  0.86447186031E+02 0.  0.
         14    1    4    4    0    0 -0.43952772274E+03 -0.86863326664E+03  0.60174628414E+03  0.11444679818E+04  0.00000000000E+00 0. -1.
        -13    1    4    4    0    0 -0.13428652638E+03 -0.27402623136E+03  0.24434555399E+03  0.39093221458E+03  0.00000000000E+00 0.  1.
          5    1    3    3  501    0 -0.58206161475E+02 -0.23529845493E+03  0.12151754061E+03  0.27118614051E+03  0.47000000000E+01 0. -1.
         11    1    6    6    0    0  0.17019466713E+03  0.40303117358E+03 -0.32344139830E+02  0.43868724050E+03  0.00000000000E+00 0. -1.
        -12    1    6    6    0    0  0.38326365864E+03  0.67789057921E+03  0.15191354619E+02  0.77888217766E+03  0.00000000000E+00 0.  1.
         -5    1    5    5    0  502  0.78562084821E+02  0.29703620013E+03  0.24252341832E+02  0.30824141747E+03  0.47000000000E+01 0.  1.
</event>
<event>
12    1  0.9749377E-001  0.7899961E+03  0.7818608E-02  0.9574611E-01
         21   -1    0    0  501  502  0.00000000000E+00  0.00000000000E+00  0.11316490254E+04  0.11316490254E+04  0.00000000000E+00 0. -1.
         21   -1    0    0  502  503 -0.00000000000E+00 -0.00000000000E+00 -0.61357454351E+03  0.61357454351E+03  0.00000000000E+00 0.  1.
         -6    2    1    2    0  503  0.48405713160E+03 -0.60514216943E+03  0.52450496998E+03  0.95123514598E+03  0.17098095662E+03 0.  0.
        -24    2    3    3    0    0  0.45391979142E+03 -0.48233524541E+03  0.44398099686E+03  0.80124847955E+03  0.78673594000E+02 0.  0.
          6    2    1    2  501    0 -0.48405713160E+03  0.60514216943E+03 -0.64304881428E+01  0.79398842288E+03  0.17282335668E+03 0.  0.
         24    2    5    5    0    0 -0.15009861981E+03  0.16935404867E+03  0.41378601501E+02  0.24285561416E+03  0.77822048281E+02 0.  0.
         14    1    6    6    0    0 -0.22463675411E+02  0.78785456792E+02  0.44036731182E+01  0.82043630173E+02  0.00000000000E+00 0. -1.
        -13    1    6    6    0    0 -0.12763494440E+03  0.90568591880E+02  0.36974928383E+02  0.16081198399E+03  0.00000000000E+00 0.  1.
          5    1    5    5  501    0 -0.33395851180E+03  0.43578812076E+03 -0.47809089644E+02  0.55113280872E+03  0.47000000000E+01 0. -1.
         13    1    4    4    0    0  0.31267009889E+03 -0.37689041055E+03  0.30656847457E+03  0.57774838979E+03  0.00000000000E+00 0. -1.
        -14    1    4    4    0    0  0.14124969253E+03 -0.10544483486E+03  0.13741252229E+03  0.22350008975E+03  0.00000000000E+00 0.  1.
         -5    1    3    3    0  503  0.30137340186E+02 -0.12280692402E+03  0.80523973124E+02  0.14998666643E+03  0.47000000000E+01 0.  1.
</event>
<event>
12    1  0.9749377E-001  0.2246778E+03  0.7818608E-02  0.1130443E+00
         21   -1    0    0  503  502  0.00000000000E+00  0.00000000000E+00  0.38299575867E+03  0.38299575867E+03  0.00000000000E+00 0. -1.
         21   -1    0    0  501  503 -0.00000000000E+00 -0.00000000000E+00 -0.16418305709E+03  0.16418305709E+03  0.00000000000E+00 0.  1.
          6    2    1    2  501    0  0.14133726996E+03  0.10042374439E+03  0.45528917473E+02  0.24857410412E+03  0.17220641857E+03 0.  0.
         24    2    3    3    0    0  0.10677675591E+03  0.14543224357E+02 -0.21043470631E+02  0.13445195154E+03  0.77599733504E+02 0.  0.
         -6    2    1    2    0  502 -0.14133726996E+03 -0.10042374439E+03  0.17328378411E+03  0.29860471164E+03  0.17051789249E+03 0.  0.
        -24    2    5    5    0    0 -0.10471935292E+03  0.49407886844E+00  0.11668512398E+03  0.17715193387E+03  0.82468190997E+02 0.  0.
         12    1    4    4    0    0  0.43780992757E+02 -0.20079384324E+02 -0.37099486402E+02  0.60797441499E+02  0.00000000000E+00 0. -1.
        -11    1    4    4    0    0  0.62995763154E+02  0.34622608681E+02  0.16056015771E+02  0.73654510043E+02  0.00000000000E+00 0.  1.
          5    1    3    3  501    0  0.34560514051E+02  0.85880520028E+02  0.66572388104E+02  0.11412215258E+03  0.47000000000E+01 0. -1.
         13    1    6    6    0    0 -0.51306374011E+02 -0.37549003899E+02  0.79395739517E+02  0.10171506851E+03  0.00000000000E+00 0. -1.
        -14    1    6    6    0    0 -0.53412978906E+02  0.38043082767E+02  0.37289384458E+02  0.75436865360E+02  0.00000000000E+00 0.  1.
         -5    1    5    5    0  502 -0.36617917045E+02 -0.10091782325E+03  0.56598660138E+02  0.12145277777E+03  0.47000000000E+01 0.  1.
</event>
<event>
12    1  0.9749377E-001  0.4402373E+03  0.7818608E-02  0.1030674E+00
         21   -1    0    0  501  502  0.00000000000E+00  0.00000000000E+00  0.16901578963E+03  0.16901578963E+03  0.00000000000E+00 0.  1.
         21   -1    0    0  502  503 -0.00000000000E+00 -0.00000000000E+00 -0.12060061202E+04  0.12060061202E+04  0.00000000000E+00 0. -1.
         -6    2    1    2    0  503  0.93447408247E+02  0.40714303760E+03 -0.51057159665E+03  0.68124195360E+03  0.17002756501E+03 0.  0.
        -24    2    3    3    0    0  0.84934444029E+01  0.22779425258E+03 -0.19943013947E+03  0.31216979393E+03  0.75599203779E+02 0.  0.
          6    2    1    2  501    0 -0.93447408247E+02 -0.40714303760E+03 -0.52641873394E+03  0.69377995625E+03  0.17238350581E+03 0.  0.
         24    2    5    5    0    0 -0.12868039751E+03 -0.26333306829E+03 -0.35379155104E+03  0.46630489150E+03  0.79805016709E+02 0.  0.
         14    1    6    6    0    0 -0.50362075748E+02 -0.17055750118E+03 -0.16992547330E+03  0.24596923865E+03  0.00000000000E+00 0. -1.
        -13    1    6    6    0    0 -0.78318321766E+02 -0.92775567106E+02 -0.18386607774E+03  0.22033565285E+03  0.00000000000E+00 0.  1.
          5    1    5    5  501    0  0.35232989267E+02 -0.14380996931E+03 -0.17262718290E+03  0.22747506475E+03  0.47000000000E+01 0. -1.
         11    1    4    4    0    0 -0.10923861099E+02  0.70915659414E+01  0.14513071788E+01  0.13104477912E+02  0.00000000000E+00 0. -1.
        -12    1    4    4    0    0  0.19417305502E+02  0.22070268664E+03 -0.20088144664E+03  0.29906531602E+03  0.00000000000E+00 0.  1.
         -5    1    3    3    0  503  0.84953963844E+02  0.17934878502E+03 -0.31114145718E+03  0.36907215966E+03  0.47000000000E+01 0.  1.
</event>
<event>
12    1  0.9749377E-001  0.8905177E+03  0.7818608E-02  0.9437513E-01
         21   -1    0    0  503  502  0.00000000000E+00  0.00000000000E+00  0.23818614673E+04  0.23818614673E+04  0.00000000000E+00 0. -1.
         21   -1    0    0  501  503 -0.00000000000E+00 -0.00000000000E+00 -0.34403883271E+03  0.34403883271E+03  0.00000000000E+00 0.  1.
          6    2    1    2  501    0  0.81338085755E+03 -0.35759074373E+03  0.10196109976E+04  0.13636527546E+04  0.17459292501E+03 0.  0.
         24    2    3    3    0    0  0.54614666277E+03 -0.25915631721E+03  0.58288365433E+03  0.84225433355E+03  0.64813840384E+02 0.  0.
         -6    2    1    2    0  502 -0.81338085755E+03  0.35759074373E+03  0.10182116371E+04  0.13622475454E+04  0.17176692836E+03 0.  0.
        -24    2    5    5    0    0 -0.53189180185E+03  0.26031844108E+03  0.57436560861E+03  0.82772029977E+03  0.67457117264E+02 0.  0.
         14    1    4    4    0    0  0.38370016476E+03 -0.20044664400E+03  0.38226730639E+03  0.57752313119E+03  0.00000000000E+00 0. -1.
        -13    1    4    4    0    0  0.16244649801E+03 -0.58709673203E+02  0.20061634794E+03  0.26473120236E+03  0.00000000000E+00 0.  1.
          5    1    3    3  501    0  0.26723419478E+03 -0.98434426525E+02  0.43672734323E+03  0.52139842108E+03  0.47000000000E+01 0. -1.
         13    1    6    6    0    0 -0.25629547608E+03  0.13951949489E+03  0.32623950243E+03  0.43770455042E+03  0.00000000000E+00 0. -1.
        -14    1    6    6    0    0 -0.27559632577E+03  0.12079894619E+03  0.24812610617E+03  0.39001574935E+03  0.00000000000E+00 0.  1.
         -5    1    5    5    0  502 -0.28148905570E+03  0.97272302657E+02  0.44384602848E+03  0.53452724565E+03  0.47000000000E+01 0.  1.
</event>
<event>
12    1  0.9749377E-001  0.4767507E+03  0.7818608E-02  0.1020032E+00
         21   -1    0    0  503  502  0.00000000000E+00  0.00000000000E+00  0.16967723358E+04  0.16967723358E+04  0.00000000000E+00 0. -1.
         21   -1    0    0  501  503 -0.00000000000E+00 -0.00000000000E+00 -0.14637107033E+03  0.14637107033E+03  0.00000000000E+00 0.  1.
          6    2    1    2  501    0  0.43948250410E+03  0.15975603192E+03  0.77778208791E+03  0.92375997836E+03  0.17239681031E+03 0.  0.
         24    2    3    3    0    0  0.29869782346E+03  0.13992942290E+03  0.64677904834E+03  0.73037614475E+03  0.79533278006E+02 0.  0.
         -6    2    1    2    0  502 -0.43948250410E+03 -0.15975603192E+03  0.77261917758E+03  0.91938342778E+03  0.17221681847E+03 0.  0.
        -24    2    5    5    0    0 -0.11991161867E+03 -0.71638103991E+02  0.24021615617E+03  0.29219494953E+03  0.90350830721E+02 0.  0.
         14    1    4    4    0    0  0.23396850470E+03  0.83066935368E+02  0.42154378207E+03  0.48922442411E+03  0.00000000000E+00 0. -1.
        -13    1    4    4    0    0  0.64729318767E+02  0.56862487533E+02  0.22523526626E+03  0.24115172063E+03  0.00000000000E+00 0.  1.
          5    1    3    3  501    0  0.14078468064E+03  0.19826609024E+02  0.13100303957E+03  0.19338383362E+03  0.47000000000E+01 0. -1.
         11    1    6    6    0    0 -0.50753405941E+02 -0.53591610993E+02  0.50421986123E+02  0.89388733452E+02  0.00000000000E+00 0. -1.
        -12    1    6    6    0    0 -0.69158212725E+02 -0.18046492998E+02  0.18979417005E+03  0.20280621608E+03  0.00000000000E+00 0.  1.
         -5    1    5    5    0  502 -0.31957088543E+03 -0.88117927934E+02  0.53240302141E+03  0.62718847825E+03  0.47000000000E+01 0.  1.
</event>
<event>
12    1  0.9749377E-001  0.3590756E+03  0.7818608E-02  0.1058950E+00
         21   -1    0    0  501  502  0.00000000000E+00  0.00000000000E+00  0.34223327141E+03  0.34223327141E+03  0.00000000000E+00 0.  1.
         21   -1    0    0  502  503 -0.00000000000E+00 -0.00000000000E+00 -0.41356107363E+03  0.41356107363E+03  0.00000000000E+00 0. -1.
         -6    2    1    2    0  503 -0.32443704354E+03 -0.79108187927E+02 -0.48557750310E+02  0.37879931719E+03  0.17208592903E+03 0.  0.
        -24    2    3    3    0    0 -0.24991069355E+03 -0.22525857551E+02  0.13788197524E+02  0.26626112738E+03  0.87989229775E+02 0.  0.
          6    2    1    2  501    0  0.32443704354E+03  0.79108187927E+02 -0.22770051917E+02  0.37699502785E+03  0.17346260445E+03 0.  0.
         24    2    5    5    0    0  0.33966312332E+03  0.79898620668E+02 -0.13907286876E+02  0.35874408558E+03  0.82152780740E+02 0.  0.
         12    1    6    6    0    0  0.14423919027E+03  0.73812572614E+02 -0.19142217890E+02  0.16315533822E+03  0.00000000000E+00 0. -1.
        -11    1    6    6    0    0  0.19542393305E+03  0.60860480540E+01  0.52349310144E+01  0.19558874736E+03  0.00000000000E+00 0.  1.
          5    1    5    5  501    0 -0.15226079783E+02 -0.79043274025E+00 -0.88627650417E+01  0.18250942268E+02  0.47000000000E+01 0. -1.
         11    1    4    4    0    0 -0.72913565428E+02 -0.46440956829E+01  0.44767225083E+02  0.85685821988E+02  0.00000000000E+00 0. -1.
        -12    1    4    4    0    0 -0.17699712812E+03 -0.17881761868E+02 -0.30979027559E+02  0.18057530539E+03  0.00000000000E+00 0.  1.
         -5    1    3    3    0  503 -0.74526349992E+02 -0.56582330376E+02 -0.62345947834E+02  0.11253818981E+03  0.47000000000E+01 0.  1.
</event>
<event>
12    1  0.9749377E-001  0.2260298E+03  0.7818608E-02  0.1129466E+00
         21   -1    0    0  501  502  0.00000000000E+00  0.00000000000E+00  0.15121278854E+03  0.15121278854E+03  0.00000000000E+00 0. -1.
         21   -1    0    0  502  503 -0.00000000000E+00 -0.00000000000E+00 -0.46451140511E+03  0.46451140511E+03  0.00000000000E+00 0.  1.
         -6    2    1    2    0  503 -0.10061541880E+03  0.16456895805E+03 -0.22391176034E+03  0.34196189180E+03  0.17203213237E+03 0.  0.
        -24    2    3    3    0    0 -0.93026995637E+01  0.49865010109E+02 -0.13986056944E+03  0.17290065715E+03  0.88094261481E+02 0.  0.
          6    2    1    2  501    0  0.10061541880E+03 -0.16456895805E+03 -0.89386856220E+02  0.27376230185E+03  0.17248009565E+03 0.  0.
         24    2    5    5    0    0  0.14747386083E+02 -0.15021097740E+03 -0.48745622499E+02  0.17756838037E+03  0.79834647026E+02 0.  0.
         12    1    6    6    0    0 -0.12939774122E+02 -0.10938242696E+03 -0.28390716718E+01  0.11018172902E+03  0.00000000000E+00 0. -1.
        -11    1    6    6    0    0  0.27687160205E+02 -0.40828550447E+02 -0.45906550827E+02  0.67386651354E+02  0.00000000000E+00 0.  1.
          5    1    5    5  501    0  0.85868032721E+02 -0.14357980647E+02 -0.40641233722E+02  0.96193921481E+02  0.47000000000E+01 0. -1.
         11    1    4    4    0    0 -0.19599681873E+02  0.24787207727E+02 -0.12082820365E+01  0.31622984392E+02  0.00000000000E+00 0. -1.
        -12    1    4    4    0    0  0.10296982309E+02  0.25077802382E+02 -0.13865228741E+03  0.14127767276E+03  0.00000000000E+00 0.  1.
         -5    1    3    3    0  503 -0.91312719240E+02  0.11470394794E+03 -0.84051190899E+02  0.16906123465E+03  0.47000000000E+01 0.  1.
</event>
<event>
12    1  0.9749377E-001  0.1440759E+03  0.7818608E-02  0.1207947E+00
         21   -1    0    0  501  502  0.00000000000E+00  0.00000000000E+00  0.62650242274E+03  0.62650242274E+03  0.00000000000E+00 0.  1.
         21   -1    0    0  502  503 -0.00000000000E+00 -0.00000000000E+00 -0.55294052756E+02  0.55294052756E+02  0.00000000000E+00 0.  1.
         -6    2    1    2    0  503  0.46044352096E+02 -0.38864691083E+02  0.35371061494E+03  0.39766307008E+03  0.17144728523E+03 0.  0.
        -24    2    3    3    0    0  0.31751989360E+02 -0.91398487158E+02  0.26894570761E+03  0.29681045049E+03  0.80017358107E+02 0.  0.
          6    2    1    2  501    0 -0.46044352096E+02  0.38864691083E+02  0.21749775504E+03  0.28413340541E+03  0.17261509798E+03 0.  0.
         24    2    5    5    0    0 -0.12444726699E+02  0.34388844038E+02  0.27404232291E+02  0.90984226214E+02  0.78674479060E+02 0.  0.
         14    1    6    6    0    0  0.28410213100E+02  0.98567184352E+01  0.31006553851E+02  0.43193766777E+02  0.00000000000E+00 0. -1.
        -13    1    6    6    0    0 -0.40854939799E+02  0.24532125603E+02 -0.36023215603E+01  0.47790459437E+02  0.00000000000E+00 0.  1.
          5    1    5    5  501    0 -0.33599625396E+02  0.44758470451E+01  0.19009352275E+03  0.19314917920E+03  0.47000000000E+01 0. -1.
         13    1    4    4    0    0  0.12429609892E+02  0.11457099702E+02  0.16911696008E+02  0.23911624736E+02  0.00000000000E+00 0. -1.
        -14    1    4    4    0    0  0.19322379468E+02 -0.10285558686E+03  0.25203401160E+03  0.27289882576E+03  0.00000000000E+00 0.  1.
         -5    1    3    3    0  503  0.14292362736E+02  0.52533796075E+02  0.84764907331E+02  0.10085261959E+03  0.47000000000E+01 0.  1.
</event>
<event>
12    1  0.9749377E-001  0.1722637E+04  0.7818608E-02  0.8748558E-01
         21   -1    0    0  503  502  0.00000000000E+00  0.00000000000E+00  0.47329810487E+04  0.47329810487E+04  0.00000000000E+00 0.  1.
         21   -1    0    0  501  503 -0.00000000000E+00 -0.00000000000E+00 -0.65519819616E+03  0.65519819616E+03  0.00000000000E+00 0. -1.
          6    2    1    2  501    0  0.15078076348E+04  0.82528010780E+03  0.15162697789E+04  0.22985572929E+04  0.17239624888E+03 0.  0.
         24    2    3    3    0    0  0.13373349459E+04  0.75798634751E+03  0.12976924875E+04  0.20132723298E+04  0.79067196644E+02 0.  0.
         -6    2    1    2    0  502 -0.15078076348E+04 -0.82528010780E+03  0.25615130736E+04  0.30896219519E+04  0.17275259662E+03 0.  0.
        -24    2    5    5    0    0 -0.61658496816E+03 -0.34935429865E+03  0.11653754291E+04  0.13662515246E+04  0.79485148183E+02 0.  0.
         14    1    4    4    0    0  0.11611549279E+04  0.63230515145E+03  0.11354412447E+04  0.17427901168E+04  0.00000000000E+00 0. -1.
        -13    1    4    4    0    0  0.17618001793E+03  0.12568119606E+03  0.16225124282E+03  0.27048221301E+03  0.00000000000E+00 0.  1.
          5    1    3    3  501    0  0.17047268890E+03  0.67293760288E+02  0.21857729140E+03  0.28528496307E+03  0.47000000000E+01 0. -1.
         13    1    6    6    0    0 -0.48233059133E+03 -0.23436446007E+03  0.86653884383E+03  0.10190481183E+04  0.00000000000E+00 0. -1.
        -14    1    6    6    0    0 -0.13425437682E+03 -0.11498983858E+03  0.29883658529E+03  0.34720340635E+03  0.00000000000E+00 0.  1.
         -5    1    5    5    0  502 -0.89122266662E+03 -0.47592580915E+03  0.13961376445E+04  0.17233704273E+04  0.47000000000E+01 0.  1.
</event>
<event>
12    1  0.9749377E-001  0.8594895E+03  0.7818608E-02  0.9477688E-01
         21   -1    0    0  503  502  0.00000000000E+00  0.00000000000E+00  0.37037964181E+03  0.37037964181E+03  0.00000000000E+00 0. -1.
         21   -1    0    0  501  503 -0.00000000000E+00 -0.00000000000E+00 -0.20756486163E+04  0.20756486163E+04  0.00000000000E+00 0.  1.
          6    2    1    2  501    0 -0.54722963659E+03  0.65478614897E+03 -0.70836579623E+03  0.11221391034E+04  0.17090608586E+03 0.  0.
         24    2    3    3    0    0 -0.21091296987E+03  0.34861953659E+03 -0.35083423269E+03  0.54360837499E+03  0.80034644871E+02 0.  0.
         -6    2    1    2    0  502  0.54722963659E+03 -0.65478614897E+03 -0.99690317821E+03  0.13238891546E+04  0.17510388620E+03 0.  0.
        -24    2    5    5    0    0  0.40848952681E+03 -0.51419348075E+03 -0.66690041405E+03  0.93926072254E+03  0.78714125019E+02 0.  0.
         14    1    4    4    0    0 -0.79316641736E+02  0.12953052099E+03 -0.18315321863E+03  0.23793777972E+03  0.00000000000E+00 0. -1.
        -13    1    4    4    0    0 -0.13159632814E+03  0.21908901560E+03 -0.16768101406E+03  0.30567059527E+03  0.00000000000E+00 0.  1.
          5    1    3    3  501    0 -0.33631666671E+03  0.30616661238E+03 -0.35753156354E+03  0.57853072846E+03  0.47000000000E+01 0. -1.
         11    1    6    6    0    0  0.13202283817E+03 -0.21003978644E+03 -0.21374276104E+03  0.32746405846E+03  0.00000000000E+00 0. -1.
        -12    1    6    6    0    0  0.27646668864E+03 -0.30415369430E+03 -0.45315765302E+03  0.61179666408E+03  0.00000000000E+00 0.  1.
         -5    1    5    5    0  502  0.13874010978E+03 -0.14059266822E+03 -0.33000276416E+03  0.38462843209E+03  0.47000000000E+01 0.  1.
</event>
<event>
12    1  0.9749377E-001  0.6152124E+03  0.7818608E-02  0.9874338E-01
         21   -1    0    0  503  502  0.00000000000E+00  0.00000000000E+00  0.84043700779E+03  0.84043700779E+03  0.00000000000E+00 0.  1.
         21   -1    0    0  501  503 -0.00000000000E+00 -0.00000000000E+00 -0.55271607489E+03  0.55271607489E+03  0.00000000000E+00 0. -1.
          6    2    1    2  501    0  0.57103375899E+03 -0.19267985975E+03  0.41766046242E+03  0.75318234905E+03  0.17215779620E+03 0.  0.
         24    2    3    3    0    0  0.16300835389E+03 -0.75767708331E+02  0.18302171525E+03  0.26817656142E+03  0.78161696375E+02 0.  0.
         -6    2    1    2    0  502 -0.57103375899E+03  0.19267985975E+03 -0.12993952952E+03  0.63997073364E+03  0.17167753589E+03 0.  0.
        -24    2    5    5    0    0 -0.15418945133E+03  0.94969759733E+02 -0.27383703359E+02  0.19969101806E+03  0.79580106303E+02 0.  0.
         12    1    4    4    0    0  0.32502950914E+02 -0.21109201008E+01  0.79853118845E+02  0.86240468407E+02  0.00000000000E+00 0. -1.
        -11    1    4    4    0    0  0.13050540297E+03 -0.73656788230E+02  0.10316859641E+03  0.18193609302E+03  0.00000000000E+00 0.  1.
          5    1    3    3  501    0  0.40802540510E+03 -0.11691215142E+03  0.23463874717E+03  0.48500578763E+03  0.47000000000E+01 0. -1.
         11    1    6    6    0    0 -0.99458277712E+02  0.18254257999E+02  0.14851621322E+01  0.10113047338E+03  0.00000000000E+00 0. -1.
        -12    1    6    6    0    0 -0.54731173615E+02  0.76715501734E+02 -0.28868865491E+02  0.98560544674E+02  0.00000000000E+00 0.  1.
         -5    1    5    5    0  502 -0.41684430766E+03  0.97710100017E+02 -0.10255582617E+03  0.44027971558E+03  0.47000000000E+01 0.  1.
</event>
<event>
12    1  0.9749377E-001  0.3097725E+03  0.7818608E-02  0.1080455E+00
         21   -1    0    0  503  502  0.00000000000E+00  0.00000000000E+00  0.10121838323E+04  0.10121838323E+04  0.00000000000E+00 0.  1.
         21   -1    0    0  501  503 -0.00000000000E+00 -0.00000000000E+00 -0.14479202732E+03  0.14479202732E+03  0.00000000000E+00 0. -1.
          6    2    1    2  501    0  0.28085657326E+03 -0.11002436585E+03  0.19276558649E+03  0.39770853553E+03  0.17328511788E+03 0.  0.
         24    2    3    3    0    0  0.25530305611E+03 -0.11539391675E+03  0.21975038863E+03  0.35986565163E+03  0.52131060183E+02 0.  0.
         -6    2    1    2    0  502 -0.28085657326E+03  0.11002436585E+03  0.67462621851E+03  0.75926732411E+03  0.17430019772E+03 0.  0.
        -24    2    5    5    0    0 -0.12598649337E+03  0.89045093775E+02  0.22450450507E+03  0.28276284520E+03  0.75834877156E+02 0.  0.
         12    1    4    4    0    0  0.14629171948E+02 -0.16729479845E+02  0.32467738716E+02  0.39345167748E+02  0.00000000000E+00 0. -1.
        -11    1    4    4    0    0  0.24067388416E+03 -0.98664436906E+02  0.18728264991E+03  0.32052048388E+03  0.00000000000E+00 0.  1.
          5    1    3    3  501    0  0.25553517148E+02  0.53695508997E+01 -0.26984802144E+02  0.37842883905E+02  0.47000000000E+01 0. -1.
         13    1    6    6    0    0 -0.76231842105E+02  0.51651639203E+02  0.68397477656E+02  0.11470571273E+03  0.00000000000E+00 0. -1.
        -14    1    6    6    0    0 -0.49754651269E+02  0.37393454572E+02  0.15610702741E+03  0.16805713247E+03  0.00000000000E+00 0.  1.
         -5    1    5    5    0  502 -0.15487007988E+03  0.20979272075E+02  0.45012171344E+03  0.47650447890E+03  0.47000000000E+01 0.  1.
</event>
<event>
12    1  0.9749377E-001  0.5124935E+03  0.7818608E-02  0.1010568E+00
         21   -1    0    0  503  502  0.00000000000E+00  0.00000000000E+00  0.13900510398E+04  0.13900510398E+04  0.00000000000E+00 0.  1.
         21   -1    0    0  501  503 -0.00000000000E+00 -0.00000000000E+00 -0.20753832168E+03  0.20753832168E+03  0.00000000000E+00 0. -1.
          6    2    1    2  501    0 -0.49602361836E+03 -0.10872975919E+03  0.53995373585E+03  0.76074033793E+03  0.17121400175E+03 0.  0.
         24    2    3    3    0    0 -0.33835372150E+03 -0.10195406956E+03  0.44228544945E+03  0.57508773086E+03  0.10115140254E+03 0.  0.
         -6    2    1    2    0  502  0.49602361836E+03  0.10872975919E+03  0.64255898229E+03  0.83684902356E+03  0.17196700850E+03 0.  0.
        -24    2    5    5    0    0  0.10107073123E+03  0.41753445683E+02  0.15031747861E+03  0.20218580770E+03  0.79530582308E+02 0.  0.
         14    1    4    4    0    0 -0.26446668547E+03 -0.88961923992E+02  0.40364785015E+03  0.49070198550E+03  0.00000000000E+00 0. -1.
        -13    1    4    4    0    0 -0.73887036033E+02 -0.12992145563E+02  0.38637599301E+02  0.84385745359E+02  0.00000000000E+00 0.  1.
          5    1    3    3  501    0 -0.15766989686E+03 -0.67756896301E+01  0.97668286399E+02  0.18565260707E+03  0.47000000000E+01 0. -1.
         11    1    6    6    0    0  0.21924722581E+02  0.21565507718E+02 -0.40266690981E+00  0.30755921772E+02  0.00000000000E+00 0. -1.
        -12    1    6    6    0    0  0.79146008647E+02  0.20187937965E+02  0.15072014552E+03  0.17142988593E+03  0.00000000000E+00 0.  1.
         -5    1    5    5    0  502  0.39495288713E+03  0.66976313502E+02  0.49224150369E+03  0.63466321587E+03  0.47000000000E+01 0.  1.
</event>
<event>
12    1  0.9749377E-001  0.4687916E+03  0.7818608E-02  0.1022262E+00
         21   -1    0    0  501  502  0.00000000000E+00  0.00000000000E+00  0.19473700142E+03  0.19473700142E+03  0.00000000000E+00 0.  1.
         21   -1    0    0  502  503 -0.00000000000E+00 -0.00000000000E+00 -0.13109252191E+04  0.13109252191E+04  0.00000000000E+00 0. -1.
         -6    2    1    2    0  503 -0.31518727090E+03  0.32639828667E+03 -0.34687070718E+03  0.59622231877E+03  0.17112249593E+03 0.  0.
        -24    2    3    3    0    0 -0.73895627131E+02  0.77761234692E+02 -0.75422452007E+02  0.15605384397E+03  0.84598360621E+02 0.  0.
          6    2    1    2  501    0  0.31518727090E+03 -0.32639828667E+03 -0.76931751048E+03  0.90943990173E+03  0.17132613827E+03 0.  0.
         24    2    5    5    0    0  0.13688073925E+03 -0.12275241623E+03 -0.22338470591E+03  0.30007172330E+03  0.79610425345E+02 0.  0.
         12    1    6    6    0    0  0.42340889227E+02 -0.81946307434E+02 -0.72124304409E+02  0.11708912626E+03  0.00000000000E+00 0. -1.
        -11    1    6    6    0    0  0.94539850025E+02 -0.40806108801E+02 -0.15126040150E+03  0.18298259704E+03  0.00000000000E+00 0.  1.
          5    1    5    5  501    0  0.17830653165E+03 -0.20364587044E+03 -0.54593280457E+03  0.60936817843E+03  0.47000000000E+01 0. -1.
         11    1    4    4    0    0 -0.66372764620E+02  0.89371130086E+02 -0.40447294844E+02  0.11844208051E+03  0.00000000000E+00 0. -1.
        -12    1    4    4    0    0 -0.75228625106E+01 -0.11609895393E+02 -0.34975157163E+02  0.37611763453E+02  0.00000000000E+00 0.  1.
         -5    1    3    3    0  503 -0.24129164377E+03  0.24863705198E+03 -0.27144825518E+03  0.44016847480E+03  0.47000000000E+01 0.  1.
</event>
<event>
12    1  0.9749377E-001  0.1864166E+03  0.7818608E-02  0.1161734E+00
         21   -1    0    0  501  502  0.00000000000E+00  0.00000000000E+00  0.13985065211E+03  0.13985065211E+03  0.00000000000E+00 0. -1.
         21   -1    0    0  502  503 -0.00000000000E+00 -0.00000000000E+00 -0.66151909497E+03  0.66151909497E+03  0.00000000000E+00 0. -1.
         -6    2    1    2    0  503 -0.11917199067E+03 -0.70640511071E+02  0.13714952511E+02  0.22208756120E+03  0.17303970572E+03 0.  0.
        -24    2    3    3    0    0 -0.93272485852E+02 -0.66450336610E+01 -0.43965446440E+02  0.13200246864E+03  0.82144860810E+02 0.  0.
          6    2    1    2  501    0  0.11917199067E+03  0.70640511071E+02 -0.53538339537E+03  0.57928218588E+03  0.17245412630E+03 0.  0.
         24    2    5    5    0    0  0.12415412999E+03  0.79668312751E+02 -0.30238576185E+03  0.34600914813E+03  0.80770623182E+02 0.  0.
         12    1    6    6    0    0  0.11458026160E+03  0.31592992764E+02 -0.22335987986E+03  0.25301460328E+03  0.00000000000E+00 0. -1.
        -11    1    6    6    0    0  0.95738683877E+01  0.48075319988E+02 -0.79025881989E+02  0.92994544851E+02  0.00000000000E+00 0.  1.
          5    1    5    5  501    0 -0.49821393244E+01 -0.90278016808E+01 -0.23299763352E+03  0.23327303775E+03  0.47000000000E+01 0. -1.
         11    1    4    4    0    0 -0.80568593535E+02  0.29745490048E+02 -0.31833408277E+02  0.91593986292E+02  0.00000000000E+00 0. -1.
        -12    1    4    4    0    0 -0.12703892317E+02 -0.36390523709E+02 -0.12132038162E+02  0.40408482349E+02  0.00000000000E+00 0.  1.
         -5    1    3    3    0  503 -0.25899504815E+02 -0.63995477410E+02  0.57680398951E+02  0.90085092561E+02  0.47000000000E+01 0.  1.
</event>
<event>
12    1  0.9749377E-001  0.4292762E+03  0.7818608E-02  0.1034089E+00
         21   -1    0    0  501  502  0.00000000000E+00  0.00000000000E+00  0.21425827547E+04  0.21425827547E+04  0.00000000000E+00 0.  1.
         21   -1    0    0  502  503 -0.00000000000E+00 -0.00000000000E+00 -0.90209660413E+02  0.90209660413E+02  0.00000000000E+00 0. -1.
         -6    2    1    2    0  503  0.34008705864E+03  0.21932930261E+03  0.10527253349E+04  0.11407117681E+04  0.17096244248E+03 0.  0.
        -24    2    3    3    0    0  0.34658581026E+03  0.18468248706E+03  0.99669586814E+03  0.10743489265E+04  0.81201092457E+02 0.  0.
          6    2    1    2  501    0 -0.34008705864E+03 -0.21932930261E+03  0.99964775939E+03  0.10920806470E+04  0.17198821545E+03 0.  0.
         24    2    5    5    0    0 -0.19869954866E+03 -0.57092002738E+02  0.47917984533E+03  0.52885750381E+03  0.85650030693E+02 0.  0.
         12    1    6    6    0    0 -0.16256689899E+01  0.74486016394E+01  0.10528769346E+01  0.76962988434E+01  0.00000000000E+00 0. -1.
        -11    1    6    6    0    0 -0.19707387967E+03 -0.64540604377E+02  0.47812696839E+03  0.52116120497E+03  0.00000000000E+00 0.  1.
          5    1    5    5  501    0 -0.14138750998E+03 -0.16223729988E+03  0.52046791406E+03  0.56322314318E+03  0.47000000000E+01 0. -1.
         11    1    4    4    0    0  0.84344759107E+02  0.43034362706E+02  0.15722077668E+03  0.18353301442E+03  0.00000000000E+00 0. -1.
        -12    1    4    4    0    0  0.26224105115E+03  0.14164812435E+03  0.83947509146E+03  0.89081591208E+03  0.00000000000E+00 0.  1.
         -5    1    3    3    0  503 -0.64987516209E+01  0.34646815559E+02  0.56029466736E+02  0.66362841588E+02  0.47000000000E+01 0.  1.
</event>
<event>
12    1  0.9749377E-001  0.5495853E+03  0.7818608E-02  0.1001590E+00
         21   -1    0    0  501  502  0.00000000000E+00  0.00000000000E+00  0.26850227345E+03  0.26850227345E+03  0.00000000000E+00 0.  1.
         21   -1    0    0  502  503 -0.00000000000E+00 -0.00000000000E+00 -0.14327524449E+04  0.14327524449E+04  0.00000000000E+00 0. -1.
         -6    2    1    2    0  503 -0.35675486954E+03  0.39762837840E+03 -0.95626277796E+03  0.11085349728E+04  0.17037875796E+03 0.  0.
        -24    2    3    3    0    0 -0.19245272021E+03  0.12650729505E+03 -0.41902374424E+03  0.48471632330E+03  0.79541628228E+02 0.  0.
          6    2    1    2  501    0  0.35675486954E+03 -0.39762837840E+03 -0.20798739344E+03  0.59271974550E+03  0.15058411810E+03 0.  0.
         24    2    5    5    0    0  0.25359303811E+03 -0.26210317306E+03 -0.19538220444E+03  0.42186768805E+03  0.82405328085E+02 0.  0.
         14    1    6    6    0    0 -0.17458718839E+01 -0.22572384024E+02 -0.44100297273E+01  0.23065319234E+02  0.00000000000E+00 0. -1.
        -13    1    6    6    0    0  0.25533891000E+03 -0.23953078904E+03 -0.19097217472E+03  0.39880236882E+03  0.00000000000E+00 0.  1.
          5    1    5    5  501    0  0.10316183142E+03 -0.13552520534E+03 -0.12605188994E+02  0.17085205745E+03  0.47000000000E+01 0. -1.
         11    1    4    4    0    0  0.10974390225E+01 -0.49131215591E+01 -0.32630122695E+02  0.33016178503E+02  0.00000000000E+00 0. -1.
        -12    1    4    4    0    0 -0.19355015923E+03  0.13142041661E+03 -0.38639362155E+03  0.45170014480E+03  0.00000000000E+00 0.  1.
         -5    1    3    3    0  503 -0.16430214933E+03  0.27112108335E+03 -0.53723903372E+03  0.62381864950E+03  0.47000000000E+01 0.  1.
</event>
<event>
12    1  0.9749377E-001  0.3224577E+03  0.7818608E-02  0.1074524E+00
         21   -1    0    0  501  502  0.00000000000E+00  0.00000000000E+00  0.29152937203E+03  0.29152937203E+03  0.00000000000E+00 0. -1.
         21   -1    0    0  502  503 -0.00000000000E+00 -0.00000000000E+00 -0.78597799454E+03  0.78597799454E+03  0.00000000000E+00 0.  1.
         -6    2    1    2    0  503 -0.26361187980E+03 -0.13499041411E+03  0.12826944033E+03  0.36716219798E+03  0.17504683724E+03 0.  0.
        -24    2    3    3    0    0 -0.95487261966E+02 -0.11056363750E+03  0.26671571558E+02  0.16915519942E+03  0.80993664121E+02 0.  0.
          6    2    1    2  501    0  0.26361187980E+03  0.13499041411E+03 -0.62271806285E+03  0.71034516859E+03  0.17058381422E+03 0.  0.
         24    2    5    5    0    0  0.25422064131E+03  0.87519865378E+02 -0.44314067144E+03  0.52430275982E+03  0.78942181154E+02 0.  0.
         14    1    6    6    0    0  0.12733978954E+03  0.15992356381E+02 -0.26300798863E+03  0.29265061002E+03  0.00000000000E+00 0. -1.
        -13    1    6    6    0    0  0.12688085177E+03  0.71527508997E+02 -0.18013268281E+03  0.23165214979E+03  0.00000000000E+00 0.  1.
          5    1    5    5  501    0  0.93912384879E+01  0.47470548730E+02 -0.17957739141E+03  0.18604240877E+03  0.47000000000E+01 0. -1.
         13    1    4    4    0    0 -0.45919023058E+02 -0.22136337509E+02 -0.23400445239E+02  0.56090595952E+02  0.00000000000E+00 0. -1.
        -14    1    4    4    0    0 -0.49568238908E+02 -0.88427299988E+02  0.50072016797E+02  0.11306460347E+03  0.00000000000E+00 0.  1.
         -5    1    3    3    0  503 -0.16812461783E+03 -0.24426776611E+02  0.10159786878E+03  0.19800699856E+03  0.47000000000E+01 0.  1.
</event>
<event>
12    1  0.9749377E-001  0.4355968E+03  0.7818608E-02  0.1032106E+00
         21   -1    0    0  501  502  0.00000000000E+00  0.00000000000E+00  0.33682645451E+03  0.33682645451E+03  0.00000000000E+00 0.  1.
         21   -1    0    0  502  503 -0.00000000000E+00 -0.00000000000E+00 -0.62141392332E+03  0.62141392332E+03  0.00000000000E+00 0. -1.
         -6    2    1    2    0  503  0.28058356549E+03 -0.31710056260E+03 -0.13445484072E+03  0.47665398538E+03  0.17274551676E+03 0.  0.
        -24    2    3    3    0    0  0.19778498558E+03 -0.17742316624E+03 -0.14683205288E+03  0.31374092491E+03  0.79220172762E+02 0.  0.
          6    2    1    2  501    0 -0.28058356549E+03  0.31710056260E+03 -0.15013262810E+03  0.48158639245E+03  0.17351006700E+03 0.  0.
         24    2    5    5    0    0 -0.19462629873E+03  0.15752075628E+03 -0.31926801334E+02  0.26513992384E+03  0.81164485792E+02 0.  0.
         12    1    6    6    0    0 -0.29367897117E+02  0.62850596077E+02  0.10097682687E+02  0.70104450671E+02  0.00000000000E+00 0. -1.
        -11    1    6    6    0    0 -0.16525840161E+03  0.94670160206E+02 -0.42024484022E+02  0.19503547317E+03  0.00000000000E+00 0.  1.
          5    1    5    5  501    0 -0.85957266755E+02  0.15957980632E+03 -0.11820582676E+03  0.21644646861E+03  0.47000000000E+01 0. -1.
         13    1    4    4    0    0  0.95210430035E+02 -0.10675304522E+03 -0.11908636494E+03  0.18612576653E+03  0.00000000000E+00 0. -1.
        -14    1    4    4    0    0  0.10257455555E+03 -0.70670121018E+02 -0.27745687943E+02  0.12761515839E+03  0.00000000000E+00 0.  1.
         -5    1    3    3    0  503  0.82798579904E+02 -0.13967739637E+03  0.12377212160E+02  0.16291306047E+03  0.47000000000E+01 0.  1.
</event>
<event>
12    1  0.9749377E-001  0.3083142E+03  0.7818608E-02  0.1081157E+00
         21   -1    0    0  501  502  0.00000000000E+00  0.00000000000E+00  0.28475707109E+03  0.28475707109E+03  0.00000000000E+00 0.  1.
         21   -1    0    0  502  503 -0.00000000000E+00 -0.00000000000E+00 -0.41784712430E+03  0.41784712430E+03  0.00000000000E+00 0. -1.
         -6    2    1    2    0  503  0.20038218536E+03 -0.20246364174E+03  0.26249634454E+02  0.33404699013E+03  0.17249290382E+03 0.  0.
        -24    2    3    3    0    0  0.21925930475E+03 -0.19830320494E+03  0.41424382896E+02  0.30902664119E+03  0.79891687007E+02 0.  0.
          6    2    1    2  501    0 -0.20038218536E+03  0.20246364174E+03 -0.15933968767E+03  0.36855720526E+03  0.17117456309E+03 0.  0.
         24    2    5    5    0    0 -0.95193228902E+02  0.14993637434E+03 -0.33408469986E+02  0.19620700373E+03  0.76409392527E+02 0.  0.
         14    1    6    6    0    0 -0.55730155247E+02  0.55984065895E+02  0.19530664530E+02  0.81372677816E+02  0.00000000000E+00 0. -1.
        -13    1    6    6    0    0 -0.39463073655E+02  0.93952308443E+02 -0.52939134516E+02  0.11483432591E+03  0.00000000000E+00 0.  1.
          5    1    5    5  501    0 -0.10518895646E+03  0.52527267399E+02 -0.12593121769E+03  0.17235020154E+03  0.47000000000E+01 0. -1.
         13    1    4    4    0    0  0.42524418596E+02 -0.19572265742E+02 -0.18980795223E+02  0.50514060919E+02  0.00000000000E+00 0. -1.
        -14    1    4    4    0    0  0.17673488616E+03 -0.17873093920E+03  0.60405178119E+02  0.25851258027E+03  0.00000000000E+00 0.  1.
         -5    1    3    3    0  503 -0.18877119391E+02 -0.41604367933E+01 -0.15174748442E+02  0.25020348941E+02  0.47000000000E+01 0.  1.
</event>
<event>
12    1  0.9749377E-001  0.1821727E+03  0.7818608E-02  0.1165717E+00
         21   -1    0    0  501  502  0.00000000000E+00  0.00000000000E+00  0.45425641675E+02  0.45425641675E+02  0.00000000000E+00 0.  1.
         21   -1    0    0  502  503 -0.00000000000E+00 -0.00000000000E+00 -0.11300770281E+04  0.11300770281E+04  0.00000000000E+00 0. -1.
         -6    2    1    2    0  503 -0.35782590278E+02 -0.13481398160E+03 -0.41926542457E+03  0.47390789968E+03  0.17131841037E+03 0.  0.
        -24    2    3    3    0    0 -0.19942128042E+01 -0.86188947777E+02 -0.39047544361E+03  0.40790031397E+03  0.80492747952E+02 0.  0.
          6    2    1    2  501    0  0.35782590278E+02  0.13481398160E+03 -0.66538596190E+03  0.70159477015E+03  0.17332495435E+03 0.  0.
         24    2    5    5    0    0 -0.15360801321E+02  0.74215901027E+02 -0.55016906269E+03  0.56164907447E+03  0.83783835748E+02 0.  0.
         12    1    6    6    0    0 -0.49156587261E+02  0.42597555678E+02 -0.27294471407E+03  0.28058820139E+03  0.00000000000E+00 0. -1.
        -11    1    6    6    0    0  0.33795785940E+02  0.31618345349E+02 -0.27722434863E+03  0.28106087309E+03  0.00000000000E+00 0.  1.
          5    1    5    5  501    0  0.51143391599E+02  0.60598080575E+02 -0.11521689921E+03  0.13994569567E+03  0.47000000000E+01 0. -1.
         11    1    4    4    0    0 -0.11088063793E+02 -0.98365807558E+02 -0.29355651581E+03  0.30979703877E+03  0.00000000000E+00 0. -1.
        -12    1    4    4    0    0  0.90938509886E+01  0.12176859780E+02 -0.96918927799E+02  0.98103275203E+02  0.00000000000E+00 0.  1.
         -5    1    3    3    0  503 -0.33788377474E+02 -0.48625033825E+02 -0.28789980963E+02  0.66007585705E+02  0.47000000000E+01 0.  1.
</event>
<event>
12    1  0.9749377E-001  0.3056350E+03  0.7818608E-02  0.1082457E+00
         21   -1    0    0  503  502  0.00000000000E+00  0.00000000000E+00  0.42157923941E+03  0.42157923941E+03  0.00000000000E+00 0.  1.
         21   -1    0    0  501  503 -0.00000000000E+00 -0.00000000000E+00 -0.35572971664E+03  0.35572971664E+03  0.00000000000E+00 0. -1.
          6    2    1    2  501    0 -0.23332182103E+03  0.17130252559E+03 -0.15922199642E+03  0.37213588551E+03  0.17131796666E+03 0.  0.
         24    2    3    3    0    0 -0.84826621219E+02  0.55863232062E+02 -0.86615235166E+01  0.13116368617E+03  0.82538683147E+02 0.  0.
         -6    2    1    2    0  502  0.23332182103E+03 -0.17130252559E+03  0.22507151918E+03  0.40517307054E+03  0.17240765905E+03 0.  0.
        -24    2    5    5    0    0  0.17336640396E+03 -0.14720067300E+03  0.23828543755E+03  0.33905008684E+03  0.80318512724E+02 0.  0.
         14    1    4    4    0    0  0.16226347492E+02  0.20482290487E+01 -0.20611099700E+01  0.16484470555E+02  0.00000000000E+00 0. -1.
        -13    1    4    4    0    0 -0.10105296871E+03  0.53815003014E+02 -0.66004135466E+01  0.11467921561E+03  0.00000000000E+00 0.  1.
          5    1    3    3  501    0 -0.14849519981E+03  0.11543929353E+03 -0.15056047290E+03  0.24097219935E+03  0.47000000000E+01 0. -1.
         13    1    6    6    0    0  0.10121260502E+03 -0.82521574347E+02  0.79060534332E+02  0.15265768810E+03  0.00000000000E+00 0. -1.
        -14    1    6    6    0    0  0.72153798944E+02 -0.64679098651E+02  0.15922490322E+03  0.18639239874E+03  0.00000000000E+00 0.  1.
         -5    1    5    5    0  502  0.59955417064E+02 -0.24101852595E+02 -0.13213918370E+02  0.66122983693E+02  0.47000000000E+01 0.  1.
</event>
<event>
12    1  0.9749377E-001  0.3228957E+03  0.7818608E-02  0.1074324E+00
         21   -1    0    0  501  502  0.00000000000E+00  0.00000000000E+00  0.44820291093E+03  0.44820291093E+03  0.00000000000E+00 0.  1.
         21   -1    0    0  502  503 -0.00000000000E+00 -0.00000000000E+00 -0.33943806971E+03  0.33943806971E+03  0.00000000000E+00 0. -1.
         -6    2    1    2    0  503  0.28164772713E+03  0.89494302594E+02 -0.13458476262E+03  0.36788802242E+03  0.17289842773E+03 0.  0.
        -24    2    3    3    0    0  0.24373906434E+03  0.11495695251E+03 -0.71659937730E+02  0.28999683650E+03  0.79619005843E+02 0.  0.
          6    2    1    2  501    0 -0.28164772713E+03 -0.89494302594E+02  0.24334960385E+03  0.41975295822E+03  0.17215935596E+03 0.  0.
         24    2    5    5    0    0 -0.14826260501E+03  0.20716999133E+02  0.14180568031E+03  0.21907565447E+03  0.73988494493E+02 0.  0.
         12    1    6    6    0    0 -0.15002416330E+03  0.25522564104E+02  0.14714142918E+03  0.21168195727E+03  0.00000000000E+00 0. -1.
        -11    1    6    6    0    0  0.17615582906E+01 -0.48055649712E+01 -0.53357488713E+01  0.73936972025E+01  0.00000000000E+00 0.  1.
          5    1    5    5  501    0 -0.13338512212E+03 -0.11021130173E+03  0.10154392354E+03  0.20067730375E+03  0.47000000000E+01 0. -1.
         13    1    4    4    0    0  0.90719889777E+02  0.41702791756E+02  0.12488881492E+02  0.10062402001E+03  0.00000000000E+00 0. -1.
        -14    1    4    4    0    0  0.15301917456E+03  0.73254160754E+02 -0.84148819222E+02  0.18937281649E+03  0.00000000000E+00 0.  1.
         -5    1    3    3    0  503  0.37908662796E+02 -0.25462649915E+02 -0.62924824893E+02  0.77891185917E+02  0.47000000000E+01 0.  1.
</event>
<event>
12    1  0.9749377E-001  0.3005909E+03  0.7818608E-02  0.1084946E+00
         21   -1    0    0  501  502  0.00000000000E+00  0.00000000000E+00  0.11681358603E+03  0.11681358603E+03  0.00000000000E+00 0. -1.
         21   -1    0    0  502  503 -0.00000000000E+00 -0.00000000000E+00 -0.92119039441E+03  0.92119039441E+03  0.00000000000E+00 0.  1.
         -6    2    1    2    0  503  0.14580212242E+03 -0.23714857552E+03 -0.36069801362E+03  0.48680366183E+03  0.17139732309E+03 0.  0.
        -24    2    3    3    0    0  0.72875699486E+02 -0.10138707202E+03 -0.84411983440E+02  0.17040911467E+03  0.79521553474E+02 0.  0.
          6    2    1    2  501    0 -0.14580212242E+03  0.23714857552E+03 -0.44367879476E+03  0.55120031862E+03  0.17167764138E+03 0.  0.
         24    2    5    5    0    0 -0.31123785473E+02  0.63329149198E+02 -0.82290442358E+02  0.13408169618E+03  0.78910792585E+02 0.  0.
         12    1    6    6    0    0 -0.25010145885E+02 -0.12421120857E+02 -0.11426140376E+02  0.30171979127E+02  0.00000000000E+00 0. -1.
        -11    1    6    6    0    0 -0.61136395877E+01  0.75750270055E+02 -0.70864301982E+02  0.10390971705E+03  0.00000000000E+00 0.  1.
          5    1    5    5  501    0 -0.11467833694E+03  0.17381942632E+03 -0.36138835240E+03  0.41711862244E+03  0.47000000000E+01 0. -1.
         11    1    4    4    0    0  0.30711350331E+02 -0.83529205466E+02 -0.19725664778E+02  0.91156003948E+02  0.00000000000E+00 0. -1.
        -12    1    4    4    0    0  0.42164349155E+02 -0.17857866554E+02 -0.64686318662E+02  0.79253110725E+02  0.00000000000E+00 0.  1.
         -5    1    3    3    0  503  0.72926422931E+02 -0.13576150350E+03 -0.27628603018E+03  0.31639454715E+03  0.47000000000E+01 0.  1.
</event>
<event>
12    1  0.9749377E-001  0.2368112E+03  0.7818608E-02  0.1121936E+00
         21   -1    0    0  501  502  0.00000000000E+00  0.00000000000E+00  0.51317455589E+03  0.51317455589E+03  0.00000000000E+00 0.  1.
         21   -1    0    0  502  503 -0.00000000000E+00 -0.00000000000E+00 -0.15804993454E+03  0.15804993454E+03  0.00000000000E+00 0. -1.
         -6    2    1    2    0  503  0.17345224450E+03  0.12906413216E+03  0.25601924538E+03  0.37747937128E+03  0.17378604779E+03 0.  0.
        -24    2    3    3    0    0  0.73361315897E+02  0.87405164738E+02  0.22532654301E+03  0.26470616731E+03  0.79219685262E+02 0.  0.
          6    2    1    2  501    0 -0.17345224450E+03 -0.12906413216E+03  0.99105375977E+02  0.29374511915E+03  0.17239805144E+03 0.  0.
         24    2    5    5    0    0 -0.80995113575E+02 -0.46165986289E+02  0.11402980096E+03  0.16858421427E+03  0.82014237064E+02 0.  0.
         12    1    6    6    0    0 -0.49035504939E+02 -0.69170182098E+02  0.78399995956E+02  0.11547967008E+03  0.00000000000E+00 0. -1.
        -11    1    6    6    0    0 -0.31959608636E+02  0.23004195809E+02  0.35629805005E+02  0.53104544190E+02  0.00000000000E+00 0.  1.
          5    1    5    5  501    0 -0.92457130929E+02 -0.82898145869E+02 -0.14924424984E+02  0.12516090487E+03  0.47000000000E+01 0. -1.
         11    1    4    4    0    0  0.32098071453E+01  0.16939990283E+02 -0.12354874070E+01  0.17285617196E+02  0.00000000000E+00 0. -1.
        -12    1    4    4    0    0  0.70151508752E+02  0.70465174455E+02  0.22656203042E+03  0.24742055011E+03  0.00000000000E+00 0.  1.
         -5    1    3    3    0  503  0.10009092861E+03  0.41658967420E+02  0.30692702363E+02  0.11277320397E+03  0.47000000000E+01 0.  1.
</event>
<event>
12    1  0.9749377E-001  0.5712078E+03  0.7818608E-02  0.9967009E-01
         21   -1    0    0  501  502  0.00000000000E+00  0.00000000000E+00  0.11227832772E+04  0.11227832772E+04  0.00000000000E+00 0. -1.
         21   -1    0    0  502  503 -0.00000000000E+00 -0.00000000000E+00 -0.32313810045E+03  0.32313810045E+03  0.00000000000E+00 0.  1.
         -6    2    1    2    0  503  0.49013455082E+03  0.25076052568E+03  0.60618611667E+03  0.83725265561E+03  0.17440665736E+03 0.  0.
        -24    2    3    3    0    0  0.92341926920E+02  0.64504468629E+02  0.15093792160E+03  0.20463642160E+03  0.80037184650E+02 0.  0.
          6    2    1    2  501    0 -0.49013455082E+03 -0.25076052568E+03  0.19345906005E+03  0.60866872201E+03  0.17302741427E+03 0.  0.
         24    2    5    5    0    0 -0.45128398271E+03 -0.27029810411E+03  0.18881043668E+03  0.56468255017E+03  0.80614535500E+02 0.  0.
         14    1    6    6    0    0 -0.38828925772E+03 -0.26129578513E+03  0.17422239719E+03  0.49939711520E+03  0.00000000000E+00 0. -1.
        -13    1    6    6    0    0 -0.62994724991E+02 -0.90023189847E+01  0.14588039490E+02  0.65285434975E+02  0.00000000000E+00 0.  1.
          5    1    5    5  501    0 -0.38850568115E+02  0.19537578434E+02  0.46486233737E+01  0.43986171840E+02  0.47000000000E+01 0. -1.
         11    1    4    4    0    0  0.89525901739E+02  0.31913778432E+02  0.14173888572E+03  0.17065546595E+03  0.00000000000E+00 0. -1.
        -12    1    4    4    0    0  0.28160251812E+01  0.32590690197E+02  0.91990358880E+01  0.33980955646E+02  0.00000000000E+00 0.  1.
         -5    1    3    3    0  503  0.39779262390E+03  0.18625605705E+03  0.45524819507E+03  0.63261623401E+03  0.47000000000E+01 0.  1.
</event>
<event>
12    1  0.9749377E-001  0.5740166E+03  0.7818608E-02  0.9960830E-01
         21   -1    0    0  503  502  0.00000000000E+00  0.00000000000E+00  0.15658255197E+04  0.15658255197E+04  0.00000000000E+00 0. -1.
         21   -1    0    0  501  503 -0.00000000000E+00 -0.00000000000E+00 -0.24844603648E+03  0.24844603648E+03  0.00000000000E+00 0.  1.
          6    2    1    2  501    0  0.39129771215E+03  0.40227486664E+03  0.96478294155E+03  0.11295480013E+04  0.17359030842E+03 0.  0.
         24    2    3    3    0    0  0.32986604524E+03  0.24978593862E+03  0.65591611313E+03  0.77962296571E+03  0.79883654536E+02 0.  0.
         -6    2    1    2    0  502 -0.39129771215E+03 -0.40227486664E+03  0.35259654167E+03  0.68472355484E+03  0.17199726013E+03 0.  0.
        -24    2    5    5    0    0 -0.22234822494E+03 -0.23921623519E+03  0.12918515455E+03  0.36058348571E+03  0.81660919047E+02 0.  0.
         12    1    4    4    0    0  0.22502227526E+03  0.21279404847E+03  0.46506390576E+03  0.55874928892E+03  0.00000000000E+00 0. -1.
        -11    1    4    4    0    0  0.10484376998E+03  0.36991890153E+02  0.19085220737E+03  0.22087367679E+03  0.00000000000E+00 0.  1.
          5    1    3    3  501    0  0.61431666905E+02  0.15248892802E+03  0.30886682842E+03  0.34992503563E+03  0.47000000000E+01 0. -1.
         13    1    6    6    0    0 -0.20411072510E+02 -0.35780468613E+02  0.46776049514E+02  0.62328585924E+02  0.00000000000E+00 0. -1.
        -14    1    6    6    0    0 -0.20193715243E+03 -0.20343576658E+03  0.82409105032E+02  0.29825489979E+03  0.00000000000E+00 0.  1.
         -5    1    5    5    0  502 -0.16894948721E+03 -0.16305863145E+03  0.22341138713E+03  0.32414006913E+03  0.47000000000E+01 0.  1.
</event>
<event>
12    1  0.9749377E-001  0.1216422E+03  0.7818608E-02  0.1240412E+00
         21   -1    0    0  503  502  0.00000000000E+00  0.00000000000E+00  0.18773117965E+04  0.18773117965E+04  0.00000000000E+00 0. -1.
         21   -1    0    0  501  503 -0.00000000000E+00 -0.00000000000E+00 -0.23060143077E+02  0.23060143077E+02  0.00000000000E+00 0.  1.
          6    2    1    2  501    0  0.37149391555E+01  0.70238257378E+02  0.13575349075E+04  0.13700835513E+04  0.17111603882E+03 0.  0.
         24    2    3    3    0    0 -0.30032713417E+02  0.28703806789E+02  0.12046774052E+04  0.12080603411E+04  0.80226333335E+02 0.  0.
         -6    2    1    2    0  502 -0.37149391555E+01 -0.70238257378E+02  0.49671674593E+03  0.53028838834E+03  0.17184596459E+03 0.  0.
        -24    2    5    5    0    0 -0.25005014450E+02  0.15038817850E+02  0.33984097414E+03  0.35040635855E+03  0.80257782301E+02 0.  0.
         14    1    4    4    0    0  0.51665969362E+01  0.18284449597E+02  0.99583399235E+03  0.99601523841E+03  0.00000000000E+00 0. -1.
        -13    1    4    4    0    0 -0.35199310353E+02  0.10419357192E+02  0.20884341290E+03  0.21204510267E+03  0.00000000000E+00 0.  1.
          5    1    3    3  501    0  0.33747652572E+02  0.41534450589E+02  0.15285750226E+03  0.16202321018E+03  0.47000000000E+01 0. -1.
         13    1    6    6    0    0 -0.27028212679E+02 -0.34372696304E+01  0.32623805576E+03  0.32737380489E+03  0.00000000000E+00 0. -1.
        -14    1    6    6    0    0  0.20231982287E+01  0.18476087481E+02  0.13602918377E+02  0.23032553659E+02  0.00000000000E+00 0.  1.
         -5    1    5    5    0  502  0.21290075294E+02 -0.85277075228E+02  0.15687577179E+03  0.17988202979E+03  0.47000000000E+01 0.  1.
</event>
<event>
12    1  0.9749377E-001  0.2115827E+03  0.7818608E-02  0.1140319E+00
         21   -1    0    0  501  502  0.00000000000E+00  0.00000000000E+00  0.21865383146E+03  0.21865383146E+03  0.00000000000E+00 0.  1.
         21   -1    0    0  502  503 -0.00000000000E+00 -0.00000000000E+00 -0.30733429460E+03  0.30733429460E+03  0.00000000000E+00 0. -1.
         -6    2    1    2    0  503 -0.17168921882E+03  0.11931982454E+01 -0.13965450046E+03  0.27864289119E+03  0.16929226128E+03 0.  0.
        -24    2    3    3    0    0 -0.40732237334E+02 -0.43240271307E+02 -0.80959314849E+02  0.12833893572E+03  0.79922684762E+02 0.  0.
          6    2    1    2  501    0  0.17168921882E+03 -0.11931982454E+01  0.50974037317E+02  0.24734523488E+03  0.17059513814E+03 0.  0.
         24    2    5    5    0    0  0.60081615639E+02 -0.27015220938E+02 -0.28046724617E+02  0.10809939200E+03  0.80989117098E+02 0.  0.
         12    1    6    6    0    0  0.63801906600E+02 -0.16027712264E+02 -0.50429143794E+02  0.82889501084E+02  0.00000000000E+00 0. -1.
        -11    1    6    6    0    0 -0.37202909605E+01 -0.10987508673E+02  0.22382419177E+02  0.25209890914E+02  0.00000000000E+00 0.  1.
          5    1    5    5  501    0  0.11160760318E+03  0.25822022692E+02  0.79020761934E+02  0.13924584288E+03  0.47000000000E+01 0. -1.
         11    1    4    4    0    0  0.14637900929E+02  0.85423636699E+01  0.63692456045E+00  0.16960123631E+02  0.00000000000E+00 0. -1.
        -12    1    4    4    0    0 -0.55370138262E+02 -0.51782634977E+02 -0.81596239410E+02  0.11137881209E+03  0.00000000000E+00 0.  1.
         -5    1    3    3    0  503 -0.13095698148E+03  0.44433469553E+02 -0.58695185607E+02  0.15030395547E+03  0.47000000000E+01 0.  1.
</event>
<event>
12    1  0.9749377E-001  0.4458156E+03  0.7818608E-02  0.1028977E+00
         21   -1    0    0  501  502  0.00000000000E+00  0.00000000000E+00  0.43880489003E+03  0.43880489003E+03  0.00000000000E+00 0.  1.
         21   -1    0    0  502  503 -0.00000000000E+00 -0.00000000000E+00 -0.51339416365E+03  0.51339416365E+03  0.00000000000E+00 0. -1.
         -6    2    1    2    0  503  0.42358500167E+03 -0.94951492747E+02  0.51723235218E+02  0.46967409102E+03  0.17169280446E+03 0.  0.
        -24    2    3    3    0    0  0.22872762257E+03 -0.11382981780E+03  0.20509467834E+01  0.26764633158E+03  0.79729540836E+02 0.  0.
          6    2    1    2  501    0 -0.42358500167E+03  0.94951492747E+02 -0.12631250884E+03  0.48252496266E+03  0.16862814146E+03 0.  0.
         24    2    5    5    0    0 -0.14400358211E+03  0.67080228208E+02 -0.90098108203E+02  0.19919450126E+03  0.79523528292E+02 0.  0.
         14    1    6    6    0    0 -0.37811727884E+02  0.12293356903E+02 -0.66372018504E+02  0.77369879345E+02  0.00000000000E+00 0. -1.
        -13    1    6    6    0    0 -0.10619185423E+03  0.54786871305E+02 -0.23726089698E+02  0.12182462191E+03  0.00000000000E+00 0.  1.
          5    1    5    5  501    0 -0.27958141955E+03  0.27871264539E+02 -0.36214400634E+02  0.28333046141E+03  0.47000000000E+01 0. -1.
         11    1    4    4    0    0  0.12862699799E+03 -0.67074321755E+02  0.40588446366E+02  0.15063628789E+03  0.00000000000E+00 0. -1.
        -12    1    4    4    0    0  0.10010062458E+03 -0.46755496042E+02 -0.38537499583E+02  0.11701004369E+03  0.00000000000E+00 0.  1.
         -5    1    3    3    0  503  0.19485737910E+03  0.18878325049E+02  0.49672288435E+02  0.20202775944E+03  0.47000000000E+01 0.  1.
</event>
<event>
12    1  0.9749377E-001  0.3019612E+03  0.7818608E-02  0.1084264E+00
         21   -1    0    0  501  502  0.00000000000E+00  0.00000000000E+00  0.33916592807E+03  0.33916592807E+03  0.00000000000E+00 0.  1.
         21   -1    0    0  502  503 -0.00000000000E+00 -0.00000000000E+00 -0.30076662853E+03  0.30076662853E+03  0.00000000000E+00 0. -1.
         -6    2    1    2    0  503 -0.24990679681E+03 -0.97011328963E+02  0.14049201091E+02  0.32008054538E+03  0.17432604637E+03 0.  0.
        -24    2    3    3    0    0 -0.71985137994E+02 -0.30847785548E+02  0.54329917306E+02  0.12597140791E+03  0.82362671945E+02 0.  0.
          6    2    1    2  501    0  0.24990679681E+03  0.97011328963E+02  0.24350098454E+02  0.31985201122E+03  0.17276509123E+03 0.  0.
         24    2    5    5    0    0  0.25660070748E+03  0.53543251094E+02  0.12927274611E+02  0.27416992350E+03  0.79317272439E+02 0.  0.
         14    1    6    6    0    0  0.17232536433E+03  0.40395408330E+02  0.45690802948E+02  0.18279898709E+03  0.00000000000E+00 0. -1.
        -13    1    6    6    0    0  0.84275343151E+02  0.13147842764E+02 -0.32763528338E+02  0.91370936416E+02  0.00000000000E+00 0.  1.
          5    1    5    5  501    0 -0.66939106713E+01  0.43468077869E+02  0.11422823843E+02  0.45682087718E+02  0.47000000000E+01 0. -1.
         13    1    4    4    0    0 -0.53712917244E+02 -0.55233661301E+02  0.19071215148E+02  0.79369679770E+02  0.00000000000E+00 0. -1.
        -14    1    4    4    0    0 -0.18272220750E+02  0.24385875753E+02  0.35258702157E+02  0.46601728135E+02  0.00000000000E+00 0.  1.
         -5    1    3    3    0  503 -0.17792165882E+03 -0.66163543414E+02 -0.40280716215E+02  0.19410913748E+03  0.47000000000E+01 0.  1.
</event>
<event>
12    1  0.9749377E-001  0.7002301E+03  0.7818608E-02  0.9716839E-01
         21   -1    0    0  503  502  0.00000000000E+00  0.00000000000E+00  0.38276458649E+03  0.38276458649E+03  0.00000000000E+00 0.  1.
         21   -1    0    0  501  503 -0.00000000000E+00 -0.00000000000E+00 -0.13255513268E+04  0.13255513268E+04  0.00000000000E+00 0. -1.
          6    2    1    2  501    0  0.27773487917E+03  0.63280517998E+03 -0.44733941459E+03  0.84076837141E+03  0.17087961730E+03 0.  0.
         24    2    3    3    0    0  0.13078313871E+03  0.19008134352E+03 -0.13407261697E+03  0.27884543552E+03  0.80896005858E+02 0.  0.
         -6    2    1    2    0  502 -0.27773487917E+03 -0.63280517998E+03 -0.49544732577E+03  0.86754754192E+03  0.17202216710E+03 0.  0.
        -24    2    5    5    0    0 -0.47586766322E+02 -0.20143326949E+03 -0.13676787137E+03  0.26114592582E+03  0.81559067841E+02 0.  0.
         12    1    4    4    0    0  0.18265369190E+02  0.53367916248E+02 -0.71458321025E+02  0.91038727144E+02  0.00000000000E+00 0. -1.
        -11    1    4    4    0    0  0.11251776952E+03  0.13671342727E+03 -0.62614295949E+02  0.18780670838E+03  0.00000000000E+00 0.  1.
          5    1    3    3  501    0  0.14695174046E+03  0.44272383646E+03 -0.31326679761E+03  0.56192293589E+03  0.47000000000E+01 0. -1.
         13    1    6    6    0    0 -0.58622288166E+00 -0.97211497344E+02 -0.10367601258E+03  0.14212365903E+03  0.00000000000E+00 0. -1.
        -14    1    6    6    0    0 -0.47000543441E+02 -0.10422177214E+03 -0.33091858797E+02  0.11902226679E+03  0.00000000000E+00 0.  1.
         -5    1    5    5    0  502 -0.23014811285E+03 -0.43137191049E+03 -0.35867945440E+03  0.60640161610E+03  0.47000000000E+01 0.  1.
</event>
<event>
12    1  0.9749377E-001  0.2346083E+03  0.7818608E-02  0.1123438E+00
         21   -1    0    0  503  502  0.00000000000E+00  0.00000000000E+00  0.11203203951E+03  0.11203203951E+03  0.00000000000E+00 0.  1.
         21   -1    0    0  501  503 -0.00000000000E+00 -0.00000000000E+00 -0.55263398376E+03  0.55263398376E+03  0.00000000000E+00 0. -1.
          6    2    1    2  501    0  0.15609059520E+02 -0.17460874298E+03 -0.16366410368E+03  0.29499860963E+03  0.17177422678E+03 0.  0.
         24    2    3    3    0    0 -0.54663584991E+02 -0.12154123829E+03 -0.11601670092E+03  0.19476503436E+03  0.81933897679E+02 0.  0.
         -6    2    1    2    0  502 -0.15609059520E+02  0.17460874298E+03 -0.27693784058E+03  0.36966741364E+03  0.17096073614E+03 0.  0.
        -24    2    5    5    0    0 -0.40375680147E+02  0.39088071672E+02 -0.16586454428E+03  0.19264028295E+03  0.80256829450E+02 0.  0.
         12    1    4    4    0    0 -0.25092161454E+02 -0.56543938678E+01  0.31710947107E+01  0.25916106539E+02  0.00000000000E+00 0. -1.
        -11    1    4    4    0    0 -0.29571423537E+02 -0.11588684442E+03 -0.11918779563E+03  0.16884892783E+03  0.00000000000E+00 0.  1.
          5    1    3    3  501    0  0.70272644511E+02 -0.53067504690E+02 -0.47647402756E+02  0.10023357526E+03  0.47000000000E+01 0. -1.
         11    1    6    6    0    0  0.15999977187E+02  0.38274001127E+02 -0.74854626770E+02  0.85581035172E+02  0.00000000000E+00 0. -1.
        -12    1    6    6    0    0 -0.56375657333E+02  0.81407054472E+00 -0.91009917505E+02  0.10705924778E+03  0.00000000000E+00 0.  1.
         -5    1    5    5    0  502  0.24766620626E+02  0.13552067131E+03 -0.11107329630E+03  0.17702713069E+03  0.47000000000E+01 0.  1.
</event>
<event>
12    1  0.9749377E-001  0.6192505E+03  0.7818608E-02  0.9866253E-01
         21   -1    0    0  503  502  0.00000000000E+00  0.00000000000E+00  0.24039291128E+04  0.24039291128E+04  0.00000000000E+00 0.  1.
         21   -1    0    0  501  503 -0.00000000000E+00 -0.00000000000E+00 -0.17063028260E+03  0.17063028260E+03  0.00000000000E+00 0. -1.
          6    2    1    2  501    0 -0.57898036580E+03 -0.15255750306E+03  0.14132324280E+04  0.15444851016E+04  0.17238410039E+03 0.  0.
         24    2    3    3    0    0 -0.24950495320E+03  0.95941355620E+00  0.54081388532E+03  0.59936199076E+03  0.67093183491E+02 0.  0.
         -6    2    1    2    0  502  0.57898036580E+03  0.15255750306E+03  0.82006640222E+03  0.10300742937E+04  0.17335538886E+03 0.  0.
        -24    2    5    5    0    0  0.47449245766E+03  0.62599091404E+02  0.61859776425E+03  0.78589824893E+03  0.76883841654E+02 0.  0.
         14    1    4    4    0    0 -0.89060063507E+02  0.32209945058E+02  0.18701635472E+03  0.20962893981E+03  0.00000000000E+00 0. -1.
        -13    1    4    4    0    0 -0.16044488969E+03 -0.31250531502E+02  0.35379753060E+03  0.38973305095E+03  0.00000000000E+00 0.  1.
          5    1    3    3  501    0 -0.32947541260E+03 -0.15351691661E+03  0.87241854264E+03  0.94512311089E+03  0.47000000000E+01 0. -1.
         11    1    6    6    0    0  0.39593502666E+03  0.58107193508E+02  0.55760573737E+03  0.68634186060E+03  0.00000000000E+00 0. -1.
        -12    1    6    6    0    0  0.78557431005E+02  0.44918978968E+01  0.60992026886E+02  0.99556388326E+02  0.00000000000E+00 0.  1.
         -5    1    5    5    0  502  0.10448790814E+03  0.89958411651E+02  0.20146863797E+03  0.24417604481E+03  0.47000000000E+01 0.  1.
</event>
<event>
12    1  0.9749377E-001  0.5743197E+03  0.7818608E-02  0.9960165E-01
         21   -1    0    0  503  502  0.00000000000E+00  0.00000000000E+00  0.74527478746E+03  0.74527478746E+03  0.00000000000E+00 0.  1.
         21   -1    0    0  501  503 -0.00000000000E+00 -0.00000000000E+00 -0.47825999546E+03  0.47825999546E+03  0.00000000000E+00 0. -1.
          6    2    1    2  501    0  0.53075487687E+03 -0.16467383366E+03  0.26867715147E+03  0.64295551585E+03  0.17996158711E+03 0.  0.
         24    2    3    3    0    0  0.28161180308E+03 -0.15561624869E+03  0.11525196708E+03  0.35018309867E+03  0.76312267599E+02 0.  0.
         -6    2    1    2    0  502 -0.53075487687E+03  0.16467383366E+03 -0.16623594655E+01  0.58057926706E+03  0.16808126337E+03 0.  0.
        -24    2    5    5    0    0 -0.28895178301E+03  0.59319313013E+02 -0.56923410488E+02  0.31105341491E+03  0.80635218515E+02 0.  0.
         12    1    4    4    0    0  0.27660027562E+03 -0.16287580004E+03  0.10772420869E+03  0.33858639052E+03  0.00000000000E+00 0. -1.
        -11    1    4    4    0    0  0.50115274656E+01  0.72595513529E+01  0.75277583927E+01  0.11596708145E+02  0.00000000000E+00 0.  1.
          5    1    3    3  501    0  0.24914307378E+03 -0.90575849675E+01  0.15342518439E+03  0.29277241719E+03  0.47000000000E+01 0. -1.
         13    1    6    6    0    0 -0.16577025817E+02  0.26597393155E+02 -0.31352887453E+01  0.31496811634E+02  0.00000000000E+00 0. -1.
        -14    1    6    6    0    0 -0.27237475719E+03  0.32721919858E+02 -0.53788121743E+02  0.27955660327E+03  0.00000000000E+00 0.  1.
         -5    1    5    5    0  502 -0.24180309386E+03  0.10535452064E+03  0.55261051023E+02  0.26952585216E+03  0.47000000000E+01 0.  1.
</event>
<event>
12    1  0.9749377E-001  0.6330352E+03  0.7818608E-02  0.9839144E-01
         21   -1    0    0  501  502  0.00000000000E+00  0.00000000000E+00  0.96253391638E+03  0.96253391638E+03  0.00000000000E+00 0.  1.
         21   -1    0    0  502  503 -0.00000000000E+00 -0.00000000000E+00 -0.43913388568E+03  0.43913388568E+03  0.00000000000E+00 0. -1.
         -6    2    1    2    0  503  0.26537613923E+03  0.56247529449E+03  0.34923929956E+03  0.73330716229E+03  0.17020092167E+03 0.  0.
        -24    2    3    3    0    0  0.86616561517E+02  0.26526677900E+03  0.12248935062E+03  0.31890938522E+03  0.93971603133E+02 0.  0.
          6    2    1    2  501    0 -0.26537613923E+03 -0.56247529449E+03  0.17416073114E+03  0.66836063976E+03  0.17196229916E+03 0.  0.
         24    2    5    5    0    0 -0.22133377872E+03 -0.48060535995E+03  0.89546596251E+02  0.54256692957E+03  0.79938267115E+02 0.  0.
         14    1    6    6    0    0 -0.19540406467E+03 -0.34290821706E+03  0.57634347525E+02  0.39886151962E+03  0.00000000000E+00 0. -1.
        -13    1    6    6    0    0 -0.25929714042E+02 -0.13769714289E+03  0.31912248726E+02  0.14370540995E+03  0.00000000000E+00 0.  1.
          5    1    5    5  501    0 -0.44042360514E+02 -0.81869934538E+02  0.84614134893E+02  0.12579371019E+03  0.47000000000E+01 0. -1.
         11    1    4    4    0    0  0.91497934973E+01  0.16192568443E+03  0.91014272531E+02  0.18597646034E+03  0.00000000000E+00 0. -1.
        -12    1    4    4    0    0  0.77466768019E+02  0.10334109458E+03  0.31475078092E+02  0.13293292488E+03  0.00000000000E+00 0.  1.
         -5    1    3    3    0  503  0.17875957771E+03  0.29720851548E+03  0.22674994894E+03  0.41439777707E+03  0.47000000000E+01 0.  1.
</event>
<event>
12    1  0.9749377E-001  0.3802505E+03  0.7818608E-02  0.1050841E+00
         21   -1    0    0  503  502  0.00000000000E+00  0.00000000000E+00  0.66486560156E+03  0.66486560156E+03  0.00000000000E+00 0. -1.
         21   -1    0    0  501  503 -0.00000000000E+00 -0.00000000000E+00 -0.23027908081E+03  0.23027908081E+03  0.00000000000E+00 0.  1.
          6    2    1    2  501    0  0.84351727147E+02  0.34091024794E+03  0.18455160700E+03  0.43228390886E+03  0.17168305448E+03 0.  0.
         24    2    3    3    0    0  0.75308983372E+02  0.34673961185E+03  0.19888314773E+03  0.41375728591E+03  0.75767960161E+02 0.  0.
         -6    2    1    2    0  502 -0.84351727147E+02 -0.34091024794E+03  0.25003491375E+03  0.46286077350E+03  0.16848627994E+03 0.  0.
        -24    2    5    5    0    0 -0.11674858327E+03 -0.21710454428E+03  0.18230902911E+03  0.31799430397E+03  0.84375235811E+02 0.  0.
         12    1    4    4    0    0  0.13949898302E+02  0.21895664517E+03  0.10125144540E+03  0.24163705702E+03  0.00000000000E+00 0. -1.
        -11    1    4    4    0    0  0.61359085070E+02  0.12778296668E+03  0.97631702325E+02  0.17212022889E+03  0.00000000000E+00 0.  1.
          5    1    3    3  501    0  0.90427437754E+01 -0.58293639141E+01 -0.14331540729E+02  0.18526622960E+02  0.47000000000E+01 0. -1.
         13    1    6    6    0    0 -0.11895921261E+02 -0.10642594365E+03  0.89026975732E+02  0.13926161292E+03  0.00000000000E+00 0. -1.
        -14    1    6    6    0    0 -0.10485266200E+03 -0.11067860063E+03  0.93282053379E+02  0.17873269105E+03  0.00000000000E+00 0.  1.
         -5    1    5    5    0  502  0.32396856118E+02 -0.12380570365E+03  0.67725884639E+02  0.14486646953E+03  0.47000000000E+01 0.  1.
</event>
<event>
12    1  0.9749377E-001  0.4285486E+03  0.7818608E-02  0.1034319E+00
         21   -1    0    0  503  502  0.00000000000E+00  0.00000000000E+00  0.11889368509E+04  0.11889368509E+04  0.00000000000E+00 0.  1.
         21   -1    0    0  501  503 -0.00000000000E+00 -0.00000000000E+00 -0.18290365918E+03  0.18290365918E+03  0.00000000000E+00 0. -1.
          6    2    1    2  501    0 -0.20786299954E+03  0.37049679261E+03  0.62856172779E+03  0.77771518092E+03  0.17110276762E+03 0.  0.
         24    2    3    3    0    0 -0.76282804846E+02  0.17362762826E+03  0.19238548046E+03  0.28138603183E+03  0.78742023125E+02 0.  0.
         -6    2    1    2    0  502  0.20786299954E+03 -0.37049679261E+03  0.37747146395E+03  0.59412532918E+03  0.17327810238E+03 0.  0.
        -24    2    5    5    0    0  0.87142853564E+02 -0.18799465115E+03  0.10851600836E+03  0.24736963366E+03  0.80499352791E+02 0.  0.
         12    1    4    4    0    0 -0.36458772355E+02  0.95844392797E+02  0.49426858078E+02  0.11383498589E+03  0.00000000000E+00 0. -1.
        -11    1    4    4    0    0 -0.39824032491E+02  0.77783235466E+02  0.14295862238E+03  0.16755104594E+03  0.00000000000E+00 0.  1.
          5    1    3    3  501    0 -0.13158019469E+03  0.19686916435E+03  0.43617624733E+03  0.49632914909E+03  0.47000000000E+01 0. -1.
         11    1    6    6    0    0  0.79154608758E+02 -0.12494442864E+03  0.10913489544E+03  0.18381237102E+03  0.00000000000E+00 0. -1.
        -12    1    6    6    0    0  0.79882448053E+01 -0.63050222508E+02 -0.61888708488E+00  0.63557262643E+02  0.00000000000E+00 0.  1.
         -5    1    5    5    0  502  0.12072014597E+03 -0.18250214146E+03  0.26895545560E+03  0.34675569552E+03  0.47000000000E+01 0.  1.
</event>
<event>
12    1  0.9749377E-001  0.6396556E+03  0.7818608E-02  0.9826386E-01
         21   -1    0    0  503  502  0.00000000000E+00  0.00000000000E+00  0.63118887406E+03  0.63118887406E+03  0.00000000000E+00 0. -1.
         21   -1    0    0  501  503 -0.00000000000E+00 -0.00000000000E+00 -0.67098210679E+03  0.67098210679E+03  0.00000000000E+00 0.  1.
          6    2    1    2  501    0 -0.23464440828E+03  0.57817594483E+03  0.46589787789E+02  0.64911155448E+03  0.17271299984E+03 0.  0.
         24    2    3    3    0    0 -0.25291102587E+03  0.55720698383E+03  0.34932326410E+02  0.61859347706E+03  0.83630213431E+02 0.  0.
         -6    2    1    2    0  502  0.23464440828E+03 -0.57817594483E+03 -0.86383020525E+02  0.65305942637E+03  0.17227642503E+03 0.  0.
        -24    2    5    5    0    0  0.16654746557E+03 -0.29964250397E+03 -0.98775283006E+02  0.36601634693E+03  0.81778488712E+02 0.  0.
         14    1    4    4    0    0 -0.21243886689E+03  0.46937304578E+03 -0.16030608626E+01  0.51521247857E+03  0.00000000000E+00 0. -1.
        -13    1    4    4    0    0 -0.40472158976E+02  0.87833938057E+02  0.36535387273E+02  0.10338099850E+03  0.00000000000E+00 0.  1.
          5    1    3    3  501    0  0.18266617587E+02  0.20968960998E+02  0.11657461379E+02  0.30518077417E+02  0.47000000000E+01 0. -1.
         11    1    6    6    0    0  0.13063913280E+03 -0.15181433564E+03 -0.54006203661E+02  0.20743877544E+03  0.00000000000E+00 0. -1.
        -12    1    6    6    0    0  0.35908332777E+02 -0.14782816833E+03 -0.44769079345E+02  0.15857757149E+03  0.00000000000E+00 0.  1.
         -5    1    5    5    0  502  0.68096942704E+02 -0.27853344086E+03  0.12392262481E+02  0.28704307944E+03  0.47000000000E+01 0.  1.
</event>
<event>
12    1  0.9749377E-001  0.6265112E+03  0.7818608E-02  0.9851881E-01
         21   -1    0    0  501  502  0.00000000000E+00  0.00000000000E+00  0.14249695826E+04  0.14249695826E+04  0.00000000000E+00 0.  1.
         21   -1    0    0  502  503 -0.00000000000E+00 -0.00000000000E+00 -0.29963072339E+03  0.29963072339E+03  0.00000000000E+00 0. -1.
         -6    2    1    2    0  503 -0.58331123787E+03  0.17790512403E+03  0.77204187875E+03  0.99899159469E+03  0.17330121272E+03 0.  0.
        -24    2    3    3    0    0 -0.32335846465E+03  0.41420517795E+02  0.47160992940E+03  0.57889048991E+03  0.80136869444E+02 0.  0.
          6    2    1    2  501    0  0.58331123787E+03 -0.17790512403E+03  0.35329698051E+03  0.72560871134E+03  0.17258914265E+03 0.  0.
         24    2    5    5    0    0  0.50053518454E+03 -0.20565956004E+03  0.30851151485E+03  0.62737423849E+03  0.74751285796E+02 0.  0.
         14    1    6    6    0    0  0.45798858044E+03 -0.16569594428E+03  0.26417442097E+03  0.55407292883E+03  0.00000000000E+00 0. -1.
        -13    1    6    6    0    0  0.42546604107E+02 -0.39963615757E+02  0.44337093876E+02  0.73301309666E+02  0.00000000000E+00 0.  1.
          5    1    5    5  501    0  0.82776053325E+02  0.27754436004E+02  0.44785465657E+02  0.98234472850E+02  0.47000000000E+01 0. -1.
         13    1    4    4    0    0 -0.22790043651E+03  0.20566202934E+02  0.26353648247E+03  0.34901727072E+03  0.00000000000E+00 0. -1.
        -14    1    4    4    0    0 -0.95458028131E+02  0.20854314860E+02  0.20807344693E+03  0.22987321919E+03  0.00000000000E+00 0.  1.
         -5    1    3    3    0  503 -0.25995277322E+03  0.13648460624E+03  0.30043194935E+03  0.42010110478E+03  0.47000000000E+01 0.  1.
</event>
<event>
12    1  0.9749377E-001  0.2015689E+03  0.7818608E-02  0.1148422E+00
         21   -1    0    0  503  502  0.00000000000E+00  0.00000000000E+00  0.18862732675E+04  0.18862732675E+04  0.00000000000E+00 0.  1.
         21   -1    0    0  501  503 -0.00000000000E+00 -0.00000000000E+00 -0.44527928191E+02  0.44527928191E+02  0.00000000000E+00 0. -1.
          6    2    1    2  501    0  0.45088706627E+02 -0.15584896022E+03  0.36349370227E+03  0.43367204841E+03  0.17211009301E+03 0.  0.
         24    2    3    3    0    0  0.86192353359E+02 -0.15425677678E+03  0.28626328304E+03  0.34604401364E+03  0.81089562846E+02 0.  0.
         -6    2    1    2    0  502 -0.45088706627E+02  0.15584896022E+03  0.14782516371E+04  0.14971291473E+04  0.17275963462E+03 0.  0.
        -24    2    5    5    0    0 -0.10103902526E+02  0.14667113314E+03  0.77831312051E+03  0.79624100646E+03  0.81325990051E+02 0.  0.
         14    1    4    4    0    0  0.54424748963E+02 -0.11724415578E+03  0.13410488252E+03  0.18625886524E+03  0.00000000000E+00 0. -1.
        -13    1    4    4    0    0  0.31767604396E+02 -0.37012621001E+02  0.15215840052E+03  0.15978514841E+03  0.00000000000E+00 0.  1.
          5    1    3    3  501    0 -0.41103646732E+02 -0.15921834456E+01  0.77230419226E+02  0.87628034764E+02  0.47000000000E+01 0. -1.
         13    1    6    6    0    0  0.13340585088E+01  0.16433265826E+02  0.16625414686E+02  0.23414447491E+02  0.00000000000E+00 0. -1.
        -14    1    6    6    0    0 -0.11437961034E+02  0.13023786731E+03  0.76168770583E+03  0.77282655896E+03  0.00000000000E+00 0.  1.
         -5    1    5    5    0  502 -0.34984804101E+02  0.91778270865E+01  0.69993851654E+03  0.70088814084E+03  0.47000000000E+01 0.  1.
</event>
<event>
12    1  0.9749377E-001  0.2802448E+03  0.7818608E-02  0.1095555E+00
         21   -1    0    0  503  502  0.00000000000E+00  0.00000000000E+00  0.39311258009E+03  0.39311258009E+03  0.00000000000E+00 0.  1.
         21   -1    0    0  501  503 -0.00000000000E+00 -0.00000000000E+00 -0.26546816889E+03  0.26546816889E+03  0.00000000000E+00 0. -1.
          6    2    1    2  501    0  0.32146146230E+02  0.26768675592E+03  0.25727376344E+02  0.32283379228E+03  0.17569913355E+03 0.  0.
         24    2    3    3    0    0  0.18377022236E+02  0.24902937766E+03  0.71865095041E+02  0.27098337641E+03  0.76902877198E+02 0.  0.
         -6    2    1    2    0  502 -0.32146146230E+02 -0.26768675592E+03  0.10191703485E+03  0.33574695670E+03  0.17218990367E+03 0.  0.
        -24    2    5    5    0    0 -0.58554324393E+02 -0.21056762961E+03  0.22373015088E+02  0.23421209793E+03  0.81162919299E+02 0.  0.
         14    1    4    4    0    0  0.35601757572E+02  0.13807914257E+03  0.69616796970E+02  0.15868154642E+03  0.00000000000E+00 0. -1.
        -13    1    4    4    0    0 -0.17224735336E+02  0.11095023509E+03  0.22482980703E+01  0.11230182999E+03  0.00000000000E+00 0.  1.
          5    1    3    3  501    0  0.13769123994E+02  0.18657378261E+02 -0.46137718697E+02  0.51850415868E+02  0.47000000000E+01 0. -1.
         11    1    6    6    0    0 -0.47141318615E+02 -0.15052522101E+03  0.52276036841E+02  0.16617138776E+03  0.00000000000E+00 0. -1.
        -12    1    6    6    0    0 -0.11413005779E+02 -0.60042408596E+02 -0.29903021753E+02  0.68040710173E+02  0.00000000000E+00 0.  1.
         -5    1    5    5    0  502  0.26408178164E+02 -0.57119126313E+02  0.79544019765E+02  0.10153485877E+03  0.47000000000E+01 0.  1.
</event>
<event>
12    1  0.9749377E-001  0.3341485E+03  0.7818608E-02  0.1069316E+00
         21   -1    0    0  501  502  0.00000000000E+00  0.00000000000E+00  0.13623813752E+04  0.13623813752E+04  0.00000000000E+00 0.  1.
         21   -1    0    0  502  503 -0.00000000000E+00 -0.00000000000E+00 -0.85109221962E+02  0.85109221962E+02  0.00000000000E+00 0. -1.
         -6    2    1    2    0  503  0.27188272081E+03  0.11145929132E+03  0.59906806725E+03  0.68863145108E+03  0.17025668481E+03 0.  0.
        -24    2    3    3    0    0  0.43474362581E+02  0.40952927733E+02  0.17021060483E+03  0.19763008806E+03  0.80739328821E+02 0.  0.
          6    2    1    2  501    0 -0.27188272081E+03 -0.11145929132E+03  0.67820408601E+03  0.75885914610E+03  0.17193904108E+03 0.  0.
         24    2    5    5    0    0 -0.26341740445E+03 -0.61000288079E+02  0.62045203801E+03  0.68155997640E+03  0.80333715465E+02 0.  0.
         14    1    6    6    0    0 -0.61948797455E+02 -0.46274625300E+02  0.21693019955E+03  0.23029916615E+03  0.00000000000E+00 0. -1.
        -13    1    6    6    0    0 -0.20146860700E+03 -0.14725662779E+02  0.40352183846E+03  0.45126081025E+03  0.00000000000E+00 0.  1.
          5    1    5    5  501    0 -0.84653163567E+01 -0.50459003241E+02  0.57752047996E+02  0.77299169703E+02  0.47000000000E+01 0. -1.
         13    1    4    4    0    0  0.60277751035E+02  0.70872793220E+01  0.85351700855E+02  0.10473084377E+03  0.00000000000E+00 0. -1.
        -14    1    4    4    0    0 -0.16803388454E+02  0.33865648411E+02  0.84858903975E+02  0.92899244291E+02  0.00000000000E+00 0.  1.
         -5    1    3    3    0  503  0.22840835823E+03  0.70506363587E+02  0.42885746242E+03  0.49100136302E+03  0.47000000000E+01 0.  1.
</event>
<event>
12    1  0.1030964E+000  0.6422238E+03  0.7818608E-02  0.9821481E-01
         21   -1    0    0  503  502  0.00000000000E+00  0.00000000000E+00  0.14198173753E+04  0.14198173753E+04  0.00000000000E+00 0.  1.
         21   -1    0    0  501  503 -0.00000000000E+00 -0.00000000000E+00 -0.31318307329E+03  0.31318307329E+03  0.00000000000E+00 0. -1.
          6    2    1    2  501    0 -0.55836921980E+03  0.30033905084E+03  0.70107820465E+03  0.96081424304E+03  0.17226035384E+03 0.  0.
         24    2    3    3    0    0 -0.46304073224E+03  0.27964275129E+03  0.51364935389E+03  0.74946732100E+03  0.72517711192E+02 0.  0.
         -6    2    1    2    0  502  0.55836921980E+03 -0.30033905084E+03  0.40555609740E+03  0.77218620559E+03  0.17267326629E+03 0.  0.
        -24    2    5    5    0    0  0.52651020974E+03 -0.26849304964E+03  0.32352753749E+03  0.67848487713E+03  0.79813171322E+02 0.  0.
         14    1    4    4    0    0 -0.28372849347E+03  0.20946859216E+03  0.31613573760E+03  0.47362511937E+03  0.00000000000E+00 0. -1.
        -13    1    4    4    0    0 -0.17931223877E+03  0.70174159125E+02  0.19751361629E+03  0.27584220163E+03  0.00000000000E+00 0.  1.
          5    1    3    3  501    0 -0.95328487556E+02  0.20696299552E+02  0.18742885077E+03  0.21134692204E+03  0.47000000000E+01 0. -1.
         13    1    6    6    0    0  0.21349821197E+03 -0.15285609971E+03  0.13582335154E+03  0.29562553434E+03  0.00000000000E+00 0. -1.
        -14    1    6    6    0    0  0.31301199776E+03 -0.11563694994E+03  0.18770418595E+03  0.38285934279E+03  0.00000000000E+00 0.  1.
         -5    1    5    5    0  502  0.31859010059E+02 -0.31846001197E+02  0.82028559910E+02  0.93701328459E+02  0.47000000000E+01 0.  1.
</event>
<event>
12    1  0.9749377E-001  0.5998566E+03  0.7818608E-02  0.9905704E-01
         21   -1    0    0  501  502  0.00000000000E+00  0.00000000000E+00  0.10613982647E+04  0.10613982647E+04  0.00000000000E+00 0.  1.
         21   -1    0    0  502  503 -0.00000000000E+00 -0.00000000000E+00 -0.36448273224E+03  0.36448273224E+03  0.00000000000E+00 0. -1.
         -6    2    1    2    0  503 -0.28250733949E+03  0.50566912629E+03  0.17951645846E+03  0.63047700619E+03  0.17252082287E+03 0.  0.
        -24    2    3    3    0    0 -0.22794227746E+03  0.27040373297E+03  0.94428163034E+02  0.37437300523E+03  0.78502282837E+02 0.  0.
          6    2    1    2  501    0  0.28250733949E+03 -0.50566912629E+03  0.51739907397E+03  0.79540399073E+03  0.17162180683E+03 0.  0.
         24    2    5    5    0    0  0.13173409582E+03 -0.15701160812E+03  0.14531513963E+03  0.26364917865E+03  0.79924229802E+02 0.  0.
         12    1    6    6    0    0  0.13455125991E+03 -0.16292817616E+03  0.14631966572E+03  0.25701960374E+03  0.00000000000E+00 0. -1.
        -11    1    6    6    0    0 -0.28171640857E+01  0.59165680396E+01 -0.10045260855E+01  0.66295749117E+01  0.00000000000E+00 0.  1.
          5    1    5    5  501    0  0.15077324367E+03 -0.34865751817E+03  0.37208393434E+03  0.53175481208E+03  0.47000000000E+01 0. -1.
         13    1    4    4    0    0  0.51672422652E+01  0.60638016809E+01 -0.33135687338E+01  0.86284309817E+01  0.00000000000E+00 0. -1.
        -14    1    4    4    0    0 -0.23310951973E+03  0.26433993129E+03  0.97741731767E+02  0.36574457425E+03  0.00000000000E+00 0.  1.
         -5    1    3    3    0  503 -0.54565062029E+02  0.23526539332E+03  0.85088295429E+02  0.25610400096E+03  0.47000000000E+01 0.  1.
</event>
<event>
12    1  0.9749377E-001  0.1881349E+03  0.7818608E-02  0.1160154E+00
         21   -1    0    0  503  502  0.00000000000E+00  0.00000000000E+00  0.15255898420E+03  0.15255898420E+03  0.00000000000E+00 0. -1.
         21   -1    0    0  501  503 -0.00000000000E+00 -0.00000000000E+00 -0.28215762233E+03  0.28215762233E+03  0.00000000000E+00 0.  1.
          6    2    1    2  501    0  0.67990034274E+02  0.75139964444E+02 -0.60102471013E+01  0.20018766831E+03  0.17254077910E+03 0.  0.
         24    2    3    3    0    0  0.34039938136E+01 -0.21152790771E+02 -0.82175306689E+01  0.84124696475E+02  0.80934597148E+02 0.  0.
         -6    2    1    2    0  502 -0.67990034274E+02 -0.75139964444E+02 -0.12358839102E+03  0.23452893822E+03  0.17164228340E+03 0.  0.
        -24    2    5    5    0    0 -0.55482674116E+02 -0.11697149874E+03 -0.10230922034E+03  0.18573135197E+03  0.85254324772E+02 0.  0.
         12    1    4    4    0    0  0.36147342071E+02 -0.29569919220E+02 -0.16120670259E+02  0.49405328367E+02  0.00000000000E+00 0. -1.
        -11    1    4    4    0    0 -0.32743348257E+02  0.84171284495E+01  0.79031395901E+01  0.34719368108E+02  0.00000000000E+00 0.  1.
          5    1    3    3  501    0  0.64586040461E+02  0.96292755215E+02  0.22072835676E+01  0.11606297183E+03  0.47000000000E+01 0. -1.
         13    1    6    6    0    0 -0.65865091021E+01  0.22387498859E+01  0.11747858573E+02  0.13653068675E+02  0.00000000000E+00 0. -1.
        -14    1    6    6    0    0 -0.48896165014E+02 -0.11921024862E+03 -0.11405707892E+03  0.17207828329E+03  0.00000000000E+00 0.  1.
         -5    1    5    5    0  502 -0.12507360159E+02  0.41831534295E+02 -0.21279170680E+02  0.48797586256E+02  0.47000000000E+01 0.  1.
</event>
<event>
12    1  0.9749377E-001  0.3497431E+03  0.7818608E-02  0.1062721E+00
         21   -1    0    0  503  502  0.00000000000E+00  0.00000000000E+00  0.11606382657E+03  0.11606382657E+03  0.00000000000E+00 0.  1.
         21   -1    0    0  501  503 -0.00000000000E+00 -0.00000000000E+00 -0.11629553656E+04  0.11629553656E+04  0.00000000000E+00 0. -1.
          6    2    1    2  501    0  0.66437878147E+00 -0.31113013909E+03 -0.36645611981E+03  0.51044841815E+03  0.17165399789E+03 0.  0.
         24    2    3    3    0    0 -0.22889572384E+02 -0.98103367658E+02 -0.20398559688E+03  0.24146151366E+03  0.80903248236E+02 0.  0.
         -6    2    1    2    0  502 -0.66437878147E+00  0.31113013909E+03 -0.68043541924E+03  0.76857077404E+03  0.17580179207E+03 0.  0.
        -24    2    5    5    0    0 -0.14636216685E+02  0.53018826977E+02 -0.16261196931E+03  0.18979631278E+03  0.80961552183E+02 0.  0.
         14    1    4    4    0    0  0.21529902797E+02 -0.10658270703E+00 -0.30940551482E+02  0.37694373590E+02  0.00000000000E+00 0. -1.
        -13    1    4    4    0    0 -0.44419475181E+02 -0.97996784951E+02 -0.17304504539E+03  0.20376714007E+03  0.00000000000E+00 0.  1.
          5    1    3    3  501    0  0.23553951165E+02 -0.21302677144E+03 -0.16247052293E+03  0.26898690449E+03  0.47000000000E+01 0. -1.
         13    1    6    6    0    0 -0.75399136677E+01  0.74474342527E+02 -0.13198576210E+03  0.15173503020E+03  0.00000000000E+00 0. -1.
        -14    1    6    6    0    0 -0.70963030174E+01 -0.21455515550E+02 -0.30626207209E+02  0.38061282586E+02  0.00000000000E+00 0.  1.
         -5    1    5    5    0  502  0.13971837904E+02  0.25811131212E+03 -0.51782344994E+03  0.57877446125E+03  0.47000000000E+01 0.  1.
</event>
<event>
12    1  0.9749377E-001  0.4560625E+03  0.7818608E-02  0.1025929E+00
         21   -1    0    0  503  502  0.00000000000E+00  0.00000000000E+00  0.16917429850E+04  0.16917429850E+04  0.00000000000E+00 0. -1.
         21   -1    0    0  501  503 -0.00000000000E+00 -0.00000000000E+00 -0.87780506259E+03  0.87780506259E+03  0.00000000000E+00 0.  1.
          6    2    1    2  501    0 -0.12079610491E+03 -0.42367153499E+03 -0.77694769407E+03  0.90977464384E+03  0.17306910397E+03 0.  0.
         24    2    3    3    0    0  0.13324516659E+01 -0.98097030073E+02 -0.24120907147E+03  0.27106335983E+03  0.75290943337E+02 0.  0.
         -6    2    1    2    0  502  0.12079610491E+03  0.42367153499E+03  0.15908856164E+04  0.16597734037E+04  0.17274674690E+03 0.  0.
        -24    2    5    5    0    0  0.11994999069E+03  0.20399485361E+03  0.78917060504E+03  0.82849269916E+03  0.87223896652E+02 0.  0.
         14    1    4    4    0    0  0.19974054390E+02 -0.75166628360E+02 -0.22342037760E+03  0.23657060256E+03  0.00000000000E+00 0. -1.
        -13    1    4    4    0    0 -0.18641602724E+02 -0.22930401713E+02 -0.17788693868E+02  0.34492757274E+02  0.00000000000E+00 0.  1.
          5    1    3    3  501    0 -0.12212855657E+03 -0.32557450491E+03 -0.53573862260E+03  0.63871128401E+03  0.47000000000E+01 0. -1.
         11    1    6    6    0    0  0.10736972656E+03  0.17005772799E+03  0.74349121485E+03  0.77021235746E+03  0.00000000000E+00 0. -1.
        -12    1    6    6    0    0  0.12580264125E+02  0.33937125619E+02  0.45679390190E+02  0.58280341702E+02  0.00000000000E+00 0.  1.
         -5    1    5    5    0  502  0.84611421847E+00  0.21967668138E+03  0.80171501139E+03  0.83128070454E+03  0.47000000000E+01 0.  1.
</event>
<event>
12    1  0.9749377E-001  0.2915032E+03  0.7818608E-02  0.1089567E+00
         21   -1    0    0  503  502  0.00000000000E+00  0.00000000000E+00  0.14783216350E+03  0.14783216350E+03  0.00000000000E+00 0.  1.
         21   -1    0    0  501  503 -0.00000000000E+00 -0.00000000000E+00 -0.11510581261E+04  0.11510581261E+04  0.00000000000E+00 0. -1.
          6    2    1    2  501    0  0.20658809043E+03  0.14880143071E+03 -0.70094866868E+02  0.31504350484E+03  0.17180982129E+03 0.  0.
         24    2    3    3    0    0  0.18893497870E+03  0.89689409627E+02 -0.52684733531E+01  0.22543092377E+03  0.83968614402E+02 0.  0.
         -6    2    1    2    0  502 -0.20658809043E+03 -0.14880143071E+03 -0.93313109575E+03  0.98384678478E+03  0.18000096992E+03 0.  0.
        -24    2    5    5    0    0 -0.95989042910E+02 -0.15723111900E+03 -0.60985692428E+03  0.64204056937E+03  0.79718902856E+02 0.  0.
         14    1    4    4    0    0  0.19321023111E+03  0.95304423078E+02 -0.11874673703E+02  0.21576407101E+03  0.00000000000E+00 0. -1.
        -13    1    4    4    0    0 -0.42752524088E+01 -0.56150134505E+01  0.66062003504E+01  0.96668527597E+01  0.00000000000E+00 0.  1.
          5    1    3    3  501    0  0.17653111730E+02  0.59112021084E+02 -0.64826393515E+02  0.89612581073E+02  0.47000000000E+01 0. -1.
         13    1    6    6    0    0 -0.24516068574E+02 -0.15826353779E+02 -0.34101653317E+02  0.44882444801E+02  0.00000000000E+00 0. -1.
        -14    1    6    6    0    0 -0.71472974336E+02 -0.14140476522E+03 -0.57575527097E+03  0.59715812456E+03  0.00000000000E+00 0.  1.
         -5    1    5    5    0  502 -0.11059904752E+03  0.84296882908E+01 -0.32327417147E+03  0.34180621542E+03  0.47000000000E+01 0.  1.
</event>
<event>
12    1  0.9749377E-001  0.2297723E+03  0.7818608E-02  0.1126800E+00
         21   -1    0    0  503  502  0.00000000000E+00  0.00000000000E+00  0.12933045121E+04  0.12933045121E+04  0.00000000000E+00 0.  1.
         21   -1    0    0  501  503 -0.00000000000E+00 -0.00000000000E+00 -0.66251205246E+02  0.66251205246E+02  0.00000000000E+00 0. -1.
          6    2    1    2  501    0 -0.17718205992E+03 -0.69015659594E+02  0.93818050304E+03  0.97240516190E+03  0.17097514145E+03 0.  0.
         24    2    3    3    0    0 -0.35058204299E+02  0.10941191024E+02  0.42407565149E+03  0.43303684926E+03  0.79573659485E+02 0.  0.
         -6    2    1    2    0  502  0.17718205992E+03  0.69015659594E+02  0.28887280377E+03  0.38715055540E+03  0.17401555148E+03 0.  0.
        -24    2    5    5    0    0  0.50753623348E+02 -0.23699860980E+02  0.80599171265E+02  0.12642020939E+03  0.79675775743E+02 0.  0.
         14    1    4    4    0    0 -0.34433392358E+02  0.22303511968E+02  0.91613086081E+02  0.10037959303E+03  0.00000000000E+00 0. -1.
        -13    1    4    4    0    0 -0.62481194062E+00 -0.11362320944E+02  0.33246256541E+03  0.33265725623E+03  0.00000000000E+00 0.  1.
          5    1    3    3  501    0 -0.14212385562E+03 -0.79956850619E+02  0.51410485155E+03  0.53936831264E+03  0.47000000000E+01 0. -1.
         11    1    6    6    0    0  0.42832648482E+02  0.16704911784E+02  0.70264774624E+02  0.83969211064E+02  0.00000000000E+00 0. -1.
        -12    1    6    6    0    0  0.79209748653E+01 -0.40404772765E+02  0.10334396641E+02  0.42450998326E+02  0.00000000000E+00 0.  1.
         -5    1    5    5    0  502  0.12642843658E+03  0.92715520574E+02  0.20827363251E+03  0.26073034601E+03  0.47000000000E+01 0.  1.
</event>
<event>
12    1  0.9749377E-001  0.2339214E+03  0.7818608E-02  0.1123910E+00
         21   -1    0    0  501  502  0.00000000000E+00  0.00000000000E+00  0.38043446038E+03  0.38043446038E+03  0.00000000000E+00 0. -1.
         21   -1    0    0  502  503 -0.00000000000E+00 -0.00000000000E+00 -0.16639606050E+03  0.16639606050E+03  0.00000000000E+00 0. -1.
         -6    2    1    2    0  503 -0.16707875148E+03  0.37783491077E+02  0.18290668850E+03  0.30234591449E+03  0.16916055663E+03 0.  0.
        -24    2    3    3    0    0 -0.14459786762E+03 -0.28797934473E+02  0.10298997199E+03  0.19582245254E+03  0.77470215181E+02 0.  0.
          6    2    1    2  501    0  0.16707875148E+03 -0.37783491077E+02  0.31131711387E+02  0.24448460639E+03  0.17164101465E+03 0.  0.
         24    2    5    5    0    0  0.51134980013E+02 -0.74470953455E+02  0.19783124710E+02  0.12225609720E+03  0.79965443724E+02 0.  0.
         12    1    6    6    0    0 -0.13333073815E+02 -0.33666799241E+02  0.27643005123E+02  0.45556118807E+02  0.00000000000E+00 0. -1.
        -11    1    6    6    0    0  0.64468053828E+02 -0.40804154215E+02 -0.78598804133E+01  0.76699978394E+02  0.00000000000E+00 0.  1.
          5    1    5    5  501    0  0.11594377147E+03  0.36687462379E+02  0.11348586677E+02  0.12222850919E+03  0.47000000000E+01 0. -1.
         13    1    4    4    0    0 -0.74826916928E+02 -0.50338821918E+02  0.76123319507E+02  0.11801620339E+03  0.00000000000E+00 0. -1.
        -14    1    4    4    0    0 -0.69770950693E+02  0.21540887445E+02  0.26866652480E+02  0.77806249158E+02  0.00000000000E+00 0.  1.
         -5    1    3    3    0  503 -0.22480883861E+02  0.66581425549E+02  0.79916716510E+02  0.10652346195E+03  0.47000000000E+01 0.  1.
</event>
<event>
12    1  0.9749377E-001  0.4129455E+03  0.7818608E-02  0.1039387E+00
         21   -1    0    0  503  502  0.00000000000E+00  0.00000000000E+00  0.24407948712E+03  0.24407948712E+03  0.00000000000E+00 0. -1.
         21   -1    0    0  501  503 -0.00000000000E+00 -0.00000000000E+00 -0.12353634946E+04  0.12353634946E+04  0.00000000000E+00 0.  1.
          6    2    1    2  501    0 -0.38721363218E+03 -0.78730261750E+02 -0.37814561176E+02  0.43307397228E+03  0.17317700010E+03 0.  0.
         24    2    3    3    0    0 -0.25341943281E+03  0.13449337679E+02 -0.46677559874E+02  0.27029003854E+03  0.80471216778E+02 0.  0.
         -6    2    1    2    0  502  0.38721363218E+03  0.78730261750E+02 -0.95346944626E+03  0.10463690094E+04  0.17219543492E+03 0.  0.
        -24    2    5    5    0    0  0.18285743077E+03  0.17853036629E+02 -0.31397466231E+03  0.37224501316E+03  0.78934722072E+02 0.  0.
         12    1    4    4    0    0 -0.22205405235E+03  0.27636066149E+02 -0.62604213947E+02  0.23235972525E+03  0.00000000000E+00 0. -1.
        -11    1    4    4    0    0 -0.31365380465E+02 -0.14186728470E+02  0.15926654073E+02  0.37930313291E+02  0.00000000000E+00 0.  1.
          5    1    3    3  501    0 -0.13379419937E+03 -0.92179599429E+02  0.88629986977E+01  0.16278393374E+03  0.47000000000E+01 0. -1.
         11    1    6    6    0    0  0.11125027780E+02 -0.13299222429E+02 -0.61770751973E+01  0.18406298333E+02  0.00000000000E+00 0. -1.
        -12    1    6    6    0    0  0.17173240299E+03  0.31152259059E+02 -0.30779758711E+03  0.35383871483E+03  0.00000000000E+00 0.  1.
         -5    1    5    5    0  502  0.20435620142E+03  0.60877225121E+02 -0.63949478395E+03  0.67412399623E+03  0.47000000000E+01 0.  1.
</event>
<event>
12    1  0.9749377E-001  0.1541266E+04  0.7818608E-02  0.8857466E-01
         21   -1    0    0  501  502  0.00000000000E+00  0.00000000000E+00  0.15565822457E+04  0.15565822457E+04  0.00000000000E+00 0.  1.
         21   -1    0    0  502  503 -0.00000000000E+00 -0.00000000000E+00 -0.20915154440E+04  0.20915154440E+04  0.00000000000E+00 0. -1.
         -6    2    1    2    0  503 -0.10029466553E+04 -0.11674443077E+04 -0.12033814117E+04  0.19612822497E+04  0.17225863173E+03 0.  0.
        -24    2    3    3    0    0 -0.49819227372E+03 -0.51161166394E+03 -0.61768355352E+03  0.94739985350E+03  0.78047894610E+02 0.  0.
          6    2    1    2  501    0  0.10029466553E+04  0.11674443077E+04  0.66844821340E+03  0.16868154400E+04  0.17232269018E+03 0.  0.
         24    2    5    5    0    0  0.85594923818E+03  0.99992345001E+03  0.62655172197E+03  0.14599919747E+04  0.80706267785E+02 0.  0.
         14    1    6    6    0    0  0.32804268129E+03  0.42677122829E+03  0.22533117876E+03  0.58354076307E+03  0.00000000000E+00 0. -1.
        -13    1    6    6    0    0  0.52790655689E+03  0.57315222172E+03  0.40122054321E+03  0.87645121163E+03  0.00000000000E+00 0.  1.
          5    1    5    5  501    0  0.14699741711E+03  0.16752085771E+03  0.41896491426E+02  0.22682346527E+03  0.47000000000E+01 0. -1.
         11    1    4    4    0    0 -0.36134289295E+03 -0.35533637951E+03 -0.39223797144E+03  0.64084573426E+03  0.00000000000E+00 0. -1.
        -12    1    4    4    0    0 -0.13684938078E+03 -0.15627528443E+03 -0.22544558208E+03  0.30655411924E+03  0.00000000000E+00 0.  1.
         -5    1    3    3    0  503 -0.50475438157E+03 -0.65583264377E+03 -0.58569785817E+03  0.10138823962E+04  0.47000000000E+01 0.  1.
</event>
<event>
12    1  0.9749377E-001  0.5298862E+03  0.7818608E-02  0.1006260E+00
         21   -1    0    0  501  502  0.00000000000E+00  0.00000000000E+00  0.29414589723E+03  0.29414589723E+03  0.00000000000E+00 0. -1.
         21   -1    0    0  502  503 -0.00000000000E+00 -0.00000000000E+00 -0.10303353342E+04  0.10303353342E+04  0.00000000000E+00 0.  1.
         -6    2    1    2    0  503  0.48369674816E+03 -0.18718591482E+03 -0.44758269705E+03  0.70641082727E+03  0.17229299261E+03 0.  0.
        -24    2    3    3    0    0  0.11588523778E+03 -0.84574554907E+02 -0.11870972368E+03  0.20243273155E+03  0.79402573226E+02 0.  0.
          6    2    1    2  501    0 -0.48369674816E+03  0.18718591482E+03 -0.28860673994E+03  0.61807040419E+03  0.17238347747E+03 0.  0.
         24    2    5    5    0    0 -0.10247116125E+03  0.29392868208E+02 -0.92424782896E+02  0.16118853330E+03  0.77943076570E+02 0.  0.
         12    1    6    6    0    0 -0.80983122608E+02  0.61328836357E+01 -0.99804774005E+02  0.12867350669E+03  0.00000000000E+00 0. -1.
        -11    1    6    6    0    0 -0.21488038640E+02  0.23259984572E+02  0.73799911089E+01  0.32515026613E+02  0.00000000000E+00 0.  1.
          5    1    5    5  501    0 -0.38122558691E+03  0.15779304661E+03 -0.19618195705E+03  0.45688187089E+03  0.47000000000E+01 0. -1.
         11    1    4    4    0    0  0.40807316205E+00 -0.20151029334E+02  0.56262487503E+01  0.20925706247E+02  0.00000000000E+00 0. -1.
        -12    1    4    4    0    0  0.11547716462E+03 -0.64423525572E+02 -0.12433597243E+03  0.18150702530E+03  0.00000000000E+00 0.  1.
         -5    1    3    3    0  503  0.36781151038E+03 -0.10261135991E+03 -0.32887297337E+03  0.50397809572E+03  0.47000000000E+01 0.  1.
</event>
<event>
12    1  0.9749377E-001  0.6104868E+03  0.7818608E-02  0.9883885E-01
         21   -1    0    0  503  502  0.00000000000E+00  0.00000000000E+00  0.17071115903E+04  0.17071115903E+04  0.00000000000E+00 0. -1.
         21   -1    0    0  501  503 -0.00000000000E+00 -0.00000000000E+00 -0.23378834510E+03  0.23378834510E+03  0.00000000000E+00 0.  1.
          6    2    1    2  501    0  0.59970519472E+03  0.18921896929E+02  0.58721712329E+03  0.85716014146E+03  0.17290228301E+03 0.  0.
         24    2    3    3    0    0  0.37097404261E+03 -0.56144647315E+02  0.36224438385E+03  0.52763358791E+03  0.80014047136E+02 0.  0.
         -6    2    1    2    0  502 -0.59970519472E+03 -0.18921896929E+02  0.88610612188E+03  0.10837397939E+04  0.17118271782E+03 0.  0.
        -24    2    5    5    0    0 -0.30512805540E+03 -0.14654587017E+02  0.56730197860E+03  0.64962912515E+03  0.82876885860E+02 0.  0.
         12    1    4    4    0    0  0.35774430974E+03 -0.62520015723E+02  0.36225093906E+03  0.51294783981E+03  0.00000000000E+00 0. -1.
        -11    1    4    4    0    0  0.13229732870E+02  0.63753684076E+01 -0.65552036553E-02  0.14685748095E+02  0.00000000000E+00 0.  1.
          5    1    3    3  501    0  0.22873115211E+03  0.75066544244E+02  0.22497273943E+03  0.32952655356E+03  0.47000000000E+01 0. -1.
         11    1    6    6    0    0 -0.11231929368E+03  0.12387051994E+02  0.28607131692E+03  0.30758065797E+03  0.00000000000E+00 0. -1.
        -12    1    6    6    0    0 -0.19280876172E+03 -0.27041639011E+02  0.28123066167E+03  0.34204846718E+03  0.00000000000E+00 0.  1.
         -5    1    5    5    0  502 -0.29457713932E+03 -0.42673099114E+01  0.31880414329E+03  0.43411066875E+03  0.47000000000E+01 0.  1.
</event>
<event>
12    1  0.9749377E-001  0.2119028E+03  0.7818608E-02  0.1140068E+00
         21   -1    0    0  501  502  0.00000000000E+00  0.00000000000E+00  0.55493199581E+03  0.55493199581E+03  0.00000000000E+00 0.  1.
         21   -1    0    0  502  503 -0.00000000000E+00 -0.00000000000E+00 -0.10031004912E+03  0.10031004912E+03  0.00000000000E+00 0. -1.
         -6    2    1    2    0  503 -0.64738640875E+02 -0.13277559352E+03  0.30572729050E+03  0.38122198292E+03  0.17332216895E+03 0.  0.
        -24    2    3    3    0    0  0.24783817077E+02 -0.91269676617E+02  0.20740680447E+03  0.24184472657E+03  0.80789218155E+02 0.  0.
          6    2    1    2  501    0  0.64738640875E+02  0.13277559352E+03  0.14889465619E+03  0.27402006200E+03  0.17634320480E+03 0.  0.
         24    2    5    5    0    0  0.90500118394E+02  0.32819980692E+02  0.98630416210E+02  0.15911417842E+03  0.79510629554E+02 0.  0.
         14    1    6    6    0    0  0.80901887652E+02 -0.88742787866E+01  0.72395329484E+02  0.10892636036E+03  0.00000000000E+00 0. -1.
        -13    1    6    6    0    0  0.95982307420E+01  0.41694259479E+02  0.26235086726E+02  0.50187818067E+02  0.00000000000E+00 0.  1.
          5    1    5    5  501    0 -0.25761477519E+02  0.99955612828E+02  0.50264239984E+02  0.11490588358E+03  0.47000000000E+01 0. -1.
         11    1    4    4    0    0  0.21441593169E+02 -0.34309409882E+02  0.18460268557E+02  0.44470878553E+02  0.00000000000E+00 0. -1.
        -12    1    4    4    0    0  0.33422239078E+01 -0.56960266735E+02  0.18894653591E+03  0.19737384802E+03  0.00000000000E+00 0.  1.
         -5    1    3    3    0  503 -0.89522457951E+02 -0.41505916904E+02  0.98320486029E+02  0.13937725635E+03  0.47000000000E+01 0.  1.
</event>
<event>
12    1  0.1297472E+000  0.8271339E+03  0.7818608E-02  0.9521552E-01
         21   -1    0    0  503  502  0.00000000000E+00  0.00000000000E+00  0.63534428572E+03  0.63534428572E+03  0.00000000000E+00 0. -1.
         21   -1    0    0  501  503 -0.00000000000E+00 -0.00000000000E+00 -0.11416696631E+04  0.11416696631E+04  0.00000000000E+00 0.  1.
          6    2    1    2  501    0 -0.63614153731E+03 -0.50998517739E+03 -0.43803241007E+03  0.94128696969E+03  0.17142879101E+03 0.  0.
         24    2    3    3    0    0 -0.39202165824E+03 -0.26218527200E+03 -0.19382946832E+03  0.51624994162E+03  0.80759160804E+02 0.  0.
         -6    2    1    2    0  502  0.63614153731E+03  0.50998517739E+03 -0.68292967325E+02  0.83572697914E+03  0.17033707060E+03 0.  0.
        -24    2    5    5    0    0  0.55376241290E+03  0.49599428054E+03 -0.42177374292E+02  0.74805612005E+03  0.71734870036E+02 0.  0.
         12    1    4    4    0    0 -0.13402061370E+03 -0.49202346063E+02 -0.41704034119E+02  0.14873339308E+03  0.00000000000E+00 0. -1.
        -11    1    4    4    0    0 -0.25800104454E+03 -0.21298292593E+03 -0.15212543420E+03  0.36751654855E+03  0.00000000000E+00 0.  1.
          5    1    3    3  501    0 -0.24411987907E+03 -0.24779990540E+03 -0.24420294175E+03  0.42503702807E+03  0.47000000000E+01 0. -1.
         11    1    6    6    0    0  0.18236782517E+03  0.19818902630E+03 -0.37963644598E+02  0.27198925000E+03  0.00000000000E+00 0. -1.
        -12    1    6    6    0    0  0.37139458773E+03  0.29780525424E+03 -0.42137296945E+01  0.47606687006E+03  0.00000000000E+00 0.  1.
         -5    1    5    5    0  502  0.82379124405E+02  0.13990896856E+02 -0.26115593033E+02  0.87670859081E+02  0.47000000000E+01 0.  1.
</event>
<event>
12    1  0.9749377E-001  0.1336048E+04  0.7818608E-02  0.9001457E-01
         21   -1    0    0  503  502  0.00000000000E+00  0.00000000000E+00  0.20347996798E+04  0.20347996798E+04  0.00000000000E+00 0.  1.
         21   -1    0    0  501  503 -0.00000000000E+00 -0.00000000000E+00 -0.10926705222E+04  0.10926705222E+04  0.00000000000E+00 0. -1.
          6    2    1    2  501    0  0.11605035083E+04 -0.64255775309E+03 -0.21813907660E+03  0.13569279125E+04  0.18444469147E+03 0.  0.
         24    2    3    3    0    0  0.57956508387E+03 -0.39841826174E+03 -0.79297709778E+02  0.71164304569E+03  0.74262372587E+02 0.  0.
         -6    2    1    2    0  502 -0.11605035083E+04  0.64255775309E+03  0.11602682342E+04  0.17705422895E+04  0.17014336613E+03 0.  0.
        -24    2    5    5    0    0 -0.75005017215E+03  0.34137961588E+03  0.73536981698E+03  0.11074126141E+04  0.80489920711E+02 0.  0.
         14    1    4    4    0    0  0.31448713703E+02 -0.39967713016E+01  0.19800348305E+00  0.31702286665E+02  0.00000000000E+00 0. -1.
        -13    1    4    4    0    0  0.54811637016E+03 -0.39442149044E+03 -0.79495713261E+02  0.67994075903E+03  0.00000000000E+00 0.  1.
          5    1    3    3  501    0  0.58093842440E+03 -0.24413949135E+03 -0.13884136683E+03  0.64528486680E+03  0.47000000000E+01 0. -1.
         13    1    6    6    0    0 -0.40153094070E+03  0.15332579244E+03  0.34253750469E+03  0.54960698421E+03  0.00000000000E+00 0. -1.
        -14    1    6    6    0    0 -0.34851923144E+03  0.18805382344E+03  0.39283231229E+03  0.55780562992E+03  0.00000000000E+00 0.  1.
         -5    1    5    5    0  502 -0.41045333611E+03  0.30117813721E+03  0.42489841723E+03  0.66312967542E+03  0.47000000000E+01 0.  1.
</event>
<event>
12    1  0.9749377E-001  0.6886734E+03  0.7818608E-02  0.9736801E-01
         21   -1    0    0  501  502  0.00000000000E+00  0.00000000000E+00  0.72451397046E+03  0.72451397046E+03  0.00000000000E+00 0. -1.
         21   -1    0    0  502  503 -0.00000000000E+00 -0.00000000000E+00 -0.89617003479E+03  0.89617003479E+03  0.00000000000E+00 0.  1.
         -6    2    1    2    0  503  0.38924613923E+03  0.56004914650E+03  0.30976224808E+03  0.76843443680E+03  0.17138036620E+03 0.  0.
        -24    2    3    3    0    0  0.38831751737E+03  0.55828232054E+03  0.28267123519E+03  0.74086639385E+03  0.80686694095E+02 0.  0.
          6    2    1    2  501    0 -0.38924613923E+03 -0.56004914650E+03 -0.48141831242E+03  0.85224956845E+03  0.17145883465E+03 0.  0.
         24    2    5    5    0    0 -0.37079217942E+03 -0.54407246487E+03 -0.41775624796E+03  0.78390667240E+03  0.80546266056E+02 0.  0.
         12    1    6    6    0    0 -0.26707398314E+03 -0.32303031384E+03 -0.26167181039E+03  0.49411459448E+03  0.00000000000E+00 0. -1.
        -11    1    6    6    0    0 -0.10371819628E+03 -0.22104215103E+03 -0.15608443757E+03  0.28979207792E+03  0.00000000000E+00 0.  1.
          5    1    5    5  501    0 -0.18453959807E+02 -0.15976681635E+02 -0.63662064461E+02  0.68342896046E+02  0.47000000000E+01 0. -1.
         11    1    4    4    0    0  0.35055576235E+02  0.96492285185E+02  0.30303165357E+02  0.10704175053E+03  0.00000000000E+00 0. -1.
        -12    1    4    4    0    0  0.35326194113E+03  0.46179003536E+03  0.25236806983E+03  0.63382464332E+03  0.00000000000E+00 0.  1.
         -5    1    3    3    0  503  0.92862185913E+00  0.17668259621E+01  0.27091012897E+02  0.27568042955E+02  0.47000000000E+01 0.  1.
</event>
<event>
12    1  0.9749377E-001  0.3633616E+03  0.7818608E-02  0.1057261E+00
         21   -1    0    0  501  502  0.00000000000E+00  0.00000000000E+00  0.29638574440E+03  0.29638574440E+03  0.00000000000E+00 0. -1.
         21   -1    0    0  502  503 -0.00000000000E+00 -0.00000000000E+00 -0.49832219775E+03  0.49832219775E+03  0.00000000000E+00 0.  1.
         -6    2    1    2    0  503 -0.34004610450E+03 -0.47723204966E+02 -0.12357114985E+03  0.40316626710E+03  0.17136029987E+03 0.  0.
        -24    2    3    3    0    0 -0.19382203054E+03  0.95316661498E+01 -0.12858456284E+03  0.24598222089E+03  0.79469686107E+02 0.  0.
          6    2    1    2  501    0  0.34004610450E+03  0.47723204966E+02 -0.78365303494E+02  0.39154167506E+03  0.17104065317E+03 0.  0.
         24    2    5    5    0    0  0.22187106372E+03 -0.82699970872E+01  0.54854570913E+01  0.23612732890E+03  0.80192664552E+02 0.  0.
         12    1    6    6    0    0  0.19435362513E+03  0.19944422697E+02  0.13754087957E+02  0.19585782224E+03  0.00000000000E+00 0. -1.
        -11    1    6    6    0    0  0.27517438586E+02 -0.28214419784E+02 -0.82686308658E+01  0.40269506658E+02  0.00000000000E+00 0.  1.
          5    1    5    5  501    0  0.11817504078E+03  0.55993202053E+02 -0.83850760586E+02  0.15541434615E+03  0.47000000000E+01 0. -1.
         11    1    4    4    0    0 -0.14064012000E+03 -0.21701404363E+02 -0.62005448943E+02  0.15522651192E+03  0.00000000000E+00 0. -1.
        -12    1    4    4    0    0 -0.53181910539E+02  0.31233070512E+02 -0.66579113901E+02  0.90755708967E+02  0.00000000000E+00 0.  1.
         -5    1    3    3    0  503 -0.14622407396E+03 -0.57254871116E+02  0.50134129902E+01  0.15718404621E+03  0.47000000000E+01 0.  1.
</event>
<event>
12    1  0.9749377E-001  0.1927218E+03  0.7818608E-02  0.1156029E+00
         21   -1    0    0  501  502  0.00000000000E+00  0.00000000000E+00  0.38135062500E+03  0.38135062500E+03  0.00000000000E+00 0.  1.
         21   -1    0    0  502  503 -0.00000000000E+00 -0.00000000000E+00 -0.15943192503E+03  0.15943192503E+03  0.00000000000E+00 0. -1.
         -6    2    1    2    0  503 -0.11799906615E+03 -0.64420694259E+02  0.23592047307E+03  0.32110992693E+03  0.17140393839E+03 0.  0.
        -24    2    3    3    0    0 -0.10210696656E+03  0.17252478865E+02  0.11181965646E+03  0.17162357732E+03  0.78914739252E+02 0.  0.
          6    2    1    2  501    0  0.11799906615E+03  0.64420694259E+02 -0.14001773102E+02  0.21967262310E+03  0.17316525699E+03 0.  0.
         24    2    5    5    0    0  0.12370735739E+03  0.40586926445E+01 -0.41092176788E+02  0.15309833527E+03  0.80190710251E+02 0.  0.
         12    1    6    6    0    0  0.70960625437E+02  0.31633964540E+02 -0.50751242237E+02  0.92799820385E+02  0.00000000000E+00 0. -1.
        -11    1    6    6    0    0  0.52746731952E+02 -0.27575271896E+02  0.96590654484E+01  0.60298514883E+02  0.00000000000E+00 0.  1.
          5    1    5    5  501    0 -0.57082912437E+01  0.60362001614E+02  0.27090403686E+02  0.66574287827E+02  0.47000000000E+01 0. -1.
         11    1    4    4    0    0 -0.60182725968E+02  0.49377469254E+01  0.11276801271E+03  0.12791781166E+03  0.00000000000E+00 0. -1.
        -12    1    4    4    0    0 -0.41924240595E+02  0.12314731939E+02 -0.94835624184E+00  0.43705765658E+02  0.00000000000E+00 0.  1.
         -5    1    3    3    0  503 -0.15892099583E+02 -0.81673173124E+02  0.12410081661E+03  0.14948634961E+03  0.47000000000E+01 0.  1.
</event>
<event>
12    1  0.9749377E-001  0.1648379E+03  0.7818608E-02  0.1183341E+00
         21   -1    0    0  501  502  0.00000000000E+00  0.00000000000E+00  0.17080809151E+03  0.17080809151E+03  0.00000000000E+00 0.  1.
         21   -1    0    0  502  503 -0.00000000000E+00 -0.00000000000E+00 -0.35721249298E+03  0.35721249298E+03  0.00000000000E+00 0.  1.
         -6    2    1    2    0  503 -0.31692428891E+02 -0.50077561000E+02  0.83207693833E+02  0.20032371743E+03  0.17231917852E+03 0.  0.
        -24    2    3    3    0    0  0.37032422075E+02 -0.22093691582E+02  0.47726230687E+01  0.92248038324E+02  0.81408790381E+02 0.  0.
          6    2    1    2  501    0  0.31692428891E+02  0.50077561000E+02 -0.26961209530E+03  0.32769686707E+03  0.17658534081E+03 0.  0.
         24    2    5    5    0    0  0.52438134665E+02 -0.25977244582E+02 -0.10977393218E+03  0.14941325551E+03  0.82761280397E+02 0.  0.
         12    1    6    6    0    0  0.69425390669E+02 -0.26749395387E+02 -0.10952675217E+03  0.13240666322E+03  0.00000000000E+00 0. -1.
        -11    1    6    6    0    0 -0.16987256004E+02  0.77215080512E+00 -0.24718000598E+00  0.17006592292E+02  0.00000000000E+00 0.  1.
          5    1    5    5  501    0 -0.20745705774E+02  0.76054805582E+02 -0.15983816312E+03  0.17828361156E+03  0.47000000000E+01 0. -1.
         13    1    4    4    0    0 -0.22255277488E+02 -0.20023705139E+01 -0.14632507067E+02  0.26709869465E+02  0.00000000000E+00 0. -1.
        -14    1    4    4    0    0  0.59287699564E+02 -0.20091321068E+02  0.19405130136E+02  0.65538168859E+02  0.00000000000E+00 0.  1.
         -5    1    3    3    0  503 -0.68724850966E+02 -0.27983869419E+02  0.78435070764E+02  0.10807567910E+03  0.47000000000E+01 0.  1.
</event>
<event>
12    1  0.9749377E-001  0.2178298E+03  0.7818608E-02  0.1135511E+00
         21   -1    0    0  503  502  0.00000000000E+00  0.00000000000E+00  0.13025503405E+04  0.13025503405E+04  0.00000000000E+00 0.  1.
         21   -1    0    0  501  503 -0.00000000000E+00 -0.00000000000E+00 -0.50574091636E+02  0.50574091636E+02  0.00000000000E+00 0. -1.
          6    2    1    2  501    0 -0.16609116994E+03  0.92290259405E+02  0.67086017016E+03  0.71795763728E+03  0.17119004735E+03 0.  0.
         24    2    3    3    0    0 -0.17237102180E+03  0.72109080200E+02  0.66530864825E+03  0.69560532355E+03  0.79496415701E+02 0.  0.
         -6    2    1    2    0  502  0.16609116994E+03 -0.92290259405E+02  0.58111607866E+03  0.63516679481E+03  0.17215455743E+03 0.  0.
        -24    2    5    5    0    0  0.87861232258E+02  0.97225551669E+01  0.20879978013E+03  0.24125303060E+03  0.82410875360E+02 0.  0.
         12    1    4    4    0    0 -0.26391211682E+02  0.18932769057E+02  0.25156777989E+03  0.25365585677E+03  0.00000000000E+00 0. -1.
        -11    1    4    4    0    0 -0.14597981012E+03  0.53176311142E+02  0.41374086837E+03  0.44194946678E+03  0.00000000000E+00 0.  1.
          5    1    3    3  501    0  0.62798518671E+01  0.20181179205E+02  0.55515219087E+01  0.22352313730E+02  0.47000000000E+01 0. -1.
         13    1    6    6    0    0  0.83918131723E+02 -0.32330309421E+01  0.21139388772E+03  0.22746446115E+03  0.00000000000E+00 0. -1.
        -14    1    6    6    0    0  0.39431005351E+01  0.12955586109E+02 -0.25941075890E+01  0.13788569449E+02  0.00000000000E+00 0.  1.
         -5    1    5    5    0  502  0.78229937679E+02 -0.10201281457E+03  0.37231629853E+03  0.39391376421E+03  0.47000000000E+01 0.  1.
</event>
<event>
12    1  0.9749377E-001  0.5384556E+03  0.7818608E-02  0.1004202E+00
         21   -1    0    0  503  502  0.00000000000E+00  0.00000000000E+00  0.35554182573E+03  0.35554182573E+03  0.00000000000E+00 0.  1.
         21   -1    0    0  501  503 -0.00000000000E+00 -0.00000000000E+00 -0.14729290140E+04  0.14729290140E+04  0.00000000000E+00 0. -1.
          6    2    1    2  501    0  0.20297264903E+03 -0.48852912435E+03 -0.11431809260E+04  0.12713868715E+04  0.17234658646E+03 0.  0.
         24    2    3    3    0    0  0.81430176902E+02 -0.23317856384E+03 -0.40129839293E+03  0.47741693242E+03  0.76703395316E+02 0.  0.
         -6    2    1    2    0  502 -0.20297264903E+03  0.48852912435E+03  0.25793737707E+02  0.55708396825E+03  0.17268071457E+03 0.  0.
        -24    2    5    5    0    0 -0.20673798106E+03  0.45845837382E+03 -0.10667315104E+02  0.50944022643E+03  0.80565993787E+02 0.  0.
         14    1    4    4    0    0  0.70968942899E+02 -0.11289048834E+03 -0.16579029437E+03  0.21276107473E+03  0.00000000000E+00 0. -1.
        -13    1    4    4    0    0  0.10461234003E+02 -0.12028807550E+03 -0.23550809855E+03  0.26465585769E+03  0.00000000000E+00 0.  1.
          5    1    3    3  501    0  0.12154247213E+03 -0.25535056051E+03 -0.74188253305E+03  0.79396993906E+03  0.47000000000E+01 0. -1.
         11    1    6    6    0    0 -0.13256389423E+03  0.19631708753E+03 -0.67250201403E+01  0.23697850284E+03  0.00000000000E+00 0. -1.
        -12    1    6    6    0    0 -0.74174086827E+02  0.26214128629E+03 -0.39422949635E+01  0.27246172359E+03  0.00000000000E+00 0.  1.
         -5    1    5    5    0  502  0.37653320297E+01  0.30070750530E+02  0.36461052810E+02  0.47643741821E+02  0.47000000000E+01 0.  1.
</event>
<event>
12    1  0.9749377E-001  0.4027959E+03  0.7818608E-02  0.1042816E+00
         21   -1    0    0  503  502  0.00000000000E+00  0.00000000000E+00  0.39045708176E+03  0.39045708176E+03  0.00000000000E+00 0.  1.
         21   -1    0    0  501  503 -0.00000000000E+00 -0.00000000000E+00 -0.70407106761E+03  0.70407106761E+03  0.00000000000E+00 0. -1.
          6    2    1    2  501    0  0.27649415503E+03 -0.26725288350E+03 -0.48560193064E+03  0.64203661754E+03  0.16890429751E+03 0.  0.
         24    2    3    3    0    0  0.70486501989E+02 -0.13279615209E+03 -0.24128938178E+03  0.29529683433E+03  0.79852925003E+02 0.  0.
         -6    2    1    2    0  502 -0.27649415503E+03  0.26725288350E+03  0.17198794479E+03  0.45249153182E+03  0.16521383631E+03 0.  0.
        -24    2    5    5    0    0 -0.28059859504E+03  0.25694365407E+03  0.18780448433E+03  0.43260737827E+03  0.84397905753E+02 0.  0.
         12    1    4    4    0    0 -0.56671113300E+01 -0.61283890240E+02 -0.12260247805E+03  0.13718308561E+03  0.00000000000E+00 0. -1.
        -11    1    4    4    0    0  0.76153613319E+02 -0.71512261848E+02 -0.11868690374E+03  0.15811374872E+03  0.00000000000E+00 0.  1.
          5    1    3    3  501    0  0.20600765304E+03 -0.13445673142E+03 -0.24431254885E+03  0.34673978321E+03  0.47000000000E+01 0. -1.
         13    1    6    6    0    0 -0.40719546717E+02  0.51473461157E+02  0.97450506948E+00  0.65639533427E+02  0.00000000000E+00 0. -1.
        -14    1    6    6    0    0 -0.23987904832E+03  0.20547019291E+03  0.18682997926E+03  0.36696784484E+03  0.00000000000E+00 0.  1.
         -5    1    5    5    0  502  0.41044400102E+01  0.10309229436E+02 -0.15816539540E+02  0.19884153550E+02  0.47000000000E+01 0.  1.
</event>
<event>
12    1  0.9749377E-001  0.2859090E+03  0.7818608E-02  0.1092505E+00
         21   -1    0    0  503  502  0.00000000000E+00  0.00000000000E+00  0.14842064575E+04  0.14842064575E+04  0.00000000000E+00 0.  1.
         21   -1    0    0  501  503 -0.00000000000E+00 -0.00000000000E+00 -0.72764346569E+02  0.72764346569E+02  0.00000000000E+00 0. -1.
          6    2    1    2  501    0 -0.13316504585E+03 -0.20931506032E+03  0.10140929962E+04  0.10580846244E+04  0.17208353670E+03 0.  0.
         24    2    3    3    0    0 -0.38633973471E+02 -0.11903786260E+03  0.73543269250E+03  0.75025390645E+03  0.79731313230E+02 0.  0.
         -6    2    1    2    0  502  0.13316504585E+03  0.20931506032E+03  0.39734911474E+03  0.49888617964E+03  0.17162568963E+03 0.  0.
        -24    2    5    5    0    0  0.15100942496E+03  0.11694254051E+03  0.27606298507E+03  0.34531691340E+03  0.80954275683E+02 0.  0.
         12    1    4    4    0    0  0.18215941720E+02 -0.31747465356E+02  0.10324326386E+03  0.10953946148E+03  0.00000000000E+00 0. -1.
        -11    1    4    4    0    0 -0.56849915191E+02 -0.87290397243E+02  0.63218942864E+03  0.64071444497E+03  0.00000000000E+00 0.  1.
          5    1    3    3  501    0 -0.94531072376E+02 -0.90277197725E+02  0.27866030368E+03  0.30783071796E+03  0.47000000000E+01 0. -1.
         13    1    6    6    0    0  0.68273880137E+02  0.72563217833E+01  0.11146391978E+03  0.13091288068E+03  0.00000000000E+00 0. -1.
        -14    1    6    6    0    0  0.82735544819E+02  0.10968621873E+03  0.16459906528E+03  0.21440403272E+03  0.00000000000E+00 0.  1.
         -5    1    5    5    0  502 -0.17844379109E+02  0.92372519815E+02  0.12128612967E+03  0.15356926624E+03  0.47000000000E+01 0.  1.
</event>
<event>
12    1  0.9749377E-001  0.3610056E+03  0.7818608E-02  0.1058186E+00
         21   -1    0    0  503  502  0.00000000000E+00  0.00000000000E+00  0.11312845917E+04  0.11312845917E+04  0.00000000000E+00 0. -1.
         21   -1    0    0  501  503 -0.00000000000E+00 -0.00000000000E+00 -0.41828490059E+03  0.41828490059E+03  0.00000000000E+00 0.  1.
          6    2    1    2  501    0 -0.32064478597E+03 -0.11928019939E+03  0.10002595484E+04  0.10710187309E+04  0.17181709203E+03 0.  0.
         24    2    3    3    0    0 -0.21542948700E+03 -0.12201432713E+03  0.58803974999E+03  0.64554841846E+03  0.98207194869E+02 0.  0.
         -6    2    1    2    0  502  0.32064478597E+03  0.11928019939E+03 -0.28725985729E+03  0.47855076134E+03  0.17161515327E+03 0.  0.
        -24    2    5    5    0    0  0.25892386397E+03  0.96846031241E+02 -0.14480349945E+03  0.32161552628E+03  0.77767423736E+02 0.  0.
         14    1    4    4    0    0  0.70769829766E+01 -0.16152554258E+02  0.21954291015E+02  0.28159893307E+02  0.00000000000E+00 0. -1.
        -13    1    4    4    0    0 -0.22250646998E+03 -0.10586177287E+03  0.56608545897E+03  0.61738852516E+03  0.00000000000E+00 0.  1.
          5    1    3    3  501    0 -0.10521529897E+03  0.27341277401E+01  0.41221979837E+03  0.42547031243E+03  0.47000000000E+01 0. -1.
         11    1    6    6    0    0  0.19978193760E+03  0.38036594964E+02 -0.94914779271E+02  0.22442909898E+03  0.00000000000E+00 0. -1.
        -12    1    6    6    0    0  0.59141926368E+02  0.58809436277E+02 -0.49888720183E+02  0.97186427299E+02  0.00000000000E+00 0.  1.
         -5    1    5    5    0  502  0.61720922003E+02  0.22434168145E+02 -0.14245635784E+03  0.15693523506E+03  0.47000000000E+01 0.  1.
</event>
<event>
12    1  0.9749377E-001  0.1824572E+03  0.7818608E-02  0.1165446E+00
         21   -1    0    0  503  502  0.00000000000E+00  0.00000000000E+00  0.35581225446E+03  0.35581225446E+03  0.00000000000E+00 0. -1.
         21   -1    0    0  501  503 -0.00000000000E+00 -0.00000000000E+00 -0.15599999792E+03  0.15599999792E+03  0.00000000000E+00 0.  1.
          6    2    1    2  501    0 -0.11588986528E+03  0.48265256212E+02  0.20968509081E+03  0.29915122972E+03  0.17252137579E+03 0.  0.
         24    2    3    3    0    0 -0.30050319824E+00  0.54933577862E+02  0.10161711309E+03  0.14070204245E+03  0.80332053363E+02 0.  0.
         -6    2    1    2    0  502  0.11588986528E+03 -0.48265256212E+02 -0.98728342637E+01  0.21266102266E+03  0.17136873073E+03 0.  0.
        -24    2    5    5    0    0  0.34687149176E+02 -0.36576571048E+02 -0.63249762306E+02  0.11467279423E+03  0.81291287588E+02 0.  0.
         12    1    4    4    0    0 -0.53258316024E+00  0.63070239216E+02  0.11137529743E+03  0.12799451394E+03  0.00000000000E+00 0. -1.
        -11    1    4    4    0    0  0.23207996200E+00 -0.81366613542E+01 -0.97581843460E+01  0.12707528510E+02  0.00000000000E+00 0.  1.
          5    1    3    3  501    0 -0.11558936208E+03 -0.66683216494E+01  0.10806797772E+03  0.15844918727E+03  0.47000000000E+01 0. -1.
         13    1    6    6    0    0 -0.25218766886E+02  0.45540676599E+00 -0.16415157145E+02  0.30094035666E+02  0.00000000000E+00 0. -1.
        -14    1    6    6    0    0  0.59905916062E+02 -0.37031977814E+02 -0.46834605161E+02  0.84578758566E+02  0.00000000000E+00 0.  1.
         -5    1    5    5    0  502  0.81202716102E+02 -0.11688685165E+02  0.53376928042E+02  0.97988228428E+02  0.47000000000E+01 0.  1.
</event>
<event>
12    1  0.9749377E-001  0.6433436E+03  0.7818608E-02  0.9819350E-01
         21   -1    0    0  503  502  0.00000000000E+00  0.00000000000E+00  0.12053869237E+04  0.12053869237E+04  0.00000000000E+00 0. -1.
         21   -1    0    0  501  503 -0.00000000000E+00 -0.00000000000E+00 -0.37777625706E+03  0.37777625706E+03  0.00000000000E+00 0.  1.
          6    2    1    2  501    0 -0.51097135818E+03  0.36005386513E+03  0.19566604900E+03  0.67772317589E+03  0.17404880271E+03 0.  0.
         24    2    3    3    0    0 -0.18348488426E+03  0.20115372572E+03  0.65648391714E+02  0.29117004097E+03  0.79628872289E+02 0.  0.
         -6    2    1    2    0  502  0.51097135818E+03 -0.36005386513E+03  0.63194461766E+03  0.90544000490E+03  0.17244444903E+03 0.  0.
        -24    2    5    5    0    0  0.11762132099E+03 -0.11133339805E+03  0.21154116545E+03  0.27826596594E+03  0.80326723140E+02 0.  0.
         14    1    4    4    0    0 -0.18677689568E+03  0.18720499785E+03  0.48559465089E+02  0.26886677301E+03  0.00000000000E+00 0. -1.
        -13    1    4    4    0    0  0.32920114237E+01  0.13948727868E+02  0.17088926625E+02  0.22303267956E+02  0.00000000000E+00 0.  1.
          5    1    3    3  501    0 -0.32748647392E+03  0.15890013941E+03  0.13001765729E+03  0.38655313492E+03  0.47000000000E+01 0. -1.
         13    1    6    6    0    0  0.85507951224E+02 -0.29327814500E+02  0.12931103190E+03  0.15777538907E+03  0.00000000000E+00 0. -1.
        -14    1    6    6    0    0  0.32113369762E+02 -0.82005583553E+02  0.82230133551E+02  0.12049057687E+03  0.00000000000E+00 0.  1.
         -5    1    5    5    0  502  0.39335003720E+03 -0.24872046708E+03  0.42040345221E+03  0.62717403895E+03  0.47000000000E+01 0.  1.
</event>
<event>
12    1  0.9749377E-001  0.4288235E+03  0.7818608E-02  0.1034232E+00
         21   -1    0    0  501  502  0.00000000000E+00  0.00000000000E+00  0.31939624182E+03  0.31939624182E+03  0.00000000000E+00 0. -1.
         21   -1    0    0  502  503 -0.00000000000E+00 -0.00000000000E+00 -0.62053371727E+03  0.62053371727E+03  0.00000000000E+00 0.  1.
         -6    2    1    2    0  503  0.30169583896E+03  0.27757155992E+03 -0.20521985041E+03  0.48519176415E+03  0.15883800199E+03 0.  0.
        -24    2    3    3    0    0  0.30364215534E+03  0.25785660045E+03 -0.21896784966E+03  0.46062419900E+03  0.74425456795E+02 0.  0.
          6    2    1    2  501    0 -0.30169583896E+03 -0.27757155992E+03 -0.95917625045E+02  0.45473819494E+03  0.17181468221E+03 0.  0.
         24    2    5    5    0    0 -0.23416340603E+03 -0.13411428877E+03 -0.91907807810E+02  0.29605994571E+03  0.79908091858E+02 0.  0.
         12    1    6    6    0    0 -0.77669941817E+02 -0.83777410593E+02 -0.58346095784E+02  0.12827915373E+03  0.00000000000E+00 0. -1.
        -11    1    6    6    0    0 -0.15649346421E+03 -0.50336878172E+02 -0.33561712026E+02  0.16778079198E+03  0.00000000000E+00 0.  1.
          5    1    5    5  501    0 -0.67532432929E+02 -0.14345727116E+03 -0.40098172347E+01  0.15867824923E+03  0.47000000000E+01 0. -1.
         11    1    4    4    0    0  0.11045377086E+03  0.71313002641E+02 -0.38241567291E+02  0.13692332640E+03  0.00000000000E+00 0. -1.
        -12    1    4    4    0    0  0.19318838448E+03  0.18654359781E+03 -0.18072628236E+03  0.32370087260E+03  0.00000000000E+00 0.  1.
         -5    1    3    3    0  503 -0.19463163845E+01  0.19714959467E+02  0.13747999248E+02  0.24567565153E+02  0.47000000000E+01 0.  1.
</event>
<event>
12    1  0.9749377E-001  0.5561433E+03  0.7818608E-02  0.1000082E+00
         21   -1    0    0  501  502  0.00000000000E+00  0.00000000000E+00  0.48478145987E+03  0.48478145987E+03  0.00000000000E+00 0.  1.
         21   -1    0    0  502  503 -0.00000000000E+00 -0.00000000000E+00 -0.10440306904E+04  0.10440306904E+04  0.00000000000E+00 0. -1.
         -6    2    1    2    0  503 -0.31425531030E+03 -0.44170629254E+03  0.17932977180E+03  0.59643714287E+03  0.17238691775E+03 0.  0.
        -24    2    3    3    0    0 -0.29031130760E+03 -0.37588522803E+03  0.20258892086E+03  0.52248576820E+03  0.79867059212E+02 0.  0.
          6    2    1    2  501    0  0.31425531030E+03  0.44170629254E+03 -0.73857900235E+03  0.93237500743E+03  0.17309928610E+03 0.  0.
         24    2    5    5    0    0  0.26490468674E+03  0.43752381770E+03 -0.65025171574E+03  0.83100056933E+03  0.78313908637E+02 0.  0.
         12    1    6    6    0    0  0.18694796066E+03  0.36414253090E+03 -0.53606186009E+03  0.67447137867E+03  0.00000000000E+00 0. -1.
        -11    1    6    6    0    0  0.77956726076E+02  0.73381286796E+02 -0.11418985565E+03  0.15652919065E+03  0.00000000000E+00 0.  1.
          5    1    5    5  501    0  0.49350623565E+02  0.41824748451E+01 -0.88327286608E+02  0.10137443811E+03  0.47000000000E+01 0. -1.
         13    1    4    4    0    0 -0.20951960801E+03 -0.24770660701E+03  0.17451221716E+03  0.36839047658E+03  0.00000000000E+00 0. -1.
        -14    1    4    4    0    0 -0.80791699587E+02 -0.12817862102E+03  0.28076703698E+02  0.15409529162E+03  0.00000000000E+00 0.  1.
         -5    1    3    3    0  503 -0.23944002707E+02 -0.65821064519E+02 -0.23259149067E+02  0.73951374668E+02  0.47000000000E+01 0.  1.
</event>
<event>
12    1  0.9749377E-001  0.6577500E+03  0.7818608E-02  0.9792345E-01
         21   -1    0    0  503  502  0.00000000000E+00  0.00000000000E+00  0.49281128395E+03  0.49281128395E+03  0.00000000000E+00 0. -1.
         21   -1    0    0  501  503 -0.00000000000E+00 -0.00000000000E+00 -0.97485005395E+03  0.97485005395E+03  0.00000000000E+00 0.  1.
          6    2    1    2  501    0  0.39183374573E+03  0.51123623038E+03 -0.44207220485E+03  0.79983796824E+03  0.17151318777E+03 0.  0.
         24    2    3    3    0    0  0.14809446739E+03  0.17602091532E+03 -0.20598956880E+03  0.32283142288E+03  0.94197087254E+02 0.  0.
         -6    2    1    2    0  502 -0.39183374573E+03 -0.51123623038E+03 -0.39966565142E+02  0.66782336966E+03  0.17173980082E+03 0.  0.
        -24    2    5    5    0    0 -0.27787159252E+03 -0.45239997720E+03 -0.39825726873E+02  0.53948324776E+03  0.87050128048E+02 0.  0.
         12    1    4    4    0    0 -0.87590350345E+01  0.10016069775E+02 -0.35250246560E+02  0.37677874556E+02  0.00000000000E+00 0. -1.
        -11    1    4    4    0    0  0.15685350242E+03  0.16600484554E+03 -0.17073932224E+03  0.28515354833E+03  0.00000000000E+00 0.  1.
          5    1    3    3  501    0  0.24373927835E+03  0.33521531507E+03 -0.23608263606E+03  0.47700654535E+03  0.47000000000E+01 0. -1.
         11    1    6    6    0    0 -0.14945096683E+03 -0.23589326972E+03  0.22494159123E+02  0.28015569489E+03  0.00000000000E+00 0. -1.
        -12    1    6    6    0    0 -0.12842062569E+03 -0.21650670748E+03 -0.62319885996E+02  0.25932755287E+03  0.00000000000E+00 0.  1.
         -5    1    5    5    0  502 -0.11396215321E+03 -0.58836253180E+02 -0.14083826814E+00  0.12834012190E+03  0.47000000000E+01 0.  1.
</event>
<event>
12    1  0.9749377E-001  0.4368131E+03  0.7818608E-02  0.1031729E+00
         21   -1    0    0  503  502  0.00000000000E+00  0.00000000000E+00  0.13468808156E+04  0.13468808156E+04  0.00000000000E+00 0.  1.
         21   -1    0    0  501  503 -0.00000000000E+00 -0.00000000000E+00 -0.15819012185E+03  0.15819012185E+03  0.00000000000E+00 0. -1.
          6    2    1    2  501    0 -0.34788266242E+03 -0.24035965800E+03  0.47867255546E+03  0.66142801291E+03  0.17194327234E+03 0.  0.
         24    2    3    3    0    0 -0.29905110905E+03 -0.21062408754E+03  0.47363317276E+03  0.60384146819E+03  0.80635378648E+02 0.  0.
         -6    2    1    2    0  502  0.34788266242E+03  0.24035965800E+03  0.71001813833E+03  0.84364292459E+03  0.16974249745E+03 0.  0.
        -24    2    5    5    0    0  0.14098364175E+03  0.16889608447E+03  0.40592118470E+03  0.46892797386E+03  0.81970493982E+02 0.  0.
         14    1    4    4    0    0 -0.24062740647E+03 -0.15422088591E+03  0.41407897079E+03  0.50313718253E+03  0.00000000000E+00 0. -1.
        -13    1    4    4    0    0 -0.58423702579E+02 -0.56403201634E+02  0.59554201969E+02  0.10070428566E+03  0.00000000000E+00 0.  1.
          5    1    3    3  501    0 -0.48831553366E+02 -0.29735570461E+02  0.50393827033E+01  0.57586544720E+02  0.47000000000E+01 0. -1.
         13    1    6    6    0    0  0.14814608962E+03  0.15354156188E+03  0.39448350670E+03  0.44848579928E+03  0.00000000000E+00 0. -1.
        -14    1    6    6    0    0 -0.71624478688E+01  0.15354522591E+02  0.11437678003E+02  0.20442174580E+02  0.00000000000E+00 0.  1.
         -5    1    5    5    0  502  0.20689902067E+03  0.71463573533E+02  0.30409695363E+03  0.37471495073E+03  0.47000000000E+01 0.  1.
</event>
<event>
12    1  0.9749377E-001  0.4013780E+03  0.7818608E-02  0.1043304E+00
         21   -1    0    0  501  502  0.00000000000E+00  0.00000000000E+00  0.43003967497E+03  0.43003967497E+03  0.00000000000E+00 0.  1.
         21   -1    0    0  502  503 -0.00000000000E+00 -0.00000000000E+00 -0.42819444625E+03  0.42819444625E+03  0.00000000000E+00 0. -1.
         -6    2    1    2    0  503 -0.37788355735E+03  0.99879032160E+02  0.32462198871E+02  0.42826899029E+03  0.17201374862E+03 0.  0.
        -24    2    3    3    0    0 -0.26921547864E+03  0.58094159133E+02  0.86991752040E+02  0.29962106333E+03  0.79707662134E+02 0.  0.
          6    2    1    2  501    0  0.37788355735E+03 -0.99879032160E+02 -0.30616970149E+02  0.42996513093E+03  0.17652425040E+03 0.  0.
         24    2    5    5    0    0  0.78260411193E+02 -0.58116377468E+01  0.11113529359E+02  0.11312727178E+03  0.80720517790E+02 0.  0.
         14    1    6    6    0    0 -0.50196457752E+01  0.47063686054E+01 -0.21878376008E+02  0.22934909765E+02  0.00000000000E+00 0. -1.
        -13    1    6    6    0    0  0.83280056968E+02 -0.10518006352E+02  0.32991905367E+02  0.90192362016E+02  0.00000000000E+00 0.  1.
          5    1    5    5  501    0  0.29962314615E+03 -0.94067394413E+02 -0.41730499508E+02  0.31683785915E+03  0.47000000000E+01 0. -1.
         13    1    4    4    0    0 -0.61567593219E+02 -0.10902373996E+02  0.44444375191E+02  0.76712011964E+02  0.00000000000E+00 0. -1.
        -14    1    4    4    0    0 -0.20764788542E+03  0.68996533128E+02  0.42547376848E+02  0.22290905136E+03  0.00000000000E+00 0.  1.
         -5    1    3    3    0  503 -0.10866807871E+03  0.41784873027E+02 -0.54529553168E+02  0.12864792697E+03  0.47000000000E+01 0.  1.
</event>
<event>
12    1  0.9749377E-001  0.1711000E+03  0.7818608E-02  0.1176706E+00
         21   -1    0    0  503  502  0.00000000000E+00  0.00000000000E+00  0.29941729282E+03  0.29941729282E+03  0.00000000000E+00 0. -1.
         21   -1    0    0  501  503 -0.00000000000E+00 -0.00000000000E+00 -0.28657024161E+03  0.28657024161E+03  0.00000000000E+00 0. -1.
          6    2    1    2  501    0 -0.86590198953E+02 -0.93921255451E+02  0.20659176519E+03  0.29700295048E+03  0.17091380977E+03 0.  0.
         24    2    3    3    0    0 -0.39309304258E+02  0.80544688468E+01  0.14278785881E+03  0.16766788246E+03  0.78192392953E+02 0.  0.
         -6    2    1    2    0  502  0.86590198953E+02  0.93921255451E+02 -0.19374471398E+03  0.28898458395E+03  0.17220920645E+03 0.  0.
        -24    2    5    5    0    0  0.11224026488E+02  0.57759333336E+02 -0.17860284945E+03  0.20390162076E+03  0.78833836402E+02 0.  0.
         14    1    4    4    0    0 -0.80008366150E+00  0.28275245109E+02  0.13661631975E+02  0.31412892386E+02  0.00000000000E+00 0. -1.
        -13    1    4    4    0    0 -0.38509220596E+02 -0.20220776262E+02  0.12912622684E+03  0.13625499008E+03  0.00000000000E+00 0.  1.
          5    1    3    3  501    0 -0.47280894695E+02 -0.10197572430E+03  0.63803906373E+02  0.12933506801E+03  0.47000000000E+01 0. -1.
         11    1    6    6    0    0  0.26932169123E+02  0.20787754497E+02 -0.15190598916E+03  0.15566920701E+03  0.00000000000E+00 0. -1.
        -12    1    6    6    0    0 -0.15708142635E+02  0.36971578839E+02 -0.26696860291E+02  0.48232413751E+02  0.00000000000E+00 0.  1.
         -5    1    5    5    0  502  0.75366172465E+02  0.36161922115E+02 -0.15141864529E+02  0.85082963185E+02  0.47000000000E+01 0.  1.
</event>
<event>
12    1  0.9749377E-001  0.8427033E+03  0.7818608E-02  0.9500183E-01
         21   -1    0    0  503  502  0.00000000000E+00  0.00000000000E+00  0.15435932334E+04  0.15435932334E+04  0.00000000000E+00 0.  1.
         21   -1    0    0  501  503 -0.00000000000E+00 -0.00000000000E+00 -0.48696052758E+03  0.48696052758E+03  0.00000000000E+00 0. -1.
          6    2    1    2  501    0  0.74834395220E+03  0.36658937368E+03  0.33529727658E+03  0.91497364207E+03  0.17420121213E+03 0.  0.
         24    2    3    3    0    0  0.23982690207E+03  0.17778997109E+03  0.11826906357E+03  0.33071501789E+03  0.79111534429E+02 0.  0.
         -6    2    1    2    0  502 -0.74834395220E+03 -0.36658937368E+03  0.72133542928E+03  0.11155801190E+04  0.17259131091E+03 0.  0.
        -24    2    5    5    0    0 -0.66336473301E+03 -0.31570921054E+03  0.69126385604E+03  0.10119623202E+04  0.80603624603E+02 0.  0.
         12    1    4    4    0    0  0.12118571929E+03  0.13428906651E+03  0.86035639987E+02  0.20030392730E+03  0.00000000000E+00 0. -1.
        -11    1    4    4    0    0  0.11864118279E+03  0.43500904575E+02  0.32233423588E+02  0.13041109059E+03  0.00000000000E+00 0.  1.
          5    1    3    3  501    0  0.50851705013E+03  0.18879940259E+03  0.21702821301E+03  0.58425862418E+03  0.47000000000E+01 0. -1.
         13    1    6    6    0    0 -0.51808955930E+03 -0.22188173144E+03  0.49223228873E+03  0.74829200201E+03  0.00000000000E+00 0. -1.
        -14    1    6    6    0    0 -0.14527517371E+03 -0.93827479099E+02  0.19903156730E+03  0.26367031823E+03  0.00000000000E+00 0.  1.
         -5    1    5    5    0  502 -0.84979219184E+02 -0.50880163140E+02  0.30071573242E+02  0.10361779872E+03  0.47000000000E+01 0.  1.
</event>
<event>
12    1  0.9749377E-001  0.2125653E+03  0.7818608E-02  0.1139550E+00
         21   -1    0    0  503  502  0.00000000000E+00  0.00000000000E+00  0.30574690177E+03  0.30574690177E+03  0.00000000000E+00 0. -1.
         21   -1    0    0  501  503 -0.00000000000E+00 -0.00000000000E+00 -0.26325216589E+03  0.26325216589E+03  0.00000000000E+00 0. -1.
          6    2    1    2  501    0 -0.10192200464E+03  0.11277948217E+03  0.18944099820E+03  0.29679416909E+03  0.17056254096E+03 0.  0.
         24    2    3    3    0    0 -0.10507494716E+03  0.14252782839E+03  0.18113562436E+03  0.26539394005E+03  0.79176401875E+02 0.  0.
         -6    2    1    2    0  502  0.10192200464E+03 -0.11277948217E+03 -0.14694626231E+03  0.27220489856E+03  0.17144968989E+03 0.  0.
        -24    2    5    5    0    0  0.12723114539E+03 -0.71984751257E+02 -0.14940509191E+03  0.22390481037E+03  0.80261534071E+02 0.  0.
         14    1    4    4    0    0 -0.33159635326E+02  0.10964308270E+03  0.11486282891E+03  0.16221786728E+03  0.00000000000E+00 0. -1.
        -13    1    4    4    0    0 -0.71915311835E+02  0.32884745698E+02  0.66272795446E+02  0.10317607277E+03  0.00000000000E+00 0.  1.
          5    1    3    3  501    0  0.31529425176E+01 -0.29748346220E+02  0.83053738350E+01  0.31400229042E+02  0.47000000000E+01 0. -1.
         13    1    6    6    0    0  0.71831550707E+01 -0.21654227157E+02  0.35146485167E+01  0.23083674420E+02  0.00000000000E+00 0. -1.
        -14    1    6    6    0    0  0.12004799032E+03 -0.50330524100E+02 -0.15291974042E+03  0.20082113595E+03  0.00000000000E+00 0.  1.
         -5    1    5    5    0  502 -0.25309140745E+02 -0.40794730918E+02  0.24588295905E+01  0.48300088187E+02  0.47000000000E+01 0.  1.
</event>
<event>
12    1  0.9749377E-001  0.5135585E+03  0.7818608E-02  0.1010299E+00
         21   -1    0    0  501  502  0.00000000000E+00  0.00000000000E+00  0.89195608296E+03  0.89195608296E+03  0.00000000000E+00 0. -1.
         21   -1    0    0  502  503 -0.00000000000E+00 -0.00000000000E+00 -0.44069865103E+03  0.44069865103E+03  0.00000000000E+00 0.  1.
         -6    2    1    2    0  503  0.46072857949E+03 -0.18720978298E+03 -0.13736653156E+03  0.54313446507E+03  0.16972671076E+03 0.  0.
        -24    2    3    3    0    0  0.42553744964E+03 -0.18209094112E+03 -0.16505691981E+03  0.49781928258E+03  0.79630518343E+02 0.  0.
          6    2    1    2  501    0 -0.46072857949E+03  0.18720978298E+03  0.58862396349E+03  0.78952026891E+03  0.17188879495E+03 0.  0.
         24    2    5    5    0    0 -0.10622145454E+03  0.24797505023E+02  0.15692097255E+03  0.20776206136E+03  0.81504410025E+02 0.  0.
         12    1    6    6    0    0  0.11764732146E+02 -0.64814372622E+01  0.22385069406E+02  0.26105732775E+02  0.00000000000E+00 0. -1.
        -11    1    6    6    0    0 -0.11798618669E+03  0.31278942285E+02  0.13453590314E+03  0.18165632858E+03  0.00000000000E+00 0.  1.
          5    1    5    5  501    0 -0.35450712495E+03  0.16241227796E+03  0.43170299094E+03  0.58175820756E+03  0.47000000000E+01 0. -1.
         11    1    4    4    0    0  0.90208114446E+02 -0.62601151846E+02 -0.12451312936E+02  0.11050539950E+03  0.00000000000E+00 0. -1.
        -12    1    4    4    0    0  0.33532933519E+03 -0.11948978927E+03 -0.15260560687E+03  0.38731388308E+03  0.00000000000E+00 0.  1.
         -5    1    3    3    0  503  0.35191129857E+02 -0.51188418630E+01  0.27690388249E+02  0.45315182489E+02  0.47000000000E+01 0.  1.
</event>
<event>
12    1  0.1101542E+000  0.1074962E+04  0.7818608E-02  0.9229945E-01
         21   -1    0    0  503  502  0.00000000000E+00  0.00000000000E+00  0.86115348781E+03  0.86115348781E+03  0.00000000000E+00 0. -1.
         21   -1    0    0  501  503 -0.00000000000E+00 -0.00000000000E+00 -0.13774055052E+04  0.13774055052E+04  0.00000000000E+00 0.  1.
          6    2    1    2  501    0  0.20734227506E+03 -0.10481667501E+04 -0.13427012039E+03  0.10905117623E+04  0.17188101593E+03 0.  0.
         24    2    3    3    0    0  0.22761904216E+03 -0.95184666036E+03 -0.13997341277E+03  0.99180348251E+03  0.79114464272E+02 0.  0.
         -6    2    1    2    0  502 -0.20734227506E+03  0.10481667501E+04 -0.38198189705E+03  0.11480472307E+04  0.17452197369E+03 0.  0.
        -24    2    5    5    0    0 -0.14019976960E+03  0.68612080038E+03 -0.17755260104E+03  0.72685984630E+03  0.79891062772E+02 0.  0.
         12    1    4    4    0    0  0.11776490232E+03 -0.42023898083E+03 -0.26506832899E+02  0.43723218708E+03  0.00000000000E+00 0. -1.
        -11    1    4    4    0    0  0.10985413984E+03 -0.53160767953E+03 -0.11346657987E+03  0.55457129544E+03  0.00000000000E+00 0.  1.
          5    1    3    3  501    0 -0.20276767094E+02 -0.96320089702E+02  0.57032923887E+01  0.98708279835E+02  0.47000000000E+01 0. -1.
         13    1    6    6    0    0 -0.13697025892E+03  0.52073353593E+03 -0.15191418219E+03  0.55946598290E+03  0.00000000000E+00 0. -1.
        -14    1    6    6    0    0 -0.32295106780E+01  0.16538726445E+03 -0.25638418850E+02  0.16739386340E+03  0.00000000000E+00 0.  1.
         -5    1    5    5    0  502 -0.67142505460E+02  0.36204594967E+03 -0.20442929601E+03  0.42118738440E+03  0.47000000000E+01 0.  1.
</event>
<event>
12    1  0.9749377E-001  0.1596614E+03  0.7818608E-02  0.1189080E+00
         21   -1    0    0  503  502  0.00000000000E+00  0.00000000000E+00  0.38111043571E+03  0.38111043571E+03  0.00000000000E+00 0.  1.
         21   -1    0    0  501  503 -0.00000000000E+00 -0.00000000000E+00 -0.38451058584E+03  0.38451058584E+03  0.00000000000E+00 0. -1.
          6    2    1    2  501    0 -0.80394547414E+02  0.10576194486E+03  0.31388975817E+03  0.38195307588E+03  0.17237314075E+03 0.  0.
         24    2    3    3    0    0 -0.59574723766E+02  0.57118840847E+02  0.62388752956E+02  0.12490354320E+03  0.69977345739E+02 0.  0.
         -6    2    1    2    0  502  0.80394547414E+02 -0.10576194486E+03 -0.31728990831E+03  0.38366794567E+03  0.16993920792E+03 0.  0.
        -24    2    5    5    0    0  0.60330099760E+02 -0.12318348682E+03 -0.16564131337E+03  0.22963717430E+03  0.80512699377E+02 0.  0.
         12    1    4    4    0    0 -0.28928680689E+02  0.64310324031E+02  0.22354451154E+02  0.73975724598E+02  0.00000000000E+00 0. -1.
        -11    1    4    4    0    0 -0.30646043077E+02 -0.71914831839E+01  0.40034301802E+02  0.50927818601E+02  0.00000000000E+00 0.  1.
          5    1    3    3  501    0 -0.20819823648E+02  0.48643104014E+02  0.25150100522E+03  0.25704953268E+03  0.47000000000E+01 0. -1.
         13    1    6    6    0    0  0.23542143715E+02 -0.52573001263E+02 -0.15437635849E+02  0.59636176882E+02  0.00000000000E+00 0. -1.
        -14    1    6    6    0    0  0.36787956044E+02 -0.70610485560E+02 -0.15020367752E+03  0.17000099741E+03  0.00000000000E+00 0.  1.
         -5    1    5    5    0  502  0.20064447654E+02  0.17421541962E+02 -0.15164859494E+03  0.15403077138E+03  0.47000000000E+01 0.  1.
</event>
<event>
12    1  0.9749377E-001  0.8619098E+03  0.7818608E-02  0.9474490E-01
         21   -1    0    0  501  502  0.00000000000E+00  0.00000000000E+00  0.15674413850E+04  0.15674413850E+04  0.00000000000E+00 0. -1.
         21   -1    0    0  502  503 -0.00000000000E+00 -0.00000000000E+00 -0.57872818344E+03  0.57872818344E+03  0.00000000000E+00 0.  1.
         -6    2    1    2    0  503 -0.81242217127E+03 -0.23357136223E+03  0.94906369598E+03  0.12824086227E+04  0.17106902373E+03 0.  0.
        -24    2    3    3    0    0 -0.19324968931E+03 -0.62223420733E+02  0.23963162883E+03  0.32530328503E+03  0.84744989272E+02 0.  0.
          6    2    1    2  501    0  0.81242217127E+03  0.23357136223E+03  0.39649505538E+02  0.86376094572E+03  0.17298994896E+03 0.  0.
         24    2    5    5    0    0  0.80295442796E+03  0.24859845275E+03  0.35664094934E+02  0.84496134172E+03  0.78426636110E+02 0.  0.
         12    1    6    6    0    0  0.56076223824E+03  0.20976970693E+03  0.16737159550E+02  0.59894720159E+03  0.00000000000E+00 0. -1.
        -11    1    6    6    0    0  0.24219218972E+03  0.38828745815E+02  0.18926935383E+02  0.24601414013E+03  0.00000000000E+00 0.  1.
          5    1    5    5  501    0  0.94677433094E+01 -0.15027090518E+02  0.39854106043E+01  0.18799603999E+02  0.47000000000E+01 0. -1.
         13    1    4    4    0    0 -0.18939194647E+03 -0.76455489074E+02  0.21463773034E+03  0.29628382757E+03  0.00000000000E+00 0. -1.
        -14    1    4    4    0    0 -0.38577428461E+01  0.14232068342E+02  0.24993898496E+02  0.29019457458E+02  0.00000000000E+00 0.  1.
         -5    1    3    3    0  503 -0.61917248195E+03 -0.17134794150E+03  0.70943206714E+03  0.95710533765E+03  0.47000000000E+01 0.  1.
</event>
<event>
12    1  0.9749377E-001  0.3919485E+03  0.7818608E-02  0.1046604E+00
         21   -1    0    0  501  502  0.00000000000E+00  0.00000000000E+00  0.10887516453E+04  0.10887516453E+04  0.00000000000E+00 0. -1.
         21   -1    0    0  502  503 -0.00000000000E+00 -0.00000000000E+00 -0.22280824049E+03  0.22280824049E+03  0.00000000000E+00 0.  1.
         -6    2    1    2    0  503  0.30066620329E+03  0.20359853346E+03  0.81268805531E+03  0.90657777174E+03  0.17195596049E+03 0.  0.
        -24    2    3    3    0    0  0.28188872224E+03  0.12341592400E+03  0.61534950016E+03  0.69269359748E+03  0.80477764690E+02 0.  0.
          6    2    1    2  501    0 -0.30066620329E+03 -0.20359853346E+03  0.53255349522E+02  0.40498211406E+03  0.17123624567E+03 0.  0.
         24    2    5    5    0    0 -0.31523657822E+03 -0.19797244520E+03  0.37686246440E+02  0.38243359603E+03  0.79170783098E+02 0.  0.
         12    1    6    6    0    0 -0.24059494343E+03 -0.15594116731E+03  0.62101202954E+02  0.29336007546E+03  0.00000000000E+00 0. -1.
        -11    1    6    6    0    0 -0.74641634785E+02 -0.42031277890E+02 -0.24414956514E+02  0.89073520566E+02  0.00000000000E+00 0.  1.
          5    1    5    5  501    0  0.14570374930E+02 -0.56260882626E+01  0.15569103082E+02  0.22548518034E+02  0.47000000000E+01 0. -1.
         11    1    4    4    0    0  0.12922587846E+02 -0.59970475465E+01  0.89736848750E+01  0.16837009121E+02  0.00000000000E+00 0. -1.
        -12    1    4    4    0    0  0.26896613440E+03  0.12941297155E+03  0.60637581529E+03  0.67585658835E+03  0.00000000000E+00 0.  1.
         -5    1    3    3    0  503  0.18777481045E+02  0.80182609462E+02  0.19733855514E+03  0.21388417426E+03  0.47000000000E+01 0.  1.
</event>
<event>
12    1  0.9749377E-001  0.8418476E+03  0.7818608E-02  0.9501345E-01
         21   -1    0    0  503  502  0.00000000000E+00  0.00000000000E+00  0.35790931252E+03  0.35790931252E+03  0.00000000000E+00 0. -1.
         21   -1    0    0  501  503 -0.00000000000E+00 -0.00000000000E+00 -0.20115643267E+04  0.20115643267E+04  0.00000000000E+00 0.  1.
          6    2    1    2  501    0 -0.54292252638E+03  0.62807299647E+03 -0.76603422392E+03  0.11426428403E+04  0.17199904003E+03 0.  0.
         24    2    3    3    0    0 -0.50151426014E+03  0.49762456624E+03 -0.64198487945E+03  0.95786793043E+03  0.78864596929E+02 0.  0.
         -6    2    1    2    0  502  0.54292252638E+03 -0.62807299647E+03 -0.88762079027E+03  0.12268307989E+04  0.16733972419E+03 0.  0.
        -24    2    5    5    0    0  0.54248586032E+03 -0.60859236627E+03 -0.88777044680E+03  0.12067858986E+04  0.59331795866E+02 0.  0.
         14    1    4    4    0    0 -0.42862664074E+03  0.45598639727E+03 -0.54777501619E+03  0.83168615475E+03  0.00000000000E+00 0. -1.
        -13    1    4    4    0    0 -0.72887619399E+02  0.41638168977E+02 -0.94209863260E+02  0.12618177568E+03  0.00000000000E+00 0.  1.
          5    1    3    3  501    0 -0.41408266237E+02  0.13044843022E+03 -0.12404934446E+03  0.18477490988E+03  0.47000000000E+01 0. -1.
         11    1    6    6    0    0  0.14815000061E+03 -0.13252611635E+03 -0.19848107266E+03  0.28090270629E+03  0.00000000000E+00 0. -1.
        -12    1    6    6    0    0  0.39433585971E+03 -0.47606624991E+03 -0.68928937414E+03  0.92588319234E+03  0.00000000000E+00 0.  1.
         -5    1    5    5    0  502  0.43666605955E+00 -0.19480630200E+02  0.14965652367E+00  0.20044900282E+02  0.47000000000E+01 0.  1.
</event>
<event>
12    1  0.9749377E-001  0.2508875E+03  0.7818608E-02  0.1112745E+00
         21   -1    0    0  501  502  0.00000000000E+00  0.00000000000E+00  0.32353980847E+03  0.32353980847E+03  0.00000000000E+00 0.  1.
         21   -1    0    0  502  503 -0.00000000000E+00 -0.00000000000E+00 -0.27199621388E+03  0.27199621388E+03  0.00000000000E+00 0. -1.
         -6    2    1    2    0  503 -0.14555105204E+03  0.15885439795E+03  0.13479332428E+03  0.30706401170E+03  0.17233467009E+03 0.  0.
        -24    2    3    3    0    0 -0.16623194106E+03  0.15129495375E+03  0.14817782828E+03  0.28087089591E+03  0.80053545324E+02 0.  0.
          6    2    1    2  501    0  0.14555105204E+03 -0.15885439795E+03 -0.83249729684E+02  0.28847201065E+03  0.17281711414E+03 0.  0.
         24    2    5    5    0    0  0.73507247904E+02 -0.15916002855E+03 -0.95434261880E+02  0.21525346144E+03  0.80567512916E+02 0.  0.
         14    1    6    6    0    0  0.48508028687E+02 -0.74097006416E+02 -0.51459373029E+01  0.88712320890E+02  0.00000000000E+00 0. -1.
        -13    1    6    6    0    0  0.24999219217E+02 -0.85063022136E+02 -0.90288324577E+02  0.12654114055E+03  0.00000000000E+00 0.  1.
          5    1    5    5  501    0  0.72043804132E+02  0.30563060312E+00  0.12184532196E+02  0.73218549212E+02  0.47000000000E+01 0. -1.
         13    1    4    4    0    0 -0.52715346043E+02  0.79946408859E+02  0.99853388252E+02  0.13835112990E+03  0.00000000000E+00 0. -1.
        -14    1    4    4    0    0 -0.11351659501E+03  0.71348544886E+02  0.48324440030E+02  0.14251976601E+03  0.00000000000E+00 0.  1.
         -5    1    3    3    0  503  0.20680889019E+02  0.75594442030E+01 -0.13384504006E+02  0.26193115790E+02  0.47000000000E+01 0.  1.
</event>
<event>
12    1  0.9749377E-001  0.5011496E+03  0.7818608E-02  0.1013479E+00
         21   -1    0    0  503  502  0.00000000000E+00  0.00000000000E+00  0.31801204227E+03  0.31801204227E+03  0.00000000000E+00 0.  1.
         21   -1    0    0  501  503 -0.00000000000E+00 -0.00000000000E+00 -0.10183182393E+04  0.10183182393E+04  0.00000000000E+00 0. -1.
          6    2    1    2  501    0  0.48838307486E+03  0.32926466132E+01 -0.72685568113E+02  0.52284047264E+03  0.17190142142E+03 0.  0.
         24    2    3    3    0    0  0.31254037994E+03  0.54557118836E+02 -0.41837112968E+01  0.32723041703E+03  0.80026708542E+02 0.  0.
         -6    2    1    2    0  502 -0.48838307486E+03 -0.32926466132E+01 -0.62762062892E+03  0.81348980894E+03  0.17125754312E+03 0.  0.
        -24    2    5    5    0    0 -0.12416573222E+03  0.16001864653E+02 -0.12568174647E+03  0.19301315139E+03  0.76059098639E+02 0.  0.
         12    1    4    4    0    0  0.70561366507E+02  0.55640748219E+01  0.32046763561E+02  0.77697235644E+02  0.00000000000E+00 0. -1.
        -11    1    4    4    0    0  0.24197901344E+03  0.48993044014E+02 -0.36230474858E+02  0.24953318139E+03  0.00000000000E+00 0.  1.
          5    1    3    3  501    0  0.17584269492E+03 -0.51264472223E+02 -0.68501856816E+02  0.19561005561E+03  0.47000000000E+01 0. -1.
         13    1    6    6    0    0 -0.12979293887E+03  0.17101062240E+02 -0.94877632001E+02  0.16167998752E+03  0.00000000000E+00 0. -1.
        -14    1    6    6    0    0  0.56272066556E+01 -0.10991975873E+01 -0.30804114464E+02  0.31333163869E+02  0.00000000000E+00 0.  1.
         -5    1    5    5    0  502 -0.36421734264E+03 -0.19294511266E+02 -0.50193888245E+03  0.62047665755E+03  0.47000000000E+01 0.  1.
</event>
<event>
12    1  0.9749377E-001  0.4062785E+03  0.7818608E-02  0.1041627E+00
         21   -1    0    0  503  502  0.00000000000E+00  0.00000000000E+00  0.43122176877E+03  0.43122176877E+03  0.00000000000E+00 0. -1.
         21   -1    0    0  501  503 -0.00000000000E+00 -0.00000000000E+00 -0.65129702007E+03  0.65129702007E+03  0.00000000000E+00 0.  1.
          6    2    1    2  501    0  0.88555081512E+02 -0.38483188419E+03  0.20477429710E+03  0.47736988880E+03  0.17323947710E+03 0.  0.
         24    2    3    3    0    0  0.35250377587E+02 -0.68163486503E+02  0.58220265193E+02  0.12435368546E+03  0.78647249124E+02 0.  0.
         -6    2    1    2    0  502 -0.88555081512E+02  0.38483188419E+03 -0.42484954840E+03  0.60514890003E+03  0.17254121501E+03 0.  0.
        -24    2    5    5    0    0 -0.19640212682E+02  0.15559103246E+03 -0.10729248697E+03  0.20744900750E+03  0.83241249502E+02 0.  0.
         12    1    4    4    0    0  0.13381076013E+02 -0.18768815720E+02 -0.19166397277E+02  0.29977865557E+02  0.00000000000E+00 0. -1.
        -11    1    4    4    0    0  0.21869301574E+02 -0.49394670783E+02  0.77386662470E+02  0.94375819898E+02  0.00000000000E+00 0.  1.
          5    1    3    3  501    0  0.53304703925E+02 -0.31666839769E+03  0.14655403191E+03  0.35301620335E+03  0.47000000000E+01 0. -1.
         11    1    6    6    0    0 -0.25616751655E+02  0.16321913230E+03 -0.10853680969E+03  0.19767888651E+03  0.00000000000E+00 0. -1.
        -12    1    6    6    0    0  0.59765389725E+01 -0.76280998384E+01  0.12443227225E+01  0.97701209958E+01  0.00000000000E+00 0.  1.
         -5    1    5    5    0  502 -0.68914868830E+02  0.22924085173E+03 -0.31755706143E+03  0.39769989253E+03  0.47000000000E+01 0.  1.
</event>
<event>
12    1  0.9749377E-001  0.1996566E+03  0.7818608E-02  0.1150029E+00
         21   -1    0    0  501  502  0.00000000000E+00  0.00000000000E+00  0.41180495561E+03  0.41180495561E+03  0.00000000000E+00 0. -1.
         21   -1    0    0  502  503 -0.00000000000E+00 -0.00000000000E+00 -0.14662565191E+03  0.14662565191E+03  0.00000000000E+00 0.  1.
         -6    2    1    2    0  503  0.78981851563E+02  0.11452409340E+03  0.25429547667E+03  0.33696594902E+03  0.17183119769E+03 0.  0.
        -24    2    3    3    0    0  0.10735482072E+03  0.67735997939E+02  0.23326987154E+03  0.27815848923E+03  0.82729010709E+02 0.  0.
          6    2    1    2  501    0 -0.78981851563E+02 -0.11452409340E+03  0.10883827035E+02  0.22146465850E+03  0.17197161518E+03 0.  0.
         24    2    5    5    0    0 -0.11549707720E+02 -0.11215336023E+03  0.46447601550E+02  0.14504747158E+03  0.78546911863E+02 0.  0.
         14    1    6    6    0    0 -0.34036967598E+02 -0.58765855760E+02  0.53817713579E+02  0.86650373694E+02  0.00000000000E+00 0. -1.
        -13    1    6    6    0    0  0.22487259877E+02 -0.53387504471E+02 -0.73701120291E+01  0.58397097888E+02  0.00000000000E+00 0.  1.
          5    1    5    5  501    0 -0.67432143843E+02 -0.23707331725E+01 -0.35563774515E+02  0.76417186920E+02  0.47000000000E+01 0. -1.
         11    1    4    4    0    0  0.40080060412E+02  0.73161823130E+02  0.14116906905E+03  0.16397490559E+03  0.00000000000E+00 0. -1.
        -12    1    4    4    0    0  0.67274760307E+02 -0.54258251917E+01  0.92100802490E+02  0.11418358364E+03  0.00000000000E+00 0.  1.
         -5    1    3    3    0  503 -0.28372969156E+02  0.46788095465E+02  0.21025605125E+02  0.58807459789E+02  0.47000000000E+01 0.  1.
</event>
<event>
12    1  0.9749377E-001  0.2800144E+03  0.7818608E-02  0.1095681E+00
         21   -1    0    0  503  502  0.00000000000E+00  0.00000000000E+00  0.44230540356E+03  0.44230540356E+03  0.00000000000E+00 0. -1.
         21   -1    0    0  501  503 -0.00000000000E+00 -0.00000000000E+00 -0.24800984153E+03  0.24800984153E+03  0.00000000000E+00 0.  1.
          6    2    1    2  501    0  0.42876816228E+02  0.24316814106E+03 -0.47780770347E+02  0.30475768892E+03  0.17211937935E+03 0.  0.
         24    2    3    3    0    0  0.42718048054E+02  0.18926455187E+03 -0.97441770156E+02  0.23131432955E+03  0.79784198041E+02 0.  0.
         -6    2    1    2    0  502 -0.42876816228E+02 -0.24316814106E+03  0.24207633237E+03  0.38555755617E+03  0.17054181960E+03 0.  0.
        -24    2    5    5    0    0 -0.89761202760E+02 -0.19452207183E+03  0.20784938294E+03  0.30967501655E+03  0.82470236681E+02 0.  0.
         12    1    4    4    0    0 -0.13617625096E+02  0.11482223864E+03 -0.43802224453E+02  0.12364554609E+03  0.00000000000E+00 0. -1.
        -11    1    4    4    0    0  0.56335673151E+02  0.74442313233E+02 -0.53639545704E+02  0.10766878346E+03  0.00000000000E+00 0.  1.
          5    1    3    3  501    0  0.15876817365E+00  0.53903589182E+02  0.49660999809E+02  0.73443359373E+02  0.47000000000E+01 0. -1.
         11    1    6    6    0    0 -0.42265934392E+02 -0.17112434621E+03  0.16684092593E+03  0.24270526496E+03  0.00000000000E+00 0. -1.
        -12    1    6    6    0    0 -0.47495268368E+02 -0.23397725620E+02  0.41008457009E+02  0.66969751589E+02  0.00000000000E+00 0.  1.
         -5    1    5    5    0  502  0.46884386532E+02 -0.48646069228E+02  0.34226949429E+02  0.75882539619E+02  0.47000000000E+01 0.  1.
</event>
<event>
12    1  0.9749377E-001  0.4404546E+03  0.7818608E-02  0.1030607E+00
         21   -1    0    0  503  502  0.00000000000E+00  0.00000000000E+00  0.12382875419E+03  0.12382875419E+03  0.00000000000E+00 0. -1.
         21   -1    0    0  501  503 -0.00000000000E+00 -0.00000000000E+00 -0.19837391593E+04  0.19837391593E+04  0.00000000000E+00 0.  1.
          6    2    1    2  501    0 -0.16060612487E+03 -0.38163239209E+03 -0.13767380630E+04  0.14477899312E+04  0.17102742675E+03 0.  0.
         24    2    3    3    0    0 -0.17928708917E+03 -0.28315312174E+03 -0.11318663213E+04  0.11831554569E+04  0.80099407788E+02 0.  0.
         -6    2    1    2    0  502  0.16060612487E+03  0.38163239209E+03 -0.48317234213E+03  0.65977798231E+03  0.17439571013E+03 0.  0.
        -24    2    5    5    0    0  0.35183693258E+02  0.68025601139E+02 -0.10479317302E+03  0.15255723028E+03  0.80166855478E+02 0.  0.
         12    1    4    4    0    0 -0.11740989295E+03 -0.24417823127E+03 -0.86393524273E+03  0.90542376555E+03  0.00000000000E+00 0. -1.
        -11    1    4    4    0    0 -0.61877196222E+02 -0.38974890468E+02 -0.26793107856E+03  0.27773169131E+03  0.00000000000E+00 0.  1.
          5    1    3    3  501    0  0.18680964302E+02 -0.98479270350E+02 -0.24487174167E+03  0.26463447429E+03  0.47000000000E+01 0. -1.
         13    1    6    6    0    0  0.49498934659E+02  0.29539008264E+02 -0.93719719758E+02  0.11002764840E+03  0.00000000000E+00 0. -1.
        -14    1    6    6    0    0 -0.14315241400E+02  0.38486592875E+02 -0.11073453264E+02  0.42529581878E+02  0.00000000000E+00 0.  1.
         -5    1    5    5    0  502  0.12542243161E+03  0.31360679095E+03 -0.37837916911E+03  0.50722075203E+03  0.47000000000E+01 0.  1.
</event>
<event>
12    1  0.9749377E-001  0.2333831E+03  0.7818608E-02  0.1124281E+00
         21   -1    0    0  501  502  0.00000000000E+00  0.00000000000E+00  0.23325574120E+03  0.23325574120E+03  0.00000000000E+00 0. -1.
         21   -1    0    0  502  503 -0.00000000000E+00 -0.00000000000E+00 -0.25979489675E+03  0.25979489675E+03  0.00000000000E+00 0.  1.
         -6    2    1    2    0  503  0.14513871518E+03  0.87368918284E+02  0.37614519065E+02  0.24384579754E+03  0.17131067220E+03 0.  0.
        -24    2    3    3    0    0  0.49728263271E+01  0.43924049322E+02 -0.33789454157E+01  0.91410607486E+02  0.79940169992E+02 0.  0.
          6    2    1    2  501    0 -0.14513871518E+03 -0.87368918284E+02 -0.64153674615E+02  0.24920484040E+03  0.17113966222E+03 0.  0.
         24    2    5    5    0    0 -0.77140203611E+02  0.18739976108E+02 -0.12714361761E+02  0.11300282885E+03  0.79411501777E+02 0.  0.
         14    1    6    6    0    0 -0.90484214550E+02  0.21801411099E+02  0.17454857099E+01  0.93089963632E+02  0.00000000000E+00 0. -1.
        -13    1    6    6    0    0  0.13344010939E+02 -0.30614349919E+01 -0.14459847471E+02  0.19912865214E+02  0.00000000000E+00 0.  1.
          5    1    5    5  501    0 -0.67998511572E+02 -0.10610889439E+03 -0.51439312854E+02  0.13620201156E+03  0.47000000000E+01 0. -1.
         11    1    4    4    0    0  0.25335646283E-01  0.65211931873E+02  0.97172557359E+01  0.65931947943E+02  0.00000000000E+00 0. -1.
        -12    1    4    4    0    0  0.49474906808E+01 -0.21287882551E+02 -0.13096201152E+02  0.25478659544E+02  0.00000000000E+00 0.  1.
         -5    1    3    3    0  503  0.14016588886E+03  0.43444868962E+02  0.40993464481E+02  0.15243519006E+03  0.47000000000E+01 0.  1.
</event>
<event>
12    1  0.9749377E-001  0.2573254E+03  0.7818608E-02  0.1108761E+00
         21   -1    0    0  503  502  0.00000000000E+00  0.00000000000E+00  0.23713424526E+03  0.23713424526E+03  0.00000000000E+00 0. -1.
         21   -1    0    0  501  503 -0.00000000000E+00 -0.00000000000E+00 -0.48579381125E+03  0.48579381125E+03  0.00000000000E+00 0.  1.
          6    2    1    2  501    0 -0.81927730152E+02 -0.21879807291E+03 -0.31146186260E+03  0.42550943926E+03  0.17165384169E+03 0.  0.
         24    2    3    3    0    0 -0.10983496512E+03 -0.13336696793E+03 -0.26043671310E+03  0.32205440872E+03  0.77725754734E+02 0.  0.
         -6    2    1    2    0  502  0.81927730152E+02  0.21879807291E+03  0.62802296603E+02  0.29741861725E+03  0.17299987212E+03 0.  0.
        -24    2    5    5    0    0  0.36055213434E+02  0.90379377138E+02  0.95686409196E+02  0.15706512041E+03  0.77750581464E+02 0.  0.
         12    1    4    4    0    0 -0.83793633120E+02 -0.79378860575E+02 -0.10725486726E+03  0.15756263202E+03  0.00000000000E+00 0. -1.
        -11    1    4    4    0    0 -0.26041331999E+02 -0.53988107355E+02 -0.15318184584E+03  0.16449177670E+03  0.00000000000E+00 0.  1.
          5    1    3    3  501    0  0.27907234967E+02 -0.85431104980E+02 -0.51025149498E+02  0.10345503053E+03  0.47000000000E+01 0. -1.
         11    1    6    6    0    0  0.19964229762E+02 -0.10672561507E+01 -0.44740339522E+01  0.20487227374E+02  0.00000000000E+00 0. -1.
        -12    1    6    6    0    0  0.16090983672E+02  0.91446633289E+02  0.10016044315E+03  0.13657789304E+03  0.00000000000E+00 0.  1.
         -5    1    5    5    0  502  0.45872516719E+02  0.12841869577E+03 -0.32884112593E+02  0.14035349684E+03  0.47000000000E+01 0.  1.
</event>
<event>
12    1  0.9749377E-001  0.2414624E+03  0.7818608E-02  0.1118822E+00
         21   -1    0    0  503  502  0.00000000000E+00  0.00000000000E+00  0.38926432334E+03  0.38926432334E+03  0.00000000000E+00 0.  1.
         21   -1    0    0  501  503 -0.00000000000E+00 -0.00000000000E+00 -0.18370708203E+03  0.18370708203E+03  0.00000000000E+00 0. -1.
          6    2    1    2  501    0 -0.14509171131E+03  0.14321841986E+03  0.76918375198E+02  0.27714630659E+03  0.17126154950E+03 0.  0.
         24    2    3    3    0    0 -0.10159403968E+03  0.22498601146E+02  0.72681190010E+02  0.14867309613E+03  0.77418332331E+02 0.  0.
         -6    2    1    2    0  502  0.14509171131E+03 -0.14321841986E+03  0.12863886611E+03  0.29582509878E+03  0.17146839568E+03 0.  0.
        -24    2    5    5    0    0  0.89521666129E+02 -0.11667196169E+03  0.15677152513E+03  0.22795551158E+03  0.75894194899E+02 0.  0.
         14    1    4    4    0    0 -0.11368666833E+03  0.18209934941E+02  0.57186366283E+02  0.12855559410E+03  0.00000000000E+00 0. -1.
        -13    1    4    4    0    0  0.12092628653E+02  0.42886662049E+01  0.15494823727E+02  0.20117502029E+02  0.00000000000E+00 0.  1.
          5    1    3    3  501    0 -0.43497671639E+02  0.12071981871E+03  0.42371851880E+01  0.12847321046E+03  0.47000000000E+01 0. -1.
         13    1    6    6    0    0 -0.10908792348E+02 -0.30726637054E+02  0.23066888577E+02  0.39940071654E+02  0.00000000000E+00 0. -1.
        -14    1    6    6    0    0  0.10043045848E+03 -0.85945324638E+02  0.13370463655E+03  0.18801543993E+03  0.00000000000E+00 0.  1.
         -5    1    5    5    0  502  0.55570045185E+02 -0.26546458164E+02 -0.28132659017E+02  0.67869587197E+02  0.47000000000E+01 0.  1.
</event>
<event>
12    1  0.9749377E-001  0.4171663E+03  0.7818608E-02  0.1037993E+00
         21   -1    0    0  503  502  0.00000000000E+00  0.00000000000E+00  0.11877148461E+03  0.11877148461E+03  0.00000000000E+00 0.  1.
         21   -1    0    0  501  503 -0.00000000000E+00 -0.00000000000E+00 -0.28322965401E+04  0.28322965401E+04  0.00000000000E+00 0. -1.
          6    2    1    2  501    0 -0.71750607672E+02  0.40105001252E+03 -0.23113566565E+04  0.23532170643E+04  0.17108973101E+03 0.  0.
         24    2    3    3    0    0 -0.19168429349E+02  0.26810279232E+03 -0.18184596237E+04  0.18399827867E+04  0.80589802223E+02 0.  0.
         -6    2    1    2    0  502  0.71750607672E+02 -0.40105001252E+03 -0.40216839900E+03  0.59785096038E+03  0.17232842897E+03 0.  0.
        -24    2    5    5    0    0  0.64768119336E+02 -0.38192454070E+03 -0.41495762687E+03  0.57335212030E+03  0.80508121892E+02 0.  0.
         12    1    4    4    0    0 -0.26814920038E+02  0.27069320283E+03 -0.17439340948E+04  0.17650212398E+04  0.00000000000E+00 0. -1.
        -11    1    4    4    0    0  0.76464906888E+01 -0.25904105107E+01 -0.74525528979E+02  0.74961546916E+02  0.00000000000E+00 0.  1.
          5    1    3    3  501    0 -0.52582178324E+02  0.13294722020E+03 -0.49289703277E+03  0.51323427765E+03  0.47000000000E+01 0. -1.
         13    1    6    6    0    0  0.24095862174E+02 -0.46061210014E+02 -0.91798421654E+02  0.10549500396E+03  0.00000000000E+00 0. -1.
        -14    1    6    6    0    0  0.40672257162E+02 -0.33586333068E+03 -0.32315920521E+03  0.46785711634E+03  0.00000000000E+00 0.  1.
         -5    1    5    5    0  502  0.69824883365E+01 -0.19125471826E+02  0.12789227867E+02  0.24498840082E+02  0.47000000000E+01 0.  1.
</event>
<event>
12    1  0.1591038E+000  0.1455605E+04  0.7818608E-02  0.8914524E-01
         21   -1    0    0  503  502  0.00000000000E+00  0.00000000000E+00  0.11210187318E+04  0.11210187318E+04  0.00000000000E+00 0.  1.
         21   -1    0    0  501  503 -0.00000000000E+00 -0.00000000000E+00 -0.20576416610E+04  0.20576416610E+04  0.00000000000E+00 0. -1.
          6    2    1    2  501    0  0.14000725974E+04  0.36702498974E+03 -0.21331798105E+02  0.14576354741E+04  0.17127611825E+03 0.  0.
         24    2    3    3    0    0  0.13473188516E+04  0.32266496533E+03 -0.11085190295E+02  0.13877938502E+04  0.80424631716E+02 0.  0.
         -6    2    1    2    0  502 -0.14000725974E+04 -0.36702498974E+03 -0.91529113106E+03  0.17210249187E+04  0.17105056275E+03 0.  0.
        -24    2    5    5    0    0 -0.11308146119E+04 -0.35432310621E+03 -0.75486191635E+03  0.14073039861E+04  0.80009039906E+02 0.  0.
         14    1    4    4    0    0  0.73715514671E+03  0.18861445225E+03 -0.44343182817E+02  0.76219383347E+03  0.00000000000E+00 0. -1.
        -13    1    4    4    0    0  0.61016370493E+03  0.13405051308E+03  0.33257992523E+02  0.62560001673E+03  0.00000000000E+00 0.  1.
          5    1    3    3  501    0  0.52753745746E+02  0.44360024409E+02 -0.10246607810E+02  0.69841623888E+02  0.47000000000E+01 0. -1.
         11    1    6    6    0    0 -0.60160519737E+03 -0.15353881016E+03 -0.36879646448E+03  0.72215913201E+03  0.00000000000E+00 0. -1.
        -12    1    6    6    0    0 -0.52920941452E+03 -0.20078429604E+03 -0.38606545187E+03  0.68514485409E+03  0.00000000000E+00 0.  1.
         -5    1    5    5    0  502 -0.26925798548E+03 -0.12701883529E+02 -0.16042921471E+03  0.31372093255E+03  0.47000000000E+01 0.  1.
</event>
<event>
12    1  0.9749377E-001  0.2460049E+03  0.7818608E-02  0.1115856E+00
         21   -1    0    0  503  502  0.00000000000E+00  0.00000000000E+00  0.55959526826E+03  0.55959526826E+03  0.00000000000E+00 0.  1.
         21   -1    0    0  501  503 -0.00000000000E+00 -0.00000000000E+00 -0.14372040620E+03  0.14372040620E+03  0.00000000000E+00 0. -1.
          6    2    1    2  501    0  0.91254386851E+02 -0.17955765450E+03  0.84026492464E+02  0.27792372739E+03  0.17208379471E+03 0.  0.
         24    2    3    3    0    0 -0.16982217959E+00 -0.96067066141E+02 -0.78930915603E+01  0.12365006059E+03  0.77447572931E+02 0.  0.
         -6    2    1    2    0  502 -0.91254386851E+02  0.17955765450E+03  0.33184836959E+03  0.42539194707E+03  0.17397314109E+03 0.  0.
        -24    2    5    5    0    0 -0.39569357559E+01  0.15008092016E+03  0.20155749669E+03  0.26574382025E+03  0.86338945970E+02 0.  0.
         14    1    4    4    0    0  0.12046751481E+02 -0.95376967300E+02 -0.27985274244E+02  0.10012525000E+03  0.00000000000E+00 0. -1.
        -13    1    4    4    0    0 -0.12216573660E+02 -0.69009884160E+00  0.20092182684E+02  0.23524810592E+02  0.00000000000E+00 0.  1.
          5    1    3    3  501    0  0.91424209031E+02 -0.83490588363E+02  0.91919584025E+02  0.15427366680E+03  0.47000000000E+01 0. -1.
         13    1    6    6    0    0  0.34530028480E+02  0.55459651221E+02  0.11312154428E+03  0.13063146467E+03  0.00000000000E+00 0. -1.
        -14    1    6    6    0    0 -0.38486964236E+02  0.94621268943E+02  0.88435952402E+02  0.13511235558E+03  0.00000000000E+00 0.  1.
         -5    1    5    5    0  502 -0.87297451096E+02  0.29476734340E+02  0.13029087290E+03  0.15964812682E+03  0.47000000000E+01 0.  1.
</event>
<event>
12    1  0.9749377E-001  0.1854508E+03  0.7818608E-02  0.1162630E+00
         21   -1    0    0  501  502  0.00000000000E+00  0.00000000000E+00  0.24297021246E+04  0.24297021246E+04  0.00000000000E+00 0.  1.
         21   -1    0    0  502  503 -0.00000000000E+00 -0.00000000000E+00 -0.30133665139E+02  0.30133665139E+02  0.00000000000E+00 0. -1.
         -6    2    1    2    0  503  0.81006362355E+02  0.99707994110E+02  0.19281790994E+04  0.19414539882E+04  0.18672234458E+03 0.  0.
        -24    2    3    3    0    0  0.23403677895E+02  0.31862928423E+01  0.28251325927E+03  0.29194719660E+03  0.69724739753E+02 0.  0.
          6    2    1    2  501    0 -0.81006362355E+02 -0.99707994110E+02  0.47138936009E+03  0.51838180160E+03  0.17322831349E+03 0.  0.
         24    2    5    5    0    0 -0.12053117111E+03 -0.80998216323E+02  0.31613854679E+03  0.35702142443E+03  0.80201262318E+02 0.  0.
         12    1    6    6    0    0 -0.70211149661E+02 -0.57825716235E+02  0.10587073616E+03  0.13957804902E+03  0.00000000000E+00 0. -1.
        -11    1    6    6    0    0 -0.50320021449E+02 -0.23172500088E+02  0.21026781063E+03  0.21744337540E+03  0.00000000000E+00 0.  1.
          5    1    5    5  501    0  0.39524808755E+02 -0.18709777787E+02  0.15525081330E+03  0.16136037718E+03  0.47000000000E+01 0. -1.
         11    1    4    4    0    0 -0.22006768607E+02  0.51754871771E+01  0.47842490576E+02  0.52914907508E+02  0.00000000000E+00 0. -1.
        -12    1    4    4    0    0  0.45410446501E+02 -0.19891943348E+01  0.23467076870E+03  0.23903228909E+03  0.00000000000E+00 0.  1.
         -5    1    3    3    0  503  0.57602684460E+02  0.96521701268E+02  0.16456658401E+04  0.16495067916E+04  0.47000000000E+01 0.  1.
</event>
<event>
12    1  0.9749377E-001  0.4397402E+03  0.7818608E-02  0.1030827E+00
         21   -1    0    0  501  502  0.00000000000E+00  0.00000000000E+00  0.34992724677E+03  0.34992724677E+03  0.00000000000E+00 0.  1.
         21   -1    0    0  502  503 -0.00000000000E+00 -0.00000000000E+00 -0.56320877960E+03  0.56320877960E+03  0.00000000000E+00 0. -1.
         -6    2    1    2    0  503  0.28036177154E+03 -0.29803869240E+03 -0.10853671197E+03  0.45680819843E+03  0.17165001369E+03 0.  0.
        -24    2    3    3    0    0  0.55659808115E+02 -0.56337634087E+02 -0.15427025184E+02  0.11387689667E+03  0.80361752311E+02 0.  0.
          6    2    1    2  501    0 -0.28036177154E+03  0.29803869240E+03 -0.10474482086E+03  0.45632782794E+03  0.17272470567E+03 0.  0.
         24    2    5    5    0    0 -0.27732890288E+03  0.21314477172E+03 -0.83884122822E+02  0.36872968421E+03  0.81135811318E+02 0.  0.
         14    1    6    6    0    0 -0.88017581011E+02  0.23567813968E+02 -0.23314922883E+02  0.94053825288E+02  0.00000000000E+00 0. -1.
        -13    1    6    6    0    0 -0.18931132187E+03  0.18957695775E+03 -0.60569199940E+02  0.27467585893E+03  0.00000000000E+00 0.  1.
          5    1    5    5  501    0 -0.30328686581E+01  0.84893920688E+02 -0.20860698040E+02  0.87598143729E+02  0.47000000000E+01 0. -1.
         11    1    4    4    0    0  0.59959898242E+02 -0.69314453434E+02 -0.27449057521E+02  0.95672010593E+02  0.00000000000E+00 0. -1.
        -12    1    4    4    0    0 -0.43000901269E+01  0.12976819347E+02  0.12022032337E+02  0.18204886074E+02  0.00000000000E+00 0.  1.
         -5    1    3    3    0  503  0.22470196342E+03 -0.24170105832E+03 -0.93109686785E+02  0.34293130176E+03  0.47000000000E+01 0.  1.
</event>
<event>
12    1  0.9749377E-001  0.1004175E+04  0.7818608E-02  0.9303978E-01
         21   -1    0    0  503  502  0.00000000000E+00  0.00000000000E+00  0.15318849700E+04  0.15318849700E+04  0.00000000000E+00 0. -1.
         21   -1    0    0  501  503 -0.00000000000E+00 -0.00000000000E+00 -0.67304048616E+03  0.67304048616E+03  0.00000000000E+00 0.  1.
          6    2    1    2  501    0 -0.99344475391E+03  0.37841801595E+02  0.30619142666E+03  0.10541613202E+04  0.17069978969E+03 0.  0.
         24    2    3    3    0    0 -0.70166535664E+03 -0.83344714579E+01  0.15842258072E+03  0.72382030443E+03  0.80089842651E+02 0.  0.
         -6    2    1    2    0  502  0.99344475391E+03 -0.37841801595E+02  0.55265305719E+03  0.11507641360E+04  0.17455146526E+03 0.  0.
        -24    2    5    5    0    0  0.47034386581E+03  0.43673803385E+02  0.24118601667E+03  0.53650593269E+03  0.80852754830E+02 0.  0.
         12    1    4    4    0    0 -0.44942008315E+03  0.26243130136E+02  0.78593594676E+02  0.45699460188E+03  0.00000000000E+00 0. -1.
        -11    1    4    4    0    0 -0.25224527349E+03 -0.34577601594E+02  0.79828986047E+02  0.26682570255E+03  0.00000000000E+00 0.  1.
          5    1    3    3  501    0 -0.29177939727E+03  0.46176273053E+02  0.14776884593E+03  0.33034101576E+03  0.47000000000E+01 0. -1.
         13    1    6    6    0    0  0.37140038379E+03  0.22371310133E+01  0.17616532782E+03  0.41106869567E+03  0.00000000000E+00 0. -1.
        -14    1    6    6    0    0  0.98943482014E+02  0.41436672372E+02  0.65020688852E+02  0.12543723701E+03  0.00000000000E+00 0.  1.
         -5    1    5    5    0  502  0.52310088811E+03 -0.81515604980E+02  0.31146704052E+03  0.61425820330E+03  0.47000000000E+01 0.  1.
</event>
<event>
12    1  0.9749377E-001  0.4468683E+03  0.7818608E-02  0.1028660E+00
         21   -1    0    0  503  502  0.00000000000E+00  0.00000000000E+00  0.30083540560E+03  0.30083540560E+03  0.00000000000E+00 0. -1.
         21   -1    0    0  501  503 -0.00000000000E+00 -0.00000000000E+00 -0.79761089735E+03  0.79761089735E+03  0.00000000000E+00 0.  1.
          6    2    1    2  501    0  0.37926014016E+03  0.21920800515E+03 -0.41048179783E+03  0.62006383551E+03  0.15522065045E+03 0.  0.
         24    2    3    3    0    0  0.34030514872E+03  0.22034612060E+03 -0.40813053924E+03  0.58073947815E+03  0.79547453214E+02 0.  0.
         -6    2    1    2    0  502 -0.37926014016E+03 -0.21920800515E+03 -0.86293693925E+02  0.47838246744E+03  0.17179284067E+03 0.  0.
        -24    2    5    5    0    0 -0.69572775402E+02 -0.52723390771E+02 -0.19742258996E+02  0.12050738559E+03  0.80697869739E+02 0.  0.
         12    1    4    4    0    0  0.21623510462E+03  0.11088337934E+03 -0.28474752771E+03  0.37434462574E+03  0.00000000000E+00 0. -1.
        -11    1    4    4    0    0  0.12407004410E+03  0.10946274126E+03 -0.12338301154E+03  0.20639485241E+03  0.00000000000E+00 0.  1.
          5    1    3    3  501    0  0.38954991441E+02 -0.11381154434E+01 -0.23512585835E+01  0.39324357361E+02  0.47000000000E+01 0. -1.
         11    1    6    6    0    0 -0.65002347388E+02 -0.30687413264E+02  0.20195645703E+02  0.74665163257E+02  0.00000000000E+00 0. -1.
        -12    1    6    6    0    0 -0.45704280139E+01 -0.22035977507E+02 -0.39937904699E+02  0.45842222335E+02  0.00000000000E+00 0.  1.
         -5    1    5    5    0  502 -0.30968736476E+03 -0.16648461438E+03 -0.66551434929E+02  0.35787508185E+03  0.47000000000E+01 0.  1.
</event>
<event>
12    1  0.9749377E-001  0.3300319E+03  0.7818608E-02  0.1071123E+00
         21   -1    0    0  501  502  0.00000000000E+00  0.00000000000E+00  0.25181868241E+03  0.25181868241E+03  0.00000000000E+00 0.  1.
         21   -1    0    0  502  503 -0.00000000000E+00 -0.00000000000E+00 -0.88723252238E+03  0.88723252238E+03  0.00000000000E+00 0. -1.
         -6    2    1    2    0  503 -0.28848996982E+03 -0.53691514704E+02  0.78754001187E+02  0.34857570453E+03  0.17086131115E+03 0.  0.
        -24    2    3    3    0    0 -0.12601741770E+03  0.31385422816E+02  0.12430266382E+02  0.15349535368E+03  0.80875693194E+02 0.  0.
          6    2    1    2  501    0  0.28848996982E+03  0.53691514704E+02 -0.71416784116E+03  0.79047550026E+03  0.16943013229E+03 0.  0.
         24    2    5    5    0    0  0.28579260863E+03  0.17579873511E+02 -0.58453914389E+03  0.65580176287E+03  0.80021711711E+02 0.  0.
         14    1    6    6    0    0  0.23174635058E+03  0.40054278091E+02 -0.42297211490E+03  0.48395880628E+03  0.00000000000E+00 0. -1.
        -13    1    6    6    0    0  0.54046258049E+02 -0.22474404580E+02 -0.16156702900E+03  0.17184295659E+03  0.00000000000E+00 0.  1.
          5    1    5    5  501    0  0.26973611918E+01  0.36111641193E+02 -0.12962869727E+03  0.13467373739E+03  0.47000000000E+01 0. -1.
         13    1    4    4    0    0  0.13649179659E+01  0.18265761475E+02 -0.13608451079E+02  0.22818654300E+02  0.00000000000E+00 0. -1.
        -14    1    4    4    0    0 -0.12738233567E+03  0.13119661341E+02  0.26038717460E+02  0.13067669938E+03  0.00000000000E+00 0.  1.
         -5    1    3    3    0  503 -0.16247255212E+03 -0.85076937520E+02  0.66323734806E+02  0.19508035085E+03  0.47000000000E+01 0.  1.
</event>
<event>
12    1  0.9749377E-001  0.6807053E+03  0.7818608E-02  0.9750810E-01
         21   -1    0    0  501  502  0.00000000000E+00  0.00000000000E+00  0.12454314862E+04  0.12454314862E+04  0.00000000000E+00 0. -1.
         21   -1    0    0  502  503 -0.00000000000E+00 -0.00000000000E+00 -0.50610435148E+03  0.50610435148E+03  0.00000000000E+00 0.  1.
         -6    2    1    2    0  503 -0.64564070120E+03  0.18289310341E+03  0.79757634918E+03  0.10564805405E+04  0.17239865826E+03 0.  0.
        -24    2    3    3    0    0 -0.29176509556E+03  0.13376824357E+03  0.32171759908E+03  0.46141345506E+03  0.79870826868E+02 0.  0.
          6    2    1    2  501    0  0.64564070120E+03 -0.18289310341E+03 -0.58249214470E+02  0.69505529717E+03  0.17148496381E+03 0.  0.
         24    2    5    5    0    0  0.54074856786E+03 -0.10521688259E+03 -0.12583907871E+02  0.55669574692E+03  0.79197183511E+02 0.  0.
         12    1    6    6    0    0  0.14957491750E+03 -0.36153192885E+02 -0.38507692734E+02  0.15862708375E+03  0.00000000000E+00 0. -1.
        -11    1    6    6    0    0  0.39117365037E+03 -0.69063689703E+02  0.25923784863E+02  0.39806866317E+03  0.00000000000E+00 0.  1.
          5    1    5    5  501    0  0.10489213334E+03 -0.77676220823E+02 -0.45665306599E+02  0.13835955025E+03  0.47000000000E+01 0. -1.
         11    1    4    4    0    0 -0.13781030799E+03  0.46580528225E+02  0.19724984590E+03  0.24508963320E+03  0.00000000000E+00 0. -1.
        -12    1    4    4    0    0 -0.15395478757E+03  0.87187715345E+02  0.12446775318E+03  0.21632382186E+03  0.00000000000E+00 0.  1.
         -5    1    3    3    0  503 -0.35387560564E+03  0.49124859841E+02  0.47585875011E+03  0.59506708544E+03  0.47000000000E+01 0.  1.
</event>
<event>
12    1  0.9749377E-001  0.5206762E+03  0.7818608E-02  0.1008519E+00
         21   -1    0    0  503  502  0.00000000000E+00  0.00000000000E+00  0.12713949925E+04  0.12713949925E+04  0.00000000000E+00 0. -1.
         21   -1    0    0  501  503 -0.00000000000E+00 -0.00000000000E+00 -0.24486018539E+03  0.24486018539E+03  0.00000000000E+00 0.  1.
          6    2    1    2  501    0 -0.47694290537E+03  0.16898440057E+03  0.73040977922E+03  0.90311975397E+03  0.16154436484E+03 0.  0.
         24    2    3    3    0    0 -0.43516459474E+03  0.16254009337E+03  0.71738994132E+03  0.85863871854E+03  0.82611225636E+02 0.  0.
         -6    2    1    2    0  502  0.47694290537E+03 -0.16898440057E+03  0.29612502789E+03  0.61313542392E+03  0.17948468822E+03 0.  0.
        -24    2    5    5    0    0  0.12800997141E+03 -0.66832598966E+02  0.45508226016E+02  0.17152467411E+03  0.80601278690E+02 0.  0.
         14    1    4    4    0    0 -0.32150402805E+03  0.81459936553E+02  0.48580442976E+03  0.58822317643E+03  0.00000000000E+00 0. -1.
        -13    1    4    4    0    0 -0.11366056669E+03  0.81080156819E+02  0.23158551156E+03  0.27041554211E+03  0.00000000000E+00 0.  1.
          5    1    3    3  501    0 -0.41778310623E+02  0.64443071988E+01  0.13019837903E+02  0.44481035429E+02  0.47000000000E+01 0. -1.
         11    1    6    6    0    0 -0.95720836984E+01  0.24622918792E+01 -0.24534168797E+01  0.10183659559E+02  0.00000000000E+00 0. -1.
        -12    1    6    6    0    0  0.13758205511E+03 -0.69294890845E+02  0.47961642895E+02  0.16134101455E+03  0.00000000000E+00 0.  1.
         -5    1    5    5    0  502  0.34893293395E+03 -0.10215180160E+03  0.25061680187E+03  0.44161074981E+03  0.47000000000E+01 0.  1.
</event>
<event>
12    1  0.9749377E-001  0.3260703E+03  0.7818608E-02  0.1072889E+00
         21   -1    0    0  503  502  0.00000000000E+00  0.00000000000E+00  0.62898626206E+03  0.62898626206E+03  0.00000000000E+00 0. -1.
         21   -1    0    0  501  503 -0.00000000000E+00 -0.00000000000E+00 -0.20573700983E+03  0.20573700983E+03  0.00000000000E+00 0.  1.
          6    2    1    2  501    0 -0.21757386573E+03  0.20560228891E+03  0.91204214105E+02  0.35642508835E+03  0.17061637283E+03 0.  0.
         24    2    3    3    0    0 -0.21288169312E+03  0.22269356504E+03  0.10297496336E+03  0.33463589971E+03  0.80413326727E+02 0.  0.
         -6    2    1    2    0  502  0.21757386573E+03 -0.20560228891E+03  0.33204503812E+03  0.47829818355E+03  0.17001340180E+03 0.  0.
        -24    2    5    5    0    0  0.10200483420E+03 -0.17039321405E+03  0.26279200058E+03  0.33896422067E+03  0.79989210105E+02 0.  0.
         12    1    4    4    0    0 -0.19447796151E+03  0.18065523393E+03  0.60809946813E+02  0.27231570041E+03  0.00000000000E+00 0. -1.
        -11    1    4    4    0    0 -0.18403731615E+02  0.42038331118E+02  0.42165016543E+02  0.62320199298E+02  0.00000000000E+00 0.  1.
          5    1    3    3  501    0 -0.46921726080E+01 -0.17091276133E+02 -0.11770749251E+02  0.21789188639E+02  0.47000000000E+01 0. -1.
         11    1    6    6    0    0  0.36201565704E+02 -0.94076124672E+02  0.74293923898E+02  0.12522163440E+03  0.00000000000E+00 0. -1.
        -12    1    6    6    0    0  0.65803268494E+02 -0.76317089381E+02  0.18849807668E+03  0.21374258627E+03  0.00000000000E+00 0.  1.
         -5    1    5    5    0  502  0.11556903153E+03 -0.35209074858E+02  0.69253037542E+02  0.13933396288E+03  0.47000000000E+01 0.  1.
</event>
<event>
12    1  0.9749377E-001  0.6119017E+03  0.7818608E-02  0.9881017E-01
         21   -1    0    0  501  502  0.00000000000E+00  0.00000000000E+00  0.10166491069E+04  0.10166491069E+04  0.00000000000E+00 0.  1.
         21   -1    0    0  502  503 -0.00000000000E+00 -0.00000000000E+00 -0.47262377555E+03  0.47262377555E+03  0.00000000000E+00 0. -1.
         -6    2    1    2    0  503  0.44759460789E+03 -0.40320119224E+03  0.59032343772E+03  0.86096071056E+03  0.17279887026E+03 0.  0.
        -24    2    3    3    0    0  0.45316451185E+03 -0.36769460236E+03  0.54135609147E+03  0.80003753965E+03  0.80226252962E+02 0.  0.
          6    2    1    2  501    0 -0.44759460789E+03  0.40320119224E+03 -0.46298106392E+02  0.62831217187E+03  0.17239645072E+03 0.  0.
         24    2    5    5    0    0 -0.44032131451E+03  0.39816795476E+03 -0.19171915415E+02  0.59939583543E+03  0.80543311164E+02 0.  0.
         12    1    6    6    0    0 -0.38892572312E+03  0.34313109023E+03 -0.42945400951E+02  0.52042912164E+03  0.00000000000E+00 0. -1.
        -11    1    6    6    0    0 -0.51395591397E+02  0.55036864530E+02  0.23773485536E+02  0.78966713790E+02  0.00000000000E+00 0.  1.
          5    1    5    5  501    0 -0.72732933788E+01  0.50332374776E+01 -0.27126190977E+02  0.28916336438E+02  0.47000000000E+01 0. -1.
         11    1    4    4    0    0  0.44091403832E+02 -0.37093775861E+02  0.24459217132E+02  0.62595953560E+02  0.00000000000E+00 0. -1.
        -12    1    4    4    0    0  0.40907310802E+03 -0.33060082650E+03  0.51689687434E+03  0.73744158609E+03  0.00000000000E+00 0.  1.
         -5    1    3    3    0  503 -0.55699039612E+01 -0.35506589883E+02  0.48967346247E+02  0.60923170910E+02  0.47000000000E+01 0.  1.
</event>
<event>
12    1  0.9749377E-001  0.4584314E+03  0.7818608E-02  0.1025237E+00
         21   -1    0    0  501  502  0.00000000000E+00  0.00000000000E+00  0.76452482113E+03  0.76452482113E+03  0.00000000000E+00 0.  1.
         21   -1    0    0  502  503 -0.00000000000E+00 -0.00000000000E+00 -0.35203736469E+03  0.35203736469E+03  0.00000000000E+00 0. -1.
         -6    2    1    2    0  503  0.38457955602E+03 -0.20328456138E+03 -0.35269215190E+02  0.46919444476E+03  0.17225986663E+03 0.  0.
        -24    2    3    3    0    0  0.13813029948E+03 -0.20341096791E+02 -0.10489675984E+02  0.16123070851E+03  0.79947283947E+02 0.  0.
          6    2    1    2  501    0 -0.38457955602E+03  0.20328456138E+03  0.44775667164E+03  0.64736774106E+03  0.17138526005E+03 0.  0.
         24    2    5    5    0    0 -0.39072949026E+03  0.20721518921E+03  0.40831028137E+03  0.60697740519E+03  0.78080825671E+02 0.  0.
         12    1    6    6    0    0 -0.39048262908E+03  0.19452883752E+03  0.39941155280E+03  0.59147928176E+03  0.00000000000E+00 0. -1.
        -11    1    6    6    0    0 -0.24686118535E+00  0.12686351695E+02  0.88987285648E+01  0.15498123430E+02  0.00000000000E+00 0.  1.
          5    1    5    5  501    0  0.61499342412E+01 -0.39306278347E+01  0.39446390270E+02  0.40390335869E+02  0.47000000000E+01 0. -1.
         13    1    4    4    0    0  0.24379824790E+02  0.20048687256E+02 -0.24161570873E+02  0.39750562569E+02  0.00000000000E+00 0. -1.
        -14    1    4    4    0    0  0.11375047469E+03 -0.40389784047E+02  0.13671894889E+02  0.12148014594E+03  0.00000000000E+00 0.  1.
         -5    1    3    3    0  503  0.24644925654E+03 -0.18294346459E+03 -0.24779539206E+02  0.30796373626E+03  0.47000000000E+01 0.  1.
</event>
<event>
12    1  0.9749377E-001  0.2654058E+03  0.7818608E-02  0.1103938E+00
         21   -1    0    0  503  502  0.00000000000E+00  0.00000000000E+00  0.51281035022E+02  0.51281035022E+02  0.00000000000E+00 0. -1.
         21   -1    0    0  501  503 -0.00000000000E+00 -0.00000000000E+00 -0.19548257744E+04  0.19548257744E+04  0.00000000000E+00 0.  1.
          6    2    1    2  501    0  0.20892934410E+03 -0.15283764659E+03 -0.11216348034E+04  0.11643942673E+04  0.17532415841E+03 0.  0.
         24    2    3    3    0    0  0.12965453543E+03 -0.11866387805E+03 -0.97760425318E+03  0.99640846094E+03  0.78919773836E+02 0.  0.
         -6    2    1    2    0  502 -0.20892934410E+03  0.15283764659E+03 -0.78190993593E+03  0.84171254206E+03  0.17345327473E+03 0.  0.
        -24    2    5    5    0    0 -0.35315767945E+02  0.41675930631E+02 -0.32690408133E+03  0.34216172519E+03  0.84995771264E+02 0.  0.
         14    1    4    4    0    0  0.38003262209E+02 -0.11865686274E+02 -0.39700644311E+03  0.39899769212E+03  0.00000000000E+00 0. -1.
        -13    1    4    4    0    0  0.91651273217E+02 -0.10679819177E+03 -0.58059781007E+03  0.59741076882E+03  0.00000000000E+00 0.  1.
          5    1    3    3  501    0  0.79274808670E+02 -0.34173768539E+02 -0.14403055025E+03  0.16798580640E+03  0.47000000000E+01 0. -1.
         13    1    6    6    0    0 -0.14478591172E+02  0.30951802330E+02 -0.33599934484E+02  0.47922847026E+02  0.00000000000E+00 0. -1.
        -14    1    6    6    0    0 -0.20837176772E+02  0.10724128301E+02 -0.29330414685E+03  0.29423887816E+03  0.00000000000E+00 0.  1.
         -5    1    5    5    0  502 -0.17361357615E+03  0.11116171595E+03 -0.45500585461E+03  0.49955081688E+03  0.47000000000E+01 0.  1.
</event>
<event>
12    1  0.9749377E-001  0.4107882E+03  0.7818608E-02  0.1040107E+00
         21   -1    0    0  503  502  0.00000000000E+00  0.00000000000E+00  0.18259707450E+03  0.18259707450E+03  0.00000000000E+00 0.  1.
         21   -1    0    0  501  503 -0.00000000000E+00 -0.00000000000E+00 -0.14372736085E+04  0.14372736085E+04  0.00000000000E+00 0. -1.
          6    2    1    2  501    0 -0.39802466275E+03  0.33314595509E+02 -0.19959116348E+03  0.47856702595E+03  0.17220996300E+03 0.  0.
         24    2    3    3    0    0 -0.26111576647E+03 -0.10437055959E+02 -0.66589606565E+02  0.28268502824E+03  0.84771893035E+02 0.  0.
         -6    2    1    2    0  502  0.39802466275E+03 -0.33314595509E+02 -0.10550853705E+04  0.11413036570E+04  0.17272927969E+03 0.  0.
        -24    2    5    5    0    0  0.13747345189E+03 -0.53005181221E+02 -0.51314339752E+03  0.53964108987E+03  0.78662953406E+02 0.  0.
         12    1    4    4    0    0 -0.20418730917E+03 -0.30011450114E+02 -0.79416892720E+02  0.22113386718E+03  0.00000000000E+00 0. -1.
        -11    1    4    4    0    0 -0.56928457301E+02  0.19574394155E+02  0.12827286155E+02  0.61551161056E+02  0.00000000000E+00 0.  1.
          5    1    3    3  501    0 -0.13690889628E+03  0.43751651468E+02 -0.13300155692E+03  0.19588199771E+03  0.47000000000E+01 0. -1.
         13    1    6    6    0    0  0.29691391971E+02 -0.24155706222E+02 -0.48476834447E+02  0.61766336934E+02  0.00000000000E+00 0. -1.
        -14    1    6    6    0    0  0.10778205992E+03 -0.28849474999E+02 -0.46466656308E+03  0.47787475293E+03  0.00000000000E+00 0.  1.
         -5    1    5    5    0  502  0.26055121086E+03  0.19690585712E+02 -0.54194197295E+03  0.60166256714E+03  0.47000000000E+01 0.  1.
</event>
<event>
12    1  0.1066646E+000  0.1184582E+04  0.7818608E-02  0.9126460E-01
         21   -1    0    0  503  502  0.00000000000E+00  0.00000000000E+00  0.59465197874E+03  0.59465197874E+03  0.00000000000E+00 0.  1.
         21   -1    0    0  501  503 -0.00000000000E+00 -0.00000000000E+00 -0.24590396740E+04  0.24590396740E+04  0.00000000000E+00 0. -1.
          6    2    1    2  501    0  0.23904499439E+03  0.11544733148E+04 -0.67045458236E+03  0.13671209813E+04  0.17192814369E+03 0.  0.
         24    2    3    3    0    0  0.16015269873E+03  0.85394046093E+03 -0.56297599701E+03  0.10383083798E+04  0.79240903174E+02 0.  0.
         -6    2    1    2    0  502 -0.23904499439E+03 -0.11544733148E+04 -0.11939331129E+04  0.16865706715E+04  0.17056731218E+03 0.  0.
        -24    2    5    5    0    0 -0.25679916655E+03 -0.11230801782E+04 -0.11533151989E+04  0.16320487072E+04  0.78690126411E+02 0.  0.
         12    1    4    4    0    0  0.29316524237E+02  0.13043253114E+03 -0.12185073275E+03  0.18088588902E+03  0.00000000000E+00 0. -1.
        -11    1    4    4    0    0  0.13083617449E+03  0.72350792979E+03 -0.44112526426E+03  0.85742249083E+03  0.00000000000E+00 0.  1.
          5    1    3    3  501    0  0.78892295659E+02  0.30053285382E+03 -0.10747858535E+03  0.32881260142E+03  0.47000000000E+01 0. -1.
         11    1    6    6    0    0 -0.10654757586E+03 -0.57622988234E+03 -0.54265810282E+03  0.79866831650E+03  0.00000000000E+00 0. -1.
        -12    1    6    6    0    0 -0.15025159069E+03 -0.54685029591E+03 -0.61065709603E+03  0.83338039068E+03  0.00000000000E+00 0.  1.
         -5    1    5    5    0  502  0.17754172168E+02 -0.31393136510E+02 -0.40617914011E+02  0.54521964271E+02  0.47000000000E+01 0.  1.
</event>
<event>
12    1  0.9749377E-001  0.3858373E+03  0.7818608E-02  0.1048797E+00
         21   -1    0    0  501  502  0.00000000000E+00  0.00000000000E+00  0.17092145420E+03  0.17092145420E+03  0.00000000000E+00 0.  1.
         21   -1    0    0  502  503 -0.00000000000E+00 -0.00000000000E+00 -0.18159667499E+04  0.18159667499E+04  0.00000000000E+00 0. -1.
         -6    2    1    2    0  503  0.57545674266E+02 -0.36331170754E+03 -0.14295151672E+03  0.43087133301E+03  0.17293949235E+03 0.  0.
        -24    2    3    3    0    0  0.48699557881E+02 -0.12546913764E+03 -0.46837131883E+01  0.15557618716E+03  0.77896478773E+02 0.  0.
          6    2    1    2  501    0 -0.57545674266E+02  0.36331170754E+03 -0.15020937790E+04  0.15560168711E+04  0.17203453377E+03 0.  0.
         24    2    5    5    0    0 -0.39065007502E+02  0.15396688643E+03 -0.46180889504E+03  0.49470564486E+03  0.78957853258E+02 0.  0.
         12    1    6    6    0    0 -0.34938563649E+02  0.35729656811E+02 -0.21870745794E+03  0.22434407450E+03  0.00000000000E+00 0. -1.
        -11    1    6    6    0    0 -0.41264438531E+01  0.11823722962E+03 -0.24310143710E+03  0.27036157036E+03  0.00000000000E+00 0.  1.
          5    1    5    5  501    0 -0.18480666764E+02  0.20934482111E+03 -0.10402848839E+04  0.10613112262E+04  0.47000000000E+01 0. -1.
         11    1    4    4    0    0  0.44645185045E+01  0.10891693094E+02 -0.32545139714E+01  0.12212811515E+02  0.00000000000E+00 0. -1.
        -12    1    4    4    0    0  0.44235039377E+02 -0.13636083073E+03 -0.14291992169E+01  0.14336337565E+03  0.00000000000E+00 0.  1.
         -5    1    3    3    0  503  0.88461163849E+01 -0.23784256990E+03 -0.13826780353E+03  0.27529514585E+03  0.47000000000E+01 0.  1.
</event>
<event>
12    1  0.9749377E-001  0.2904237E+03  0.7818608E-02  0.1090128E+00
         21   -1    0    0  501  502  0.00000000000E+00  0.00000000000E+00  0.76278400370E+03  0.76278400370E+03  0.00000000000E+00 0. -1.
         21   -1    0    0  502  503 -0.00000000000E+00 -0.00000000000E+00 -0.16951502394E+03  0.16951502394E+03  0.00000000000E+00 0.  1.
         -6    2    1    2    0  503  0.30407011755E+02 -0.26133130592E+03  0.52387607473E+03  0.61036159619E+03  0.16993086420E+03 0.  0.
        -24    2    3    3    0    0 -0.20629325613E+02 -0.56153939168E+02  0.18607543501E+03  0.21182198491E+03  0.81643443205E+02 0.  0.
          6    2    1    2  501    0 -0.30407011755E+02  0.26133130592E+03  0.69392905030E+02  0.32193743145E+03  0.17207468343E+03 0.  0.
         24    2    5    5    0    0 -0.49704846588E+02  0.67701326079E+02  0.22772186603E+01  0.11604527307E+03  0.80045476763E+02 0.  0.
         12    1    6    6    0    0 -0.38829554577E+02  0.42937498355E+02  0.39464228001E+02  0.70062745917E+02  0.00000000000E+00 0. -1.
        -11    1    6    6    0    0 -0.10875292010E+02  0.24763827724E+02 -0.37187009341E+02  0.45982527155E+02  0.00000000000E+00 0.  1.
          5    1    5    5  501    0  0.19297834833E+02  0.19362997984E+03  0.67115686369E+02  0.20589215837E+03  0.47000000000E+01 0. -1.
         13    1    4    4    0    0  0.15907981619E+02  0.65548342292E+01  0.69575889298E+01  0.18559034853E+02  0.00000000000E+00 0. -1.
        -14    1    4    4    0    0 -0.36537307232E+02 -0.62708773397E+02  0.17911784608E+03  0.19326295006E+03  0.00000000000E+00 0.  1.
         -5    1    3    3    0  503  0.51036337368E+02 -0.20517736675E+03  0.33780063972E+03  0.39853961127E+03  0.47000000000E+01 0.  1.
</event>
<event>
12    1  0.9749377E-001  0.8592239E+03  0.7818608E-02  0.9478040E-01
         21   -1    0    0  503  502  0.00000000000E+00  0.00000000000E+00  0.27323904634E+04  0.27323904634E+04  0.00000000000E+00 0.  1.
         21   -1    0    0  501  503 -0.00000000000E+00 -0.00000000000E+00 -0.27816188619E+03  0.27816188619E+03  0.00000000000E+00 0. -1.
          6    2    1    2  501    0 -0.20380913403E+03  0.82779109199E+03  0.11235503472E+04  0.14208903365E+04  0.17259116586E+03 0.  0.
         24    2    3    3    0    0 -0.82951005013E+02  0.21972758841E+03  0.36795921243E+03  0.44350199776E+03  0.78351500707E+02 0.  0.
         -6    2    1    2    0  502  0.20380913403E+03 -0.82779109199E+03  0.13306782300E+04  0.15896620131E+04  0.17188516221E+03 0.  0.
        -24    2    5    5    0    0  0.83552946962E+02 -0.48270278610E+03  0.65804766258E+03  0.82415469137E+03  0.78874295037E+02 0.  0.
         14    1    4    4    0    0 -0.65999591763E+02  0.10503837309E+03  0.24432085350E+03  0.27401037460E+03  0.00000000000E+00 0. -1.
        -13    1    4    4    0    0 -0.16951413250E+02  0.11468921532E+03  0.12363835893E+03  0.16949162316E+03  0.00000000000E+00 0.  1.
          5    1    3    3  501    0 -0.12085812901E+03  0.60806350358E+03  0.75559113475E+03  0.97738833871E+03  0.47000000000E+01 0. -1.
         13    1    6    6    0    0  0.67472768615E+02 -0.22727409258E+03  0.27007634264E+03  0.35937072574E+03  0.00000000000E+00 0. -1.
        -14    1    6    6    0    0  0.16080178347E+02 -0.25542869352E+03  0.38797131995E+03  0.46478396563E+03  0.00000000000E+00 0.  1.
         -5    1    5    5    0  502  0.12025618706E+03 -0.34508830589E+03  0.67263056746E+03  0.76550732176E+03  0.47000000000E+01 0.  1.
</event>
<event>
12    1  0.9749377E-001  0.4892616E+03  0.7818608E-02  0.1016620E+00
         21   -1    0    0  501  502  0.00000000000E+00  0.00000000000E+00  0.17622496317E+03  0.17622496317E+03  0.00000000000E+00 0.  1.
         21   -1    0    0  502  503 -0.00000000000E+00 -0.00000000000E+00 -0.14744760957E+04  0.14744760957E+04  0.00000000000E+00 0. -1.
         -6    2    1    2    0  503  0.13827371298E+03 -0.45569314025E+03 -0.54894299020E+03  0.74631401138E+03  0.16991274034E+03 0.  0.
        -24    2    3    3    0    0  0.95637236118E+02 -0.21950108438E+03 -0.20190116008E+03  0.32433690505E+03  0.84280143341E+02 0.  0.
          6    2    1    2  501    0 -0.13827371298E+03  0.45569314025E+03 -0.74930814228E+03  0.90438704744E+03  0.17227124464E+03 0.  0.
         24    2    5    5    0    0 -0.12391761121E+03  0.19204542743E+03 -0.36374345320E+03  0.43705586552E+03  0.80445691477E+02 0.  0.
         12    1    6    6    0    0 -0.68661938706E+01  0.63749557680E+01 -0.68647582369E+02  0.69284018680E+02  0.00000000000E+00 0. -1.
        -11    1    6    6    0    0 -0.11705141734E+03  0.18567047167E+03 -0.29509587083E+03  0.36777184684E+03  0.00000000000E+00 0.  1.
          5    1    5    5  501    0 -0.14356101768E+02  0.26364771281E+03 -0.38556468908E+03  0.46733118192E+03  0.47000000000E+01 0. -1.
         11    1    4    4    0    0  0.19576030148E+02 -0.11285372505E+03 -0.13566561502E+03  0.17755095976E+03  0.00000000000E+00 0. -1.
        -12    1    4    4    0    0  0.76061205969E+02 -0.10664735932E+03 -0.66235545060E+02  0.14678594529E+03  0.00000000000E+00 0.  1.
         -5    1    3    3    0  503  0.42636476860E+02 -0.23619205587E+03 -0.34704183012E+03  0.42197710633E+03  0.47000000000E+01 0.  1.
</event>
<event>
12    1  0.9749377E-001  0.8598838E+03  0.7818608E-02  0.9477167E-01
         21   -1    0    0  501  502  0.00000000000E+00  0.00000000000E+00  0.22337667566E+04  0.22337667566E+04  0.00000000000E+00 0.  1.
         21   -1    0    0  502  503 -0.00000000000E+00 -0.00000000000E+00 -0.34029990048E+03  0.34029990048E+03  0.00000000000E+00 0. -1.
         -6    2    1    2    0  503  0.84999736437E+03 -0.53641181806E+01  0.80854705988E+03  0.11856730429E+04  0.17189509405E+03 0.  0.
        -24    2    3    3    0    0  0.72225876840E+03  0.30445339464E+02  0.62439223530E+03  0.95866080626E+03  0.81118621331E+02 0.  0.
          6    2    1    2  501    0 -0.84999736437E+03  0.53641181806E+01  0.10849197962E+04  0.13883936142E+04  0.16751588123E+03 0.  0.
         24    2    5    5    0    0 -0.67684880559E+03 -0.40044360505E+02  0.91430356680E+03  0.11410591421E+04  0.79605885721E+02 0.  0.
         14    1    6    6    0    0 -0.35959400522E+03  0.16568107857E+02  0.46175945173E+03  0.58549478397E+03  0.00000000000E+00 0. -1.
        -13    1    6    6    0    0 -0.31725480037E+03 -0.56612468362E+02  0.45254411507E+03  0.55556435812E+03  0.00000000000E+00 0.  1.
          5    1    5    5  501    0 -0.17314855879E+03  0.45408478686E+02  0.17061622944E+03  0.24733447211E+03  0.47000000000E+01 0. -1.
         11    1    4    4    0    0  0.29126009744E+02 -0.11497947670E+02  0.41850349908E+02  0.52268336798E+02  0.00000000000E+00 0. -1.
        -12    1    4    4    0    0  0.69313275866E+03  0.41943287134E+02  0.58254188539E+03  0.90639246946E+03  0.00000000000E+00 0.  1.
         -5    1    3    3    0  503  0.12773859597E+03 -0.35809457645E+02  0.18415482458E+03  0.22701223662E+03  0.47000000000E+01 0.  1.
</event>
<event>
12    1  0.9749377E-001  0.3699689E+03  0.7818608E-02  0.1054705E+00
         21   -1    0    0  501  502  0.00000000000E+00  0.00000000000E+00  0.27933275829E+04  0.27933275829E+04  0.00000000000E+00 0.  1.
         21   -1    0    0  502  503 -0.00000000000E+00 -0.00000000000E+00 -0.51307967809E+02  0.51307967809E+02  0.00000000000E+00 0. -1.
         -6    2    1    2    0  503  0.18318808017E+03  0.27908687757E+03  0.11847477095E+04  0.12427163863E+04  0.17108338189E+03 0.  0.
        -24    2    3    3    0    0  0.29615336301E+02  0.53375426466E+02  0.39668453748E+03  0.40869246579E+03  0.77103210197E+02 0.  0.
          6    2    1    2  501    0 -0.18318808017E+03 -0.27908687757E+03  0.15572719056E+04  0.16019191645E+04  0.17205192110E+03 0.  0.
         24    2    5    5    0    0 -0.16093096045E+02 -0.67412021541E+02  0.46917942137E+03  0.48089538120E+03  0.79546651954E+02 0.  0.
         12    1    6    6    0    0  0.32005610444E+02 -0.24605923333E+02  0.15379641729E+03  0.15900675625E+03  0.00000000000E+00 0. -1.
        -11    1    6    6    0    0 -0.48098706489E+02 -0.42806098208E+02  0.31538300408E+03  0.32188862495E+03  0.00000000000E+00 0.  1.
          5    1    5    5  501    0 -0.16709498413E+03 -0.21167485603E+03  0.10880924842E+04  0.11210237833E+04  0.47000000000E+01 0. -1.
         13    1    4    4    0    0  0.36852097182E+02 -0.16762506521E+01  0.94427940040E+02  0.10137811767E+03  0.00000000000E+00 0. -1.
        -14    1    4    4    0    0 -0.72367608813E+01  0.55051677118E+02  0.30225659744E+03  0.30731434811E+03  0.00000000000E+00 0.  1.
         -5    1    3    3    0  503  0.15357274387E+03  0.22571145110E+03  0.78806317203E+03  0.83402392048E+03  0.47000000000E+01 0.  1.
</event>
<event>
12    1  0.9749377E-001  0.2782224E+03  0.7818608E-02  0.1096664E+00
         21   -1    0    0  503  502  0.00000000000E+00  0.00000000000E+00  0.56455944283E+03  0.56455944283E+03  0.00000000000E+00 0. -1.
         21   -1    0    0  501  503 -0.00000000000E+00 -0.00000000000E+00 -0.15631653252E+03  0.15631653252E+03  0.00000000000E+00 0.  1.
          6    2    1    2  501    0 -0.83106833196E+02 -0.22472579884E+03  0.25390286719E+03  0.38830127987E+03  0.17000819862E+03 0.  0.
         24    2    3    3    0    0 -0.55425549135E+01 -0.13933339652E+03  0.75859596495E+02  0.17609954595E+03  0.76235532426E+02 0.  0.
         -6    2    1    2    0  502  0.83106833196E+02  0.22472579884E+03  0.15434004313E+03  0.33257469548E+03  0.17139617491E+03 0.  0.
        -24    2    5    5    0    0  0.49147011395E+02  0.54729172057E+02  0.10660030252E+03  0.15270447714E+03  0.80896982870E+02 0.  0.
         12    1    4    4    0    0  0.29145981683E+02 -0.22959375942E+02  0.23048012056E+02  0.43678736836E+02  0.00000000000E+00 0. -1.
        -11    1    4    4    0    0 -0.34688536596E+02 -0.11637402057E+03  0.52811584440E+02  0.13242080912E+03  0.00000000000E+00 0.  1.
          5    1    3    3  501    0 -0.77564278282E+02 -0.85392402321E+02  0.17804327069E+03  0.21220173392E+03  0.47000000000E+01 0. -1.
         13    1    6    6    0    0 -0.22282030423E+02  0.79933617834E+01  0.18595696841E+02  0.30102867859E+02  0.00000000000E+00 0. -1.
        -14    1    6    6    0    0  0.71429041818E+02  0.46735810273E+02  0.88004605678E+02  0.12260160928E+03  0.00000000000E+00 0.  1.
         -5    1    5    5    0  502  0.33959821800E+02  0.16999662678E+03  0.47739740609E+02  0.17987021834E+03  0.47000000000E+01 0.  1.
</event>
<event>
12    1  0.9749377E-001  0.6717162E+03  0.7818608E-02  0.9766863E-01
         21   -1    0    0  501  502  0.00000000000E+00  0.00000000000E+00  0.62792090121E+03  0.62792090121E+03  0.00000000000E+00 0.  1.
         21   -1    0    0  502  503 -0.00000000000E+00 -0.00000000000E+00 -0.11723512090E+04  0.11723512090E+04  0.00000000000E+00 0. -1.
         -6    2    1    2    0  503  0.18577046601E+03 -0.62919213830E+03 -0.82358126207E+03  0.10670750239E+04  0.17311729659E+03 0.  0.
        -24    2    3    3    0    0  0.36063996117E+02 -0.12599535546E+03 -0.20752295504E+03  0.25764994577E+03  0.78372675544E+02 0.  0.
          6    2    1    2  501    0 -0.18577046601E+03  0.62919213830E+03  0.27915095427E+03  0.73319708635E+03  0.17105349811E+03 0.  0.
         24    2    5    5    0    0 -0.18760229358E+03  0.49906417545E+03  0.26772906090E+03  0.60247145016E+03  0.83864929707E+02 0.  0.
         14    1    6    6    0    0 -0.11718520740E+03  0.40817362562E+03  0.21482011619E+03  0.47590520464E+03  0.00000000000E+00 0. -1.
        -13    1    6    6    0    0 -0.70417086180E+02  0.90890549828E+02  0.52908944705E+02  0.12656624552E+03  0.00000000000E+00 0.  1.
          5    1    5    5  501    0  0.18318275711E+01  0.13012796286E+03  0.11421893374E+02  0.13072563619E+03  0.47000000000E+01 0. -1.
         11    1    4    4    0    0 -0.63799744037E+01 -0.96861522028E+02 -0.16236517014E+03  0.18917004783E+03  0.00000000000E+00 0. -1.
        -12    1    4    4    0    0  0.42443970520E+02 -0.29133833433E+02 -0.45157784905E+02  0.68479897938E+02  0.00000000000E+00 0.  1.
         -5    1    3    3    0  503  0.14970646989E+03 -0.50319678284E+03 -0.61605830702E+03  0.80942507809E+03  0.47000000000E+01 0.  1.
</event>
<event>
12    1  0.9749377E-001  0.5013217E+03  0.7818608E-02  0.1013435E+00
         21   -1    0    0  501  502  0.00000000000E+00  0.00000000000E+00  0.11039508813E+04  0.11039508813E+04  0.00000000000E+00 0.  1.
         21   -1    0    0  502  503 -0.00000000000E+00 -0.00000000000E+00 -0.29763967424E+03  0.29763967424E+03  0.00000000000E+00 0. -1.
         -6    2    1    2    0  503 -0.12773358440E+03 -0.46550762793E+03  0.71735481199E+03  0.88146136541E+03  0.17135633106E+03 0.  0.
        -24    2    3    3    0    0 -0.13105112190E+03 -0.47650387722E+03  0.69935310928E+03  0.85959644250E+03  0.74705628681E+02 0.  0.
          6    2    1    2  501    0  0.12773358440E+03  0.46550762793E+03  0.88956395035E+02  0.52012919009E+03  0.17206950317E+03 0.  0.
         24    2    5    5    0    0  0.12931625440E+03  0.37268984299E+03  0.12265426982E+03  0.42125916019E+03  0.82430561240E+02 0.  0.
         14    1    6    6    0    0  0.56535244280E+01  0.13371299322E+03  0.45133521961E+02  0.14123796125E+03  0.00000000000E+00 0. -1.
        -13    1    6    6    0    0  0.12366272997E+03  0.23897684976E+03  0.77520747855E+02  0.28002119894E+03  0.00000000000E+00 0.  1.
          5    1    5    5  501    0 -0.15826700032E+01  0.92817784944E+02 -0.33697874782E+02  0.98870029893E+02  0.47000000000E+01 0. -1.
         13    1    4    4    0    0 -0.79410234234E+02 -0.31248984022E+03  0.39350985024E+03  0.50872968046E+03  0.00000000000E+00 0. -1.
        -14    1    4    4    0    0 -0.51640887662E+02 -0.16401403699E+03  0.30584325904E+03  0.35086676204E+03  0.00000000000E+00 0.  1.
         -5    1    3    3    0  503  0.33175374979E+01  0.10996249288E+02  0.18001702709E+02  0.21864922910E+02  0.47000000000E+01 0.  1.
</event>
<event>
12    1  0.9749377E-001  0.3967055E+03  0.7818608E-02  0.1044926E+00
         21   -1    0    0  503  502  0.00000000000E+00  0.00000000000E+00  0.64506133607E+03  0.64506133607E+03  0.00000000000E+00 0. -1.
         21   -1    0    0  501  503 -0.00000000000E+00 -0.00000000000E+00 -0.26578198935E+03  0.26578198935E+03  0.00000000000E+00 0.  1.
          6    2    1    2  501    0 -0.30582842320E+02  0.37449424952E+03  0.22963395099E+03  0.47250547166E+03  0.17131379434E+03 0.  0.
         24    2    3    3    0    0 -0.87958142179E+00  0.16737937853E+03  0.37147988639E+02  0.18816098130E+03  0.77510978602E+02 0.  0.
         -6    2    1    2    0  502  0.30582842320E+02 -0.37449424952E+03  0.14964539573E+03  0.43833785376E+03  0.16901205993E+03 0.  0.
        -24    2    5    5    0    0 -0.30147948921E+02 -0.31484731677E+03  0.11245882808E+03  0.34532755107E+03  0.81033312988E+02 0.  0.
         12    1    4    4    0    0 -0.20260440144E+01 -0.64770965348E+01 -0.59645282302E+01  0.90351110053E+01  0.00000000000E+00 0. -1.
        -11    1    4    4    0    0  0.11464625926E+01  0.17385647507E+03  0.43112516870E+02  0.17912587030E+03  0.00000000000E+00 0.  1.
          5    1    3    3  501    0 -0.29703260898E+02  0.20711487099E+03  0.19248596235E+03  0.28434449036E+03  0.47000000000E+01 0. -1.
         13    1    6    6    0    0  0.71266681779E+01 -0.92523267181E+02  0.69270891769E+02  0.11580069437E+03  0.00000000000E+00 0. -1.
        -14    1    6    6    0    0 -0.37274617099E+02 -0.22232404959E+03  0.43187936307E+02  0.22952685671E+03  0.00000000000E+00 0.  1.
         -5    1    5    5    0  502  0.60730791241E+02 -0.59646932749E+02  0.37186567658E+02  0.93010302684E+02  0.47000000000E+01 0.  1.
</event>
<event>
12    1  0.9749377E-001  0.3524507E+03  0.7818608E-02  0.1061614E+00
         21   -1    0    0  503  502  0.00000000000E+00  0.00000000000E+00  0.31626325631E+03  0.31626325631E+03  0.00000000000E+00 0.  1.
         21   -1    0    0  501  503 -0.00000000000E+00 -0.00000000000E+00 -0.54772716731E+03  0.54772716731E+03  0.00000000000E+00 0. -1.
          6    2    1    2  501    0 -0.27324656401E+03  0.19560831529E+03  0.65958847315E+02  0.38323499835E+03  0.17202382588E+03 0.  0.
         24    2    3    3    0    0 -0.19874914661E+03  0.10383850617E+03  0.10323350536E+03  0.25920656130E+03  0.79039396170E+02 0.  0.
         -6    2    1    2    0  502  0.27324656401E+03 -0.19560831529E+03 -0.29742275831E+03  0.48075542527E+03  0.17245052628E+03 0.  0.
        -24    2    5    5    0    0  0.96195417885E+02 -0.77776258126E+02 -0.53309920958E+02  0.15695815938E+03  0.80568054294E+02 0.  0.
         14    1    4    4    0    0 -0.19864274344E+03  0.96743357327E+02  0.80116930298E+02  0.23502540124E+03  0.00000000000E+00 0. -1.
        -13    1    4    4    0    0 -0.10640317087E+00  0.70951488377E+01  0.23116575067E+02  0.24181160053E+02  0.00000000000E+00 0.  1.
          5    1    3    3  501    0 -0.74497417394E+02  0.91769809127E+02 -0.37274658050E+02  0.12402843706E+03  0.47000000000E+01 0. -1.
         13    1    6    6    0    0  0.70762076523E+02 -0.92486905145E+02 -0.52035786862E+02  0.12754929326E+03  0.00000000000E+00 0. -1.
        -14    1    6    6    0    0  0.25433341362E+02  0.14710647019E+02 -0.12741340954E+01  0.29408866117E+02  0.00000000000E+00 0.  1.
         -5    1    5    5    0  502  0.17705114612E+03 -0.11783205717E+03 -0.24411283735E+03  0.32379726589E+03  0.47000000000E+01 0.  1.
</event>
<event>
12    1  0.9749377E-001  0.6925891E+03  0.7818608E-02  0.9729990E-01
         21   -1    0    0  503  502  0.00000000000E+00  0.00000000000E+00  0.10379518476E+04  0.10379518476E+04  0.00000000000E+00 0. -1.
         21   -1    0    0  501  503 -0.00000000000E+00 -0.00000000000E+00 -0.51321981130E+03  0.51321981130E+03  0.00000000000E+00 0.  1.
          6    2    1    2  501    0  0.35937925391E+03  0.58307485452E+03  0.45778528464E+03  0.84160031711E+03  0.17202904642E+03 0.  0.
         24    2    3    3    0    0  0.23155607956E+03  0.26803973166E+03  0.19818510459E+03  0.41381504852E+03  0.80635246474E+02 0.  0.
         -6    2    1    2    0  502 -0.35937925391E+03 -0.58307485452E+03  0.66946751673E+02  0.70957134180E+03  0.17285799791E+03 0.  0.
        -24    2    5    5    0    0 -0.34856803659E+03 -0.53894937614E+03  0.98397767555E+02  0.65411688606E+03  0.78871248221E+02 0.  0.
         12    1    4    4    0    0  0.22987596173E+03  0.25733224274E+03  0.20466570511E+03  0.40118685395E+03  0.00000000000E+00 0. -1.
        -11    1    4    4    0    0  0.16801178334E+01  0.10707488926E+02 -0.64806005273E+01  0.12628194575E+02  0.00000000000E+00 0.  1.
          5    1    3    3  501    0  0.12782317434E+03  0.31503512285E+03  0.25960018006E+03  0.42778526858E+03  0.47000000000E+01 0. -1.
         13    1    6    6    0    0 -0.12234480813E+03 -0.23213033996E+03  0.71511239447E+02  0.27196802050E+03  0.00000000000E+00 0. -1.
        -14    1    6    6    0    0 -0.22622322846E+03 -0.30681903618E+03  0.26886528108E+02  0.38214886556E+03  0.00000000000E+00 0.  1.
         -5    1    5    5    0  502 -0.10811217320E+02 -0.44125478372E+02 -0.31451015882E+02  0.55454455740E+02  0.47000000000E+01 0.  1.
</event>
<event>
12    1  0.9749377E-001  0.2082059E+04  0.7818608E-02  0.8569188E-01
         21   -1    0    0  501  502  0.00000000000E+00  0.00000000000E+00  0.16844562657E+04  0.16844562657E+04  0.00000000000E+00 0.  1.
         21   -1    0    0  502  503 -0.00000000000E+00 -0.00000000000E+00 -0.29293918389E+04  0.29293918389E+04  0.00000000000E+00 0. -1.
         -6    2    1    2    0  503  0.20655541259E+04 -0.24311892415E+03 -0.14130197405E+04  0.25202266443E+04  0.17116335296E+03 0.  0.
        -24    2    3    3    0    0  0.63412415615E+03 -0.47690966624E+02 -0.47534817496E+03  0.79789279175E+03  0.79304135959E+02 0.  0.
          6    2    1    2  501    0 -0.20655541259E+04  0.24311892415E+03  0.16808416725E+03  0.20936214602E+04  0.17139974624E+03 0.  0.
         24    2    5    5    0    0 -0.72043500125E+03  0.95860323495E+02  0.10801606497E+03  0.73912494049E+03  0.80139969594E+02 0.  0.
         14    1    6    6    0    0 -0.20617509713E+03 -0.45834851233E+01  0.47851207372E+02  0.21170478752E+03  0.00000000000E+00 0. -1.
        -13    1    6    6    0    0 -0.51425990412E+03  0.10044380862E+03  0.60164857595E+02  0.52742015297E+03  0.00000000000E+00 0.  1.
          5    1    5    5  501    0 -0.13451191247E+04  0.14725860066E+03  0.60068102283E+02  0.13544965197E+04  0.47000000000E+01 0. -1.
         13    1    4    4    0    0  0.36477149101E+02  0.11646310495E+00 -0.71191222829E+01  0.37165546845E+02  0.00000000000E+00 0. -1.
        -14    1    4    4    0    0  0.59764700705E+03 -0.47807429728E+02 -0.46822905268E+03  0.76072724491E+03  0.00000000000E+00 0.  1.
         -5    1    3    3    0  503  0.14314299698E+04 -0.19542795753E+03 -0.93767156552E+03  0.17223338526E+04  0.47000000000E+01 0.  1.
</event>
<event>
12    1  0.9749377E-001  0.4233062E+03  0.7818608E-02  0.1035996E+00
         21   -1    0    0  501  502  0.00000000000E+00  0.00000000000E+00  0.23392014527E+03  0.23392014527E+03  0.00000000000E+00 0. -1.
         21   -1    0    0  502  503 -0.00000000000E+00 -0.00000000000E+00 -0.97246853732E+03  0.97246853732E+03  0.00000000000E+00 0.  1.
         -6    2    1    2    0  503 -0.20416098410E+03  0.33526921847E+03 -0.63408758322E+03  0.76539522055E+03  0.17226614339E+03 0.  0.
        -24    2    3    3    0    0 -0.73158601948E+02  0.74421503190E+02 -0.25485199782E+03  0.28680889194E+03  0.80119027243E+02 0.  0.
          6    2    1    2  501    0  0.20416098410E+03 -0.33526921847E+03 -0.10446080883E+03  0.44099346205E+03  0.17168580811E+03 0.  0.
         24    2    5    5    0    0  0.13587972516E+03 -0.11297003538E+03 -0.68444334259E+02  0.20562453129E+03  0.79820375681E+02 0.  0.
         12    1    6    6    0    0  0.10104775244E+03 -0.35569646044E+02 -0.52361040142E+02  0.11923726983E+03  0.00000000000E+00 0. -1.
        -11    1    6    6    0    0  0.34831972726E+02 -0.77400389337E+02 -0.16083294118E+02  0.86387261463E+02  0.00000000000E+00 0.  1.
          5    1    5    5  501    0  0.68281258940E+02 -0.22229918309E+03 -0.36016474567E+02  0.23536893075E+03  0.47000000000E+01 0. -1.
         13    1    4    4    0    0 -0.89871559275E+02  0.64778013669E+02 -0.19958210311E+03  0.22826761510E+03  0.00000000000E+00 0. -1.
        -14    1    4    4    0    0  0.16712957327E+02  0.96434895211E+01 -0.55269894706E+02  0.58541276836E+02  0.00000000000E+00 0.  1.
         -5    1    3    3    0  503 -0.13100238215E+03  0.26084771528E+03 -0.37923558541E+03  0.47858632861E+03  0.47000000000E+01 0.  1.
</event>
<event>
12    1  0.9749377E-001  0.3698115E+03  0.7818608E-02  0.1054765E+00
         21   -1    0    0  501  502  0.00000000000E+00  0.00000000000E+00  0.22760378052E+03  0.22760378052E+03  0.00000000000E+00 0. -1.
         21   -1    0    0  502  503 -0.00000000000E+00 -0.00000000000E+00 -0.67161997804E+03  0.67161997804E+03  0.00000000000E+00 0.  1.
         -6    2    1    2    0  503  0.27529845396E+03  0.20399486191E+03 -0.12056899704E+03  0.39784817883E+03  0.16230572361E+03 0.  0.
        -24    2    3    3    0    0  0.64942217911E+02  0.13460729439E+02 -0.15554479105E+02  0.95188071357E+02  0.66484165064E+02 0.  0.
          6    2    1    2  501    0 -0.27529845396E+03 -0.20399486191E+03 -0.32344720048E+03  0.50137557972E+03  0.17133662191E+03 0.  0.
         24    2    5    5    0    0 -0.90091080657E+02 -0.60441880454E+02 -0.18448710808E+03  0.22890314646E+03  0.81188260744E+02 0.  0.
         12    1    6    6    0    0 -0.81541636386E+02 -0.79521058154E+02 -0.16366323581E+03  0.19939481415E+03  0.00000000000E+00 0. -1.
        -11    1    6    6    0    0 -0.85494442705E+01  0.19079177701E+02 -0.20823872272E+02  0.29508332306E+02  0.00000000000E+00 0.  1.
          5    1    5    5  501    0 -0.18520737330E+03 -0.14355298145E+03 -0.13896009240E+03  0.27247243326E+03  0.47000000000E+01 0. -1.
         13    1    4    4    0    0 -0.19651944446E+01  0.19323207062E+02  0.11734174152E+02  0.22692271006E+02  0.00000000000E+00 0. -1.
        -14    1    4    4    0    0  0.66907412355E+02 -0.58624776235E+01 -0.27288653256E+02  0.72495800351E+02  0.00000000000E+00 0.  1.
         -5    1    3    3    0  503  0.21035623605E+03  0.19053413247E+03 -0.10501451794E+03  0.30266010748E+03  0.47000000000E+01 0.  1.
</event>
<event>
12    1  0.9749377E-001  0.6007725E+03  0.7818608E-02  0.9903805E-01
         21   -1    0    0  501  502  0.00000000000E+00  0.00000000000E+00  0.15945831174E+04  0.15945831174E+04  0.00000000000E+00 0. -1.
         21   -1    0    0  502  503 -0.00000000000E+00 -0.00000000000E+00 -0.28594377707E+03  0.28594377707E+03  0.00000000000E+00 0.  1.
         -6    2    1    2    0  503 -0.43673645460E+03  0.40006428617E+03  0.27372571914E+03  0.67494274066E+03  0.17271875983E+03 0.  0.
        -24    2    3    3    0    0 -0.31103131700E+03  0.21805354705E+03  0.12321334093E+03  0.40735022064E+03  0.80404261923E+02 0.  0.
          6    2    1    2  501    0  0.43673645460E+03 -0.40006428617E+03  0.10349136212E+04  0.12055841538E+04  0.17775484451E+03 0.  0.
         24    2    5    5    0    0  0.21093925192E+03 -0.13035049237E+03  0.35943012205E+03  0.44398717711E+03  0.80299327153E+02 0.  0.
         14    1    6    6    0    0  0.10113639110E+03 -0.62270887251E+02  0.10453924821E+03  0.15822353624E+03  0.00000000000E+00 0. -1.
        -13    1    6    6    0    0  0.10980286082E+03 -0.68079605122E+02  0.25489087384E+03  0.28576364088E+03  0.00000000000E+00 0.  1.
          5    1    5    5  501    0  0.22579720268E+03 -0.26971379379E+03  0.67548349914E+03  0.76159697669E+03  0.47000000000E+01 0. -1.
         13    1    4    4    0    0 -0.11860741738E+03  0.69686980544E+02  0.63084742033E+01  0.13770908307E+03  0.00000000000E+00 0. -1.
        -14    1    4    4    0    0 -0.19242389962E+03  0.14836656650E+03  0.11690486673E+03  0.26964113756E+03  0.00000000000E+00 0.  1.
         -5    1    3    3    0  503 -0.12570513761E+03  0.18201073912E+03  0.15051237821E+03  0.26759252002E+03  0.47000000000E+01 0.  1.
</event>
<event>
12    1  0.1219449E+000  0.5511665E+03  0.7818608E-02  0.1001224E+00
         21   -1    0    0  501  502  0.00000000000E+00  0.00000000000E+00  0.44284782792E+03  0.44284782792E+03  0.00000000000E+00 0.  1.
         21   -1    0    0  502  503 -0.00000000000E+00 -0.00000000000E+00 -0.72971042897E+03  0.72971042897E+03  0.00000000000E+00 0. -1.
         -6    2    1    2    0  503  0.28889577625E+03  0.45839420224E+03 -0.12785939298E+03  0.58228885711E+03  0.17066421580E+03 0.  0.
        -24    2    3    3    0    0  0.23291976933E+03  0.32779105301E+03 -0.32321336981E+02  0.41099931836E+03  0.78595022055E+02 0.  0.
          6    2    1    2  501    0 -0.28889577625E+03 -0.45839420224E+03 -0.15900320807E+03  0.59026939978E+03  0.17190093063E+03 0.  0.
         24    2    5    5    0    0 -0.22440043987E+03 -0.30663409397E+03 -0.17673083966E+03  0.42435635689E+03  0.66816936092E+02 0.  0.
         14    1    6    6    0    0 -0.14226358426E+03 -0.13825671032E+03 -0.86501463849E+02  0.21641707096E+03  0.00000000000E+00 0. -1.
        -13    1    6    6    0    0 -0.82136855611E+02 -0.16837738365E+03 -0.90229375813E+02  0.20793928593E+03  0.00000000000E+00 0.  1.
          5    1    5    5  501    0 -0.64495336382E+02 -0.15176010827E+03  0.17727631591E+02  0.16591304289E+03  0.47000000000E+01 0. -1.
         11    1    4    4    0    0  0.78603338605E+02  0.17723770951E+03 -0.22455199226E+02  0.19518177805E+03  0.00000000000E+00 0. -1.
        -12    1    4    4    0    0  0.15431643072E+03  0.15055334350E+03 -0.98661377552E+01  0.21581754031E+03  0.00000000000E+00 0.  1.
         -5    1    3    3    0  503  0.55976006920E+02  0.13060314923E+03 -0.95538055999E+02  0.17128953874E+03  0.47000000000E+01 0.  1.
</event>
<event>
12    1  0.9749377E-001  0.8404522E+03  0.7818608E-02  0.9503242E-01
         21   -1    0    0  503  502  0.00000000000E+00  0.00000000000E+00  0.12758523291E+04  0.12758523291E+04  0.00000000000E+00 0. -1.
         21   -1    0    0  501  503 -0.00000000000E+00 -0.00000000000E+00 -0.77517537574E+03  0.77517537574E+03  0.00000000000E+00 0.  1.
          6    2    1    2  501    0  0.29083341285E+03 -0.77959515092E+03 -0.28243485152E+03  0.89554459341E+03  0.17285253848E+03 0.  0.
         24    2    3    3    0    0  0.19672667944E+03 -0.34665670189E+03 -0.12548653906E+03  0.42549497826E+03  0.80167634775E+02 0.  0.
         -6    2    1    2    0  502 -0.29083341285E+03  0.77959515092E+03  0.78311180489E+03  0.11554831115E+04  0.17182679805E+03 0.  0.
        -24    2    5    5    0    0 -0.26569711141E+03  0.68828563532E+03  0.62045981976E+03  0.96720932264E+03  0.78685545412E+02 0.  0.
         12    1    4    4    0    0  0.49947268789E+02 -0.41236226012E+02 -0.39614237919E+02  0.75923934573E+02  0.00000000000E+00 0. -1.
        -11    1    4    4    0    0  0.14677941065E+03 -0.30542047588E+03 -0.85872301140E+02  0.34957104368E+03  0.00000000000E+00 0.  1.
          5    1    3    3  501    0  0.94106733412E+02 -0.43293844903E+03 -0.15694831246E+03  0.47004961515E+03  0.47000000000E+01 0. -1.
         11    1    6    6    0    0 -0.20088295601E+03  0.45740326763E+03  0.45630682949E+03  0.67660005460E+03  0.00000000000E+00 0. -1.
        -12    1    6    6    0    0 -0.64814155405E+02  0.23088236769E+03  0.16415299028E+03  0.29060926804E+03  0.00000000000E+00 0.  1.
         -5    1    5    5    0  502 -0.25136301439E+02  0.91309515599E+02  0.16265198513E+03  0.18827378881E+03  0.47000000000E+01 0.  1.
</event>
<event>
12    1  0.9749377E-001  0.6014014E+03  0.7818608E-02  0.9902503E-01
         21   -1    0    0  501  502  0.00000000000E+00  0.00000000000E+00  0.34508405524E+03  0.34508405524E+03  0.00000000000E+00 0. -1.
         21   -1    0    0  502  503 -0.00000000000E+00 -0.00000000000E+00 -0.11258371939E+04  0.11258371939E+04  0.00000000000E+00 0.  1.
         -6    2    1    2    0  503  0.57415018855E+03  0.12955460618E+03 -0.26259916791E+03  0.66742867243E+03  0.17340667458E+03 0.  0.
        -24    2    3    3    0    0  0.39230355386E+03  0.28793387141E+02 -0.20931784699E+03  0.45276146261E+03  0.80298464748E+02 0.  0.
          6    2    1    2  501    0 -0.57415018855E+03 -0.12955460618E+03 -0.51815397074E+03  0.80349257670E+03  0.17516834309E+03 0.  0.
         24    2    5    5    0    0 -0.47598881182E+03 -0.13062194376E+03 -0.49261783603E+03  0.70194958449E+03  0.80208762725E+02 0.  0.
         14    1    6    6    0    0 -0.37873720737E+03 -0.71371563949E+02 -0.36340533044E+03  0.52971615662E+03  0.00000000000E+00 0. -1.
        -13    1    6    6    0    0 -0.97251604451E+02 -0.59250379810E+02 -0.12921250559E+03  0.17223342787E+03  0.00000000000E+00 0.  1.
          5    1    5    5  501    0 -0.98161376734E+02  0.10673375799E+01 -0.25536134713E+02  0.10154299221E+03  0.47000000000E+01 0. -1.
         11    1    4    4    0    0  0.10660771036E+03  0.32888810412E+02 -0.89088018605E+02  0.14277098031E+03  0.00000000000E+00 0. -1.
        -12    1    4    4    0    0  0.28569584350E+03 -0.40954232705E+01 -0.12022982839E+03  0.30999048231E+03  0.00000000000E+00 0.  1.
         -5    1    3    3    0  503  0.18184663469E+03  0.10076121904E+03 -0.53281320922E+02  0.21466720982E+03  0.47000000000E+01 0.  1.
</event>
<event>
12    1  0.9749377E-001  0.2488448E+03  0.7818608E-02  0.1114037E+00
         21   -1    0    0  503  502  0.00000000000E+00  0.00000000000E+00  0.11546514625E+04  0.11546514625E+04  0.00000000000E+00 0. -1.
         21   -1    0    0  501  503 -0.00000000000E+00 -0.00000000000E+00 -0.13196501419E+03  0.13196501419E+03  0.00000000000E+00 0.  1.
          6    2    1    2  501    0 -0.15676587850E+03  0.12170950277E+03  0.35432197622E+02  0.26539643150E+03  0.17260093133E+03 0.  0.
         24    2    3    3    0    0 -0.18152443092E+03  0.92040437848E+02  0.49067805784E+02  0.22415010874E+03  0.80081586301E+02 0.  0.
         -6    2    1    2    0  502  0.15676587850E+03 -0.12170950277E+03  0.98725425069E+03  0.10212200452E+04  0.16979599954E+03 0.  0.
        -24    2    5    5    0    0  0.18042625779E+03 -0.99116146747E+02  0.92320302914E+03  0.94914423603E+03  0.78697539473E+02 0.  0.
         14    1    4    4    0    0 -0.75843567005E+02  0.53603993937E+02  0.60923308700E+02  0.11107332877E+03  0.00000000000E+00 0. -1.
        -13    1    4    4    0    0 -0.10568086392E+03  0.38436443911E+02 -0.11855502917E+02  0.11307677997E+03  0.00000000000E+00 0.  1.
          5    1    3    3  501    0  0.24758552416E+02  0.29669064920E+02 -0.13635608162E+02  0.41246322756E+02  0.47000000000E+01 0. -1.
         11    1    6    6    0    0  0.15352510681E+03 -0.11250487518E+03  0.79519345704E+03  0.81765514704E+03  0.00000000000E+00 0. -1.
        -12    1    6    6    0    0  0.26901150986E+02  0.13388728431E+02  0.12800957210E+03  0.13148908899E+03  0.00000000000E+00 0.  1.
         -5    1    5    5    0  502 -0.23660379288E+02 -0.22593356020E+02  0.64051221549E+02  0.72075809161E+02  0.47000000000E+01 0.  1.
</event>
<event>
12    1  0.9749377E-001  0.2538942E+03  0.7818608E-02  0.1110868E+00
         21   -1    0    0  503  502  0.00000000000E+00  0.00000000000E+00  0.11697964416E+03  0.11697964416E+03  0.00000000000E+00 0. -1.
         21   -1    0    0  501  503 -0.00000000000E+00 -0.00000000000E+00 -0.81165901645E+03  0.81165901645E+03  0.00000000000E+00 0.  1.
          6    2    1    2  501    0  0.12550858045E+03 -0.18704535152E+03 -0.16505584683E+03  0.32815331670E+03  0.17234500108E+03 0.  0.
         24    2    3    3    0    0  0.24078093544E+02 -0.67626344026E+02 -0.11098221103E+02  0.10843967683E+03  0.80516557337E+02 0.  0.
         -6    2    1    2    0  502 -0.12550858045E+03  0.18704535152E+03 -0.52962352547E+03  0.60048534391E+03  0.17129857628E+03 0.  0.
        -24    2    5    5    0    0 -0.51892533317E+02  0.18565052417E+03 -0.37620761091E+03  0.43025079754E+03  0.80153790544E+02 0.  0.
         14    1    4    4    0    0 -0.57795068383E+01  0.29788875460E+01  0.23465086223E+02  0.24349265733E+02  0.00000000000E+00 0. -1.
        -13    1    4    4    0    0  0.29857600382E+02 -0.70605231572E+02 -0.34563307326E+02  0.84090411101E+02  0.00000000000E+00 0.  1.
          5    1    3    3  501    0  0.10143048691E+03 -0.11941900749E+03 -0.15395762572E+03  0.21971363986E+03  0.47000000000E+01 0. -1.
         11    1    6    6    0    0  0.67258466582E+00  0.26129250449E+02 -0.12743287041E+03  0.13008584304E+03  0.00000000000E+00 0. -1.
        -12    1    6    6    0    0 -0.52565117983E+02  0.15952127372E+03 -0.24877474051E+03  0.30016495450E+03  0.00000000000E+00 0.  1.
         -5    1    5    5    0  502 -0.73616047135E+02  0.13948273465E+01 -0.15341591455E+03  0.17023454637E+03  0.47000000000E+01 0.  1.
</event>
<event>
12    1  0.9749377E-001  0.7071478E+03  0.7818608E-02  0.9705086E-01
         21   -1    0    0  501  502  0.00000000000E+00  0.00000000000E+00  0.93814547321E+03  0.93814547321E+03  0.00000000000E+00 0. -1.
         21   -1    0    0  502  503 -0.00000000000E+00 -0.00000000000E+00 -0.70851103306E+03  0.70851103306E+03  0.00000000000E+00 0.  1.
         -6    2    1    2    0  503  0.52227377987E+03 -0.46304741475E+03  0.50284876224E+03  0.87718160666E+03  0.17148727043E+03 0.  0.
        -24    2    3    3    0    0  0.30663019779E+03 -0.23860436736E+03  0.20634068839E+03  0.44727933419E+03  0.80797282046E+02 0.  0.
          6    2    1    2  501    0 -0.52227377987E+03  0.46304741475E+03 -0.27321432209E+03  0.76947489961E+03  0.17396190928E+03 0.  0.
         24    2    5    5    0    0 -0.51910577334E+03  0.44704268312E+03 -0.28762263513E+03  0.74720659962E+03  0.79202006383E+02 0.  0.
         14    1    6    6    0    0 -0.43605954362E+03  0.33519630356E+03 -0.22026723579E+03  0.59247121674E+03  0.00000000000E+00 0. -1.
        -13    1    6    6    0    0 -0.83046229721E+02  0.11184637957E+03 -0.67355399346E+02  0.15473538288E+03  0.00000000000E+00 0.  1.
          5    1    5    5  501    0 -0.31680065256E+01  0.16004731633E+02  0.14408313040E+02  0.22268299994E+02  0.47000000000E+01 0. -1.
         11    1    4    4    0    0  0.22470716005E+03 -0.21611254873E+03  0.16663306464E+03  0.35350321035E+03  0.00000000000E+00 0. -1.
        -12    1    4    4    0    0  0.81923037740E+02 -0.22491818625E+02  0.39707623751E+02  0.93776123835E+02  0.00000000000E+00 0.  1.
         -5    1    3    3    0  503  0.21564358208E+03 -0.22444304740E+03  0.29650807385E+03  0.42990227247E+03  0.47000000000E+01 0.  1.
</event>
<event>
12    1  0.9749377E-001  0.2475722E+03  0.7818608E-02  0.1114849E+00
         21   -1    0    0  503  502  0.00000000000E+00  0.00000000000E+00  0.20758121670E+03  0.20758121670E+03  0.00000000000E+00 0.  1.
         21   -1    0    0  501  503 -0.00000000000E+00 -0.00000000000E+00 -0.34202088704E+03  0.34202088704E+03  0.00000000000E+00 0. -1.
          6    2    1    2  501    0  0.28499640821E+02 -0.19633175466E+03 -0.23072699421E+02  0.26375120676E+03  0.17226131950E+03 0.  0.
         24    2    3    3    0    0  0.62609980947E+02 -0.86316296551E+02 -0.53160780210E+02  0.14461137743E+03  0.81950406750E+02 0.  0.
         -6    2    1    2    0  502 -0.28499640821E+02  0.19633175466E+03 -0.11136697093E+03  0.28585089697E+03  0.17305994821E+03 0.  0.
        -24    2    5    5    0    0  0.44915681524E+02  0.10530691835E+03 -0.93223338464E+02  0.16741689941E+03  0.78935808568E+02 0.  0.
         14    1    4    4    0    0  0.56769507307E+02 -0.96548083248E+02 -0.63661366282E+02  0.12882965068E+03  0.00000000000E+00 0. -1.
        -13    1    4    4    0    0  0.58404736398E+01  0.10231786697E+02  0.10500586071E+02  0.15781726749E+02  0.00000000000E+00 0.  1.
          5    1    3    3  501    0 -0.34110340125E+02 -0.11001545811E+03  0.30088080789E+02  0.11913982933E+03  0.47000000000E+01 0. -1.
         13    1    6    6    0    0 -0.19972653531E+02  0.68171697846E+01 -0.13342138026E+02  0.24967846123E+02  0.00000000000E+00 0. -1.
        -14    1    6    6    0    0  0.64888335055E+02  0.98489748569E+02 -0.79881200438E+02  0.14244905329E+03  0.00000000000E+00 0.  1.
         -5    1    5    5    0  502 -0.73415322346E+02  0.91024836307E+02 -0.18143632461E+02  0.11843399756E+03  0.47000000000E+01 0.  1.
</event>
<event>
12    1  0.9749377E-001  0.3690023E+03  0.7818608E-02  0.1055075E+00
         21   -1    0    0  503  502  0.00000000000E+00  0.00000000000E+00  0.25133324639E+03  0.25133324639E+03  0.00000000000E+00 0. -1.
         21   -1    0    0  501  503 -0.00000000000E+00 -0.00000000000E+00 -0.61077111597E+03  0.61077111597E+03  0.00000000000E+00 0.  1.
          6    2    1    2  501    0  0.14003060113E+03  0.31954683355E+03 -0.23321888430E+03  0.45366382001E+03  0.17233997073E+03 0.  0.
         24    2    3    3    0    0  0.15039609871E+02  0.18899847261E+03 -0.12689853758E+03  0.24392176756E+03  0.86301664741E+02 0.  0.
         -6    2    1    2    0  502 -0.14003060113E+03 -0.31954683355E+03 -0.12621898529E+03  0.40844054234E+03  0.17080309217E+03 0.  0.
        -24    2    5    5    0    0 -0.61763957827E+02 -0.17364783366E+03 -0.13600268520E+03  0.24251888490E+03  0.79688910965E+02 0.  0.
         14    1    4    4    0    0  0.21064054516E+02  0.91690395807E+02 -0.11038828136E+03  0.14503929033E+03  0.00000000000E+00 0. -1.
        -13    1    4    4    0    0 -0.60244446454E+01  0.97308076798E+02 -0.16510256216E+02  0.98882477233E+02  0.00000000000E+00 0.  1.
          5    1    3    3  501    0  0.12499099126E+03  0.13054836094E+03 -0.10632034672E+03  0.20974205245E+03  0.47000000000E+01 0. -1.
         13    1    6    6    0    0  0.18366392393E+02 -0.42689189297E+02 -0.22774913989E+02  0.51753144441E+02  0.00000000000E+00 0. -1.
        -14    1    6    6    0    0 -0.80130350219E+02 -0.13095864437E+03 -0.11322777121E+03  0.19076574046E+03  0.00000000000E+00 0.  1.
         -5    1    5    5    0  502 -0.78266643304E+02 -0.14589899989E+03  0.97836999171E+01  0.16592165744E+03  0.47000000000E+01 0.  1.
</event>
<event>
12    1  0.9749377E-001  0.3552792E+03  0.7818608E-02  0.1060469E+00
         21   -1    0    0  503  502  0.00000000000E+00  0.00000000000E+00  0.11937619246E+03  0.11937619246E+03  0.00000000000E+00 0.  1.
         21   -1    0    0  501  503 -0.00000000000E+00 -0.00000000000E+00 -0.12717668194E+04  0.12717668194E+04  0.00000000000E+00 0. -1.
          6    2    1    2  501    0 -0.31750630960E+03 -0.98231407812E+02 -0.77133945116E+03  0.85707278227E+03  0.17073236094E+03 0.  0.
         24    2    3    3    0    0 -0.88033627463E+02 -0.76865305179E+02 -0.29412200866E+03  0.32709844363E+03  0.82628331352E+02 0.  0.
         -6    2    1    2    0  502  0.31750630960E+03  0.98231407812E+02 -0.38105117575E+03  0.53407022956E+03  0.17196320957E+03 0.  0.
        -24    2    5    5    0    0  0.27472145137E+03  0.10642197753E+03 -0.24774814168E+03  0.39375124147E+03  0.82845550943E+02 0.  0.
         12    1    4    4    0    0 -0.91664730798E+00  0.14989808708E+02 -0.18771350076E+02  0.24039513120E+02  0.00000000000E+00 0. -1.
        -11    1    4    4    0    0 -0.87116980155E+02 -0.91855113887E+02 -0.27535065858E+03  0.30305893051E+03  0.00000000000E+00 0.  1.
          5    1    3    3  501    0 -0.22947268214E+03 -0.21366102634E+02 -0.47721744250E+03  0.52997433864E+03  0.47000000000E+01 0. -1.
         11    1    6    6    0    0  0.22400636873E+02  0.89974902366E+01 -0.59510191805E+02  0.64219983584E+02  0.00000000000E+00 0. -1.
        -12    1    6    6    0    0  0.25232081449E+03  0.97424487293E+02 -0.18823794988E+03  0.32953125789E+03  0.00000000000E+00 0.  1.
         -5    1    5    5    0  502  0.42784858236E+02 -0.81905697175E+01 -0.13330303407E+03  0.14031898809E+03  0.47000000000E+01 0.  1.
</event>
<event>
12    1  0.9749377E-001  0.3115742E+03  0.7818608E-02  0.1079594E+00
         21   -1    0    0  503  502  0.00000000000E+00  0.00000000000E+00  0.30209583064E+03  0.30209583064E+03  0.00000000000E+00 0.  1.
         21   -1    0    0  501  503 -0.00000000000E+00 -0.00000000000E+00 -0.63130790669E+03  0.63130790669E+03  0.00000000000E+00 0. -1.
          6    2    1    2  501    0 -0.26457669614E+03  0.95591272514E+02 -0.47007318250E+03  0.57477479960E+03  0.17395043499E+03 0.  0.
         24    2    3    3    0    0 -0.20586577050E+03  0.55865907120E+02 -0.44403522764E+03  0.49911012794E+03  0.80261580992E+02 0.  0.
         -6    2    1    2    0  502  0.26457669614E+03 -0.95591272514E+02  0.14086110644E+03  0.35862893773E+03  0.17214628706E+03 0.  0.
        -24    2    5    5    0    0  0.51204345751E+02 -0.47964447823E+02  0.75837386434E+02  0.13049246869E+03  0.79715129845E+02 0.  0.
         14    1    4    4    0    0 -0.74541777862E+02 -0.18169773734E+02 -0.13552048304E+03  0.15573188064E+03  0.00000000000E+00 0. -1.
        -13    1    4    4    0    0 -0.13132399264E+03  0.74035680854E+02 -0.30851474460E+03  0.34337824730E+03  0.00000000000E+00 0.  1.
          5    1    3    3  501    0 -0.58710925638E+02  0.39725365394E+02 -0.26037954861E+02  0.75664671666E+02  0.47000000000E+01 0. -1.
         11    1    6    6    0    0  0.69412020252E+02 -0.52684528966E+02  0.58894283909E+02  0.10517711170E+03  0.00000000000E+00 0. -1.
        -12    1    6    6    0    0 -0.18207674501E+02  0.47200811435E+01  0.16943102525E+02  0.25315356997E+02  0.00000000000E+00 0.  1.
         -5    1    5    5    0  502  0.21337235039E+03 -0.47626824691E+02  0.65023720011E+02  0.22813646903E+03  0.47000000000E+01 0.  1.
</event>
<event>
12    1  0.9749377E-001  0.2408863E+03  0.7818608E-02  0.1119204E+00
         21   -1    0    0  501  502  0.00000000000E+00  0.00000000000E+00  0.13207441902E+04  0.13207441902E+04  0.00000000000E+00 0. -1.
         21   -1    0    0  502  503 -0.00000000000E+00 -0.00000000000E+00 -0.59918328809E+02  0.59918328809E+02  0.00000000000E+00 0.  1.
         -6    2    1    2    0  503 -0.65457275943E+01 -0.20217600989E+03  0.40026746536E+03  0.48013889410E+03  0.17146815529E+03 0.  0.
        -24    2    3    3    0    0 -0.35012863156E+02 -0.15554292987E+03  0.18029021060E+03  0.25342959881E+03  0.79388273025E+02 0.  0.
          6    2    1    2  501    0  0.65457275943E+01  0.20217600989E+03  0.86055839599E+03  0.90052362487E+03  0.17165098461E+03 0.  0.
         24    2    5    5    0    0  0.65921168276E+02  0.16442448231E+03  0.67122299776E+03  0.69848253050E+03  0.77178506622E+02 0.  0.
         14    1    6    6    0    0  0.45249810345E+02  0.16072663056E+03  0.52925306813E+03  0.55496793172E+03  0.00000000000E+00 0. -1.
        -13    1    6    6    0    0  0.20671357930E+02  0.36978517588E+01  0.14196992963E+03  0.14351459879E+03  0.00000000000E+00 0.  1.
          5    1    5    5  501    0 -0.59375440681E+02  0.37751527571E+02  0.18933539823E+03  0.20204109436E+03  0.47000000000E+01 0. -1.
         11    1    4    4    0    0  0.13427868832E+02 -0.16919697603E+02  0.92280218489E+00  0.21620254212E+02  0.00000000000E+00 0. -1.
        -12    1    4    4    0    0 -0.48440731988E+02 -0.13862323227E+03  0.17936740841E+03  0.23180934459E+03  0.00000000000E+00 0.  1.
         -5    1    3    3    0  503  0.28467135562E+02 -0.46633080011E+02  0.21997725477E+03  0.22670929529E+03  0.47000000000E+01 0.  1.
</event>
<event>
12    1  0.9749377E-001  0.3165002E+03  0.7818608E-02  0.1077271E+00
         21   -1    0    0  501  502  0.00000000000E+00  0.00000000000E+00  0.83047936770E+03  0.83047936770E+03  0.00000000000E+00 0.  1.
         21   -1    0    0  502  503 -0.00000000000E+00 -0.00000000000E+00 -0.23420344039E+03  0.23420344039E+03  0.00000000000E+00 0. -1.
         -6    2    1    2    0  503 -0.28238910320E+03 -0.74108255162E+02  0.64435384937E+03  0.72448501464E+03  0.15636820058E+03 0.  0.
        -24    2    3    3    0    0 -0.92498970581E+02 -0.42171968817E+02  0.16203094272E+03  0.20512419100E+03  0.74076803541E+02 0.  0.
          6    2    1    2  501    0  0.28238910320E+03  0.74108255162E+02 -0.48077922050E+02  0.34019779345E+03  0.16789107479E+03 0.  0.
         24    2    5    5    0    0  0.29383782812E+03  0.81335792815E+02 -0.60811532401E+02  0.32102631893E+03  0.80022962618E+02 0.  0.
         14    1    6    6    0    0  0.12711653369E+03  0.42975500611E+02 -0.66699213268E+02  0.14984756201E+03  0.00000000000E+00 0. -1.
        -13    1    6    6    0    0  0.16672129443E+03  0.38360292204E+02  0.58876808671E+01  0.17117875692E+03  0.00000000000E+00 0.  1.
          5    1    5    5  501    0 -0.11448724921E+02 -0.72275376529E+01  0.12733610350E+02  0.19171474523E+02  0.47000000000E+01 0. -1.
         11    1    4    4    0    0 -0.92225589507E+02 -0.14784313479E+02  0.14619917975E+03  0.17348871849E+03  0.00000000000E+00 0. -1.
        -12    1    4    4    0    0 -0.27338107373E+00 -0.27387655338E+02  0.15831762971E+02  0.31635472509E+02  0.00000000000E+00 0.  1.
         -5    1    3    3    0  503 -0.18989013262E+03 -0.31936286345E+02  0.48232290665E+03  0.51936082364E+03  0.47000000000E+01 0.  1.
</event>
<event>
12    1  0.1096671E+000  0.7867680E+03  0.7818608E-02  0.9579370E-01
         21   -1    0    0  501  502  0.00000000000E+00  0.00000000000E+00  0.10101549422E+04  0.10101549422E+04  0.00000000000E+00 0. -1.
         21   -1    0    0  502  503 -0.00000000000E+00 -0.00000000000E+00 -0.63137156924E+03  0.63137156924E+03  0.00000000000E+00 0.  1.
         -6    2    1    2    0  503 -0.17090387049E+03  0.75927037879E+03  0.14326945110E+03  0.81051591354E+03  0.17524345759E+03 0.  0.
        -24    2    3    3    0    0 -0.16549460042E+03  0.74394335658E+03  0.16406884833E+03  0.78370392485E+03  0.80206447827E+02 0.  0.
          6    2    1    2  501    0  0.17090387049E+03 -0.75927037879E+03  0.23551392181E+03  0.83101059785E+03  0.17149975310E+03 0.  0.
         24    2    5    5    0    0  0.32153837240E+02 -0.28175170362E+03  0.42326310432E+02  0.29751345629E+03  0.79403075357E+02 0.  0.
         12    1    6    6    0    0  0.56707202681E+02 -0.21963873824E+03  0.23116333792E+02  0.22801589212E+03  0.00000000000E+00 0. -1.
        -11    1    6    6    0    0 -0.24553365441E+02 -0.62112965379E+02  0.19209976641E+02  0.69497564167E+02  0.00000000000E+00 0.  1.
          5    1    5    5  501    0  0.13875003325E+03 -0.47751867517E+03  0.19318761138E+03  0.53349714156E+03  0.47000000000E+01 0. -1.
         11    1    4    4    0    0  0.53201768723E+01  0.78429167157E+02  0.26704936844E+02  0.83021636908E+02  0.00000000000E+00 0. -1.
        -12    1    4    4    0    0 -0.17081477730E+03  0.66551418942E+03  0.13736391148E+03  0.70068228794E+03  0.00000000000E+00 0.  1.
         -5    1    3    3    0  503 -0.54092700671E+01  0.15327022214E+02 -0.20799397225E+02  0.26811988690E+02  0.47000000000E+01 0.  1.
</event>
<event>
12    1  0.9749377E-001  0.1531336E+03  0.7818608E-02  0.1196674E+00
         21   -1    0    0  501  502  0.00000000000E+00  0.00000000000E+00  0.10735262267E+03  0.10735262267E+03  0.00000000000E+00 0. -1.
         21   -1    0    0  502  503 -0.00000000000E+00 -0.00000000000E+00 -0.30154735295E+03  0.30154735295E+03  0.00000000000E+00 0. -1.
         -6    2    1    2    0  503  0.55466884549E+02 -0.11844617440E+02 -0.97207271442E+02  0.20774700011E+03  0.17462156851E+03 0.  0.
        -24    2    3    3    0    0  0.47210464147E+02  0.58935082715E+02 -0.71699941861E+02  0.13191397107E+03  0.80982974752E+02 0.  0.
          6    2    1    2  501    0 -0.55466884549E+02  0.11844617440E+02 -0.96987458847E+02  0.20115297551E+03  0.16685047839E+03 0.  0.
         24    2    5    5    0    0 -0.22066669996E+02  0.62629840395E+02 -0.85680489304E+02  0.13914772764E+03  0.87243962702E+02 0.  0.
         14    1    6    6    0    0  0.91139771733E+01  0.64894138652E+02 -0.23620301086E+02  0.69657967489E+02  0.00000000000E+00 0. -1.
        -13    1    6    6    0    0 -0.31180647169E+02 -0.22642982573E+01 -0.62060188218E+02  0.69489760153E+02  0.00000000000E+00 0.  1.
          5    1    5    5  501    0 -0.33400214553E+02 -0.50785222955E+02 -0.11306969543E+02  0.62005247866E+02  0.47000000000E+01 0. -1.
         11    1    4    4    0    0  0.92030560504E+01  0.23061127869E+02 -0.75533393504E+02  0.79509781747E+02  0.00000000000E+00 0. -1.
        -12    1    4    4    0    0  0.38007408097E+02  0.35873954847E+02  0.38334516430E+01  0.52404189318E+02  0.00000000000E+00 0.  1.
         -5    1    3    3    0  503  0.82564204017E+01 -0.70779700156E+02 -0.25507329581E+02  0.75833029046E+02  0.47000000000E+01 0.  1.
</event>
<event>
12    1  0.9749377E-001  0.4704810E+03  0.7818608E-02  0.1021785E+00
         21   -1    0    0  503  502  0.00000000000E+00  0.00000000000E+00  0.48987345576E+03  0.48987345576E+03  0.00000000000E+00 0.  1.
         21   -1    0    0  501  503 -0.00000000000E+00 -0.00000000000E+00 -0.47328293608E+03  0.47328293608E+03  0.00000000000E+00 0. -1.
          6    2    1    2  501    0 -0.39569553046E+03  0.20925568625E+03  0.48306586042E+02  0.48230315774E+03  0.17297373979E+03 0.  0.
         24    2    3    3    0    0 -0.96730202698E+02  0.16502142096E+02  0.20065919212E+02  0.12543648621E+03  0.75515681486E+02 0.  0.
         -6    2    1    2    0  502  0.39569553046E+03 -0.20925568625E+03 -0.31716066359E+02  0.48085323410E+03  0.17277450282E+03 0.  0.
        -24    2    5    5    0    0  0.17467566514E+03 -0.28000920720E+02 -0.16817783183E+02  0.19458916067E+03  0.79287225117E+02 0.  0.
         12    1    4    4    0    0 -0.59205724344E+01  0.24285426319E+02  0.23389854293E+02  0.34233322850E+02  0.00000000000E+00 0. -1.
        -11    1    4    4    0    0 -0.90809630263E+02 -0.77832842230E+01 -0.33239350817E+01  0.91203163357E+02  0.00000000000E+00 0.  1.
          5    1    3    3  501    0 -0.29896532776E+03  0.19275354416E+03  0.28240666831E+02  0.35686667153E+03  0.47000000000E+01 0. -1.
         11    1    6    6    0    0  0.15230049599E+03 -0.69203155651E+01 -0.38165779206E+02  0.15716220458E+03  0.00000000000E+00 0. -1.
        -12    1    6    6    0    0  0.22375169154E+02 -0.21080605155E+02  0.21347996023E+02  0.37426956095E+02  0.00000000000E+00 0.  1.
         -5    1    5    5    0  502  0.22101986532E+03 -0.18125476553E+03 -0.14898283177E+02  0.28626407343E+03  0.47000000000E+01 0.  1.
</event>
<event>
12    1  0.9749377E-001  0.1661410E+03  0.7818608E-02  0.1181933E+00
         21   -1    0    0  503  502  0.00000000000E+00  0.00000000000E+00  0.13000871648E+04  0.13000871648E+04  0.00000000000E+00 0. -1.
         21   -1    0    0  501  503 -0.00000000000E+00 -0.00000000000E+00 -0.50543674049E+02  0.50543674049E+02  0.00000000000E+00 0. -1.
          6    2    1    2  501    0  0.74319319972E+02  0.17597447293E+02  0.10863294280E+04  0.11025270739E+04  0.17210836984E+03 0.  0.
         24    2    3    3    0    0  0.57827953566E+02 -0.43587892545E+02  0.87271836004E+03  0.87966525718E+03  0.83244532229E+02 0.  0.
         -6    2    1    2    0  502 -0.74319319972E+02 -0.17597447293E+02  0.16321406268E+03  0.24810376493E+03  0.17053919327E+03 0.  0.
        -24    2    5    5    0    0 -0.61203223426E+01 -0.66219859146E+02  0.84198603539E+02  0.13286152009E+03  0.78359751091E+02 0.  0.
         14    1    4    4    0    0  0.63799435726E+02 -0.38293069586E+02  0.86611876874E+03  0.86930917902E+03  0.00000000000E+00 0. -1.
        -13    1    4    4    0    0 -0.59714821603E+01 -0.52948229584E+01  0.65995913002E+01  0.10356078152E+02  0.00000000000E+00 0.  1.
          5    1    3    3  501    0  0.16491366406E+02  0.61185339838E+02  0.21361106800E+03  0.22286181671E+03  0.47000000000E+01 0. -1.
         13    1    6    6    0    0 -0.40122516221E+02 -0.19320606622E+02  0.41781738214E+02  0.61064030299E+02  0.00000000000E+00 0. -1.
        -14    1    6    6    0    0  0.34002193879E+02 -0.46899252524E+02  0.42416865324E+02  0.71797489788E+02  0.00000000000E+00 0.  1.
         -5    1    5    5    0  502 -0.68198997629E+02  0.48622411852E+02  0.79015459142E+02  0.11524224484E+03  0.47000000000E+01 0.  1.
</event>
<event>
12    1  0.9749377E-001  0.2616382E+03  0.7818608E-02  0.1106163E+00
         21   -1    0    0  501  502  0.00000000000E+00  0.00000000000E+00  0.21619837990E+04  0.21619837990E+04  0.00000000000E+00 0.  1.
         21   -1    0    0  502  503 -0.00000000000E+00 -0.00000000000E+00 -0.13479675676E+03  0.13479675676E+03  0.00000000000E+00 0. -1.
         -6    2    1    2    0  503  0.81051800859E+02 -0.22370565773E+03  0.19768788723E+04  0.19984902901E+04  0.17117169108E+03 0.  0.
        -24    2    3    3    0    0  0.37577702239E+02 -0.20766933666E+03  0.14078642106E+04  0.14275726636E+04  0.10650557485E+03 0.  0.
          6    2    1    2  501    0 -0.81051800859E+02  0.22370565773E+03  0.50308169912E+02  0.29829026571E+03  0.17272103211E+03 0.  0.
         24    2    5    5    0    0 -0.37176801058E+02  0.19637004312E+03 -0.14275872664E+02  0.21543231504E+03  0.79145268031E+02 0.  0.
         14    1    6    6    0    0 -0.53315740527E+02  0.12327434814E+03 -0.32928006922E+02  0.13828733397E+03  0.00000000000E+00 0. -1.
        -13    1    6    6    0    0  0.16138939468E+02  0.73095694974E+02  0.18652134258E+02  0.77144981064E+02  0.00000000000E+00 0.  1.
          5    1    5    5  501    0 -0.43874999801E+02  0.27335614613E+02  0.64584042576E+02  0.82857950670E+02  0.47000000000E+01 0. -1.
         13    1    4    4    0    0  0.46713408882E+02 -0.14614063800E+03  0.12215909898E+04  0.12311879527E+04  0.00000000000E+00 0. -1.
        -14    1    4    4    0    0 -0.91357066430E+01 -0.61528698658E+02  0.18627322079E+03  0.19638471091E+03  0.00000000000E+00 0.  1.
         -5    1    3    3    0  503  0.43474098620E+02 -0.16036321067E+02  0.56901466177E+03  0.57091762642E+03  0.47000000000E+01 0.  1.
</event>
<event>
12    1  0.9749377E-001  0.3434844E+03  0.7818608E-02  0.1065322E+00
         21   -1    0    0  501  502  0.00000000000E+00  0.00000000000E+00  0.24768050441E+03  0.24768050441E+03  0.00000000000E+00 0. -1.
         21   -1    0    0  502  503 -0.00000000000E+00 -0.00000000000E+00 -0.65694928327E+03  0.65694928327E+03  0.00000000000E+00 0.  1.
         -6    2    1    2    0  503 -0.21957241109E+02 -0.31645107162E+03 -0.40547319396E+03  0.54290419413E+03  0.17237474240E+03 0.  0.
        -24    2    3    3    0    0  0.55370891359E+02 -0.18262834437E+03 -0.23076900532E+03  0.30959794490E+03  0.78597111234E+02 0.  0.
          6    2    1    2  501    0  0.21957241109E+02  0.31645107162E+03 -0.37955848953E+01  0.36172559356E+03  0.17380332967E+03 0.  0.
         24    2    5    5    0    0  0.43285466597E+02  0.10472055162E+03  0.40810836540E+02  0.14424794152E+03  0.79384625114E+02 0.  0.
         14    1    6    6    0    0  0.45358721174E+02  0.31631352135E+02  0.44582586060E+02  0.71032126564E+02  0.00000000000E+00 0. -1.
        -13    1    6    6    0    0 -0.20732545765E+01  0.73089199481E+02 -0.37717495200E+01  0.73215814957E+02  0.00000000000E+00 0.  1.
          5    1    5    5  501    0 -0.21328225488E+02  0.21173052000E+03 -0.44606421436E+02  0.21747765204E+03  0.47000000000E+01 0. -1.
         13    1    4    4    0    0  0.53927585513E+02 -0.16977799043E+03 -0.23597039036E+03  0.29565989861E+03  0.00000000000E+00 0. -1.
        -14    1    4    4    0    0  0.14433058455E+01 -0.12850353935E+02  0.52013850491E+01  0.13938046292E+02  0.00000000000E+00 0.  1.
         -5    1    3    3    0  503 -0.77328132468E+02 -0.13382272725E+03 -0.17470418865E+03  0.23330624923E+03  0.47000000000E+01 0.  1.
</event>
<event>
12    1  0.9749377E-001  0.1811382E+03  0.7818608E-02  0.1166706E+00
         21   -1    0    0  501  502  0.00000000000E+00  0.00000000000E+00  0.41282487708E+03  0.41282487708E+03  0.00000000000E+00 0.  1.
         21   -1    0    0  502  503 -0.00000000000E+00 -0.00000000000E+00 -0.84425351979E+02  0.84425351979E+02  0.00000000000E+00 0. -1.
         -6    2    1    2    0  503 -0.28391390463E+02 -0.65577262040E+02  0.21710405123E+03  0.28687851272E+03  0.17337434543E+03 0.  0.
        -24    2    3    3    0    0 -0.71712949649E+02  0.27869885093E+01  0.11399721468E+03  0.15571625448E+03  0.78113203127E+02 0.  0.
          6    2    1    2  501    0  0.28391390463E+02  0.65577262040E+02  0.11129547387E+03  0.21037171634E+03  0.16359440144E+03 0.  0.
         24    2    5    5    0    0  0.80825844435E+02  0.50465981126E+02  0.85974184397E+02  0.15003117876E+03  0.77705610083E+02 0.  0.
         12    1    6    6    0    0  0.80002766256E+02  0.66863136285E+02  0.83175645194E+02  0.13337657049E+03  0.00000000000E+00 0. -1.
        -11    1    6    6    0    0  0.82307817838E+00 -0.16397155159E+02  0.27985392022E+01  0.16654608271E+02  0.00000000000E+00 0.  1.
          5    1    5    5  501    0 -0.52434453972E+02  0.15111280914E+02  0.25321289478E+02  0.60340537576E+02  0.47000000000E+01 0. -1.
         13    1    4    4    0    0  0.15641080544E+02  0.92293794710E+01  0.15208220547E+02  0.23687862255E+02  0.00000000000E+00 0. -1.
        -14    1    4    4    0    0 -0.87354030193E+02 -0.64423909617E+01  0.98788994135E+02  0.13202839223E+03  0.00000000000E+00 0.  1.
         -5    1    3    3    0  503  0.43321559186E+02 -0.68364250549E+02  0.10310683654E+03  0.13116225824E+03  0.47000000000E+01 0.  1.
</event>
<event>
12    1  0.9749377E-001  0.3032965E+03  0.7818608E-02  0.1083604E+00
         21   -1    0    0  501  502  0.00000000000E+00  0.00000000000E+00  0.44974270447E+03  0.44974270447E+03  0.00000000000E+00 0.  1.
         21   -1    0    0  502  503 -0.00000000000E+00 -0.00000000000E+00 -0.30928499563E+03  0.30928499563E+03  0.00000000000E+00 0. -1.
         -6    2    1    2    0  503 -0.61178822555E+01 -0.27144166187E+03 -0.12251579611E+03  0.34389099269E+03  0.17185136100E+03 0.  0.
        -24    2    3    3    0    0  0.23383578784E+02 -0.24992226561E+03 -0.14449024311E+03  0.30101457796E+03  0.82002531603E+02 0.  0.
          6    2    1    2  501    0  0.61178822555E+01  0.27144166187E+03  0.26297350495E+03  0.41513670741E+03  0.17165493659E+03 0.  0.
         24    2    5    5    0    0  0.16571251241E+02  0.40602978733E+02  0.89830823348E+02  0.12635262069E+03  0.77280008290E+02 0.  0.
         12    1    6    6    0    0  0.45623745279E+02  0.32280165441E+02  0.42567706049E+02  0.70253432745E+02  0.00000000000E+00 0. -1.
        -11    1    6    6    0    0 -0.29052494038E+02  0.83228132921E+01  0.47263117300E+02  0.56099187942E+02  0.00000000000E+00 0.  1.
          5    1    5    5  501    0 -0.10453368985E+02  0.23083868313E+03  0.17314268160E+03  0.28878408673E+03  0.47000000000E+01 0. -1.
         13    1    4    4    0    0  0.21428997430E+02 -0.86698083191E+02 -0.95123807783E+02  0.13047719482E+03  0.00000000000E+00 0. -1.
        -14    1    4    4    0    0  0.19545813539E+01 -0.16322418242E+03 -0.49366435326E+02  0.17053738315E+03  0.00000000000E+00 0.  1.
         -5    1    3    3    0  503 -0.29501461039E+02 -0.21519396256E+02  0.21974447003E+02  0.42876414726E+02  0.47000000000E+01 0.  1.
</event>
<event>
12    1  0.9749377E-001  0.1916359E+03  0.7818608E-02  0.1156994E+00
         21   -1    0    0  503  502  0.00000000000E+00  0.00000000000E+00  0.21685227806E+03  0.21685227806E+03  0.00000000000E+00 0. -1.
         21   -1    0    0  501  503 -0.00000000000E+00 -0.00000000000E+00 -0.22364363413E+03  0.22364363413E+03  0.00000000000E+00 0.  1.
          6    2    1    2  501    0  0.77639956922E+02  0.99654653856E+02 -0.22885799214E+02  0.21445626428E+03  0.17178101332E+03 0.  0.
         24    2    3    3    0    0  0.12418918540E+02  0.37621182252E+02  0.46719885395E+02  0.10057484887E+03  0.79768224513E+02 0.  0.
         -6    2    1    2    0  502 -0.77639956922E+02 -0.99654653856E+02  0.16094443148E+02  0.22603964790E+03  0.18675084572E+03 0.  0.
        -24    2    5    5    0    0 -0.20691862801E+01  0.22638282781E+01  0.50399120243E+02  0.94520754788E+02  0.79904288458E+02 0.  0.
         14    1    4    4    0    0 -0.10691554341E+02 -0.21308691794E+02  0.22556490157E+02  0.32820190865E+02  0.00000000000E+00 0. -1.
        -13    1    4    4    0    0  0.23110472881E+02  0.58929874046E+02  0.24163395238E+02  0.67754658004E+02  0.00000000000E+00 0.  1.
          5    1    3    3  501    0  0.65221038382E+02  0.62033471604E+02 -0.69605684609E+02  0.11388141541E+03  0.47000000000E+01 0. -1.
         13    1    6    6    0    0  0.86599727627E+01 -0.37169738708E+02  0.31543821592E+02  0.49513607064E+02  0.00000000000E+00 0. -1.
        -14    1    6    6    0    0 -0.10729159043E+02  0.39433566986E+02  0.18855298651E+02  0.45007147724E+02  0.00000000000E+00 0.  1.
         -5    1    5    5    0  502 -0.75570770642E+02 -0.10191848213E+03 -0.34304677095E+02  0.13151889312E+03  0.47000000000E+01 0.  1.
</event>
<event>
12    1  0.9749377E-001  0.3802201E+03  0.7818608E-02  0.1050852E+00
         21   -1    0    0  501  502  0.00000000000E+00  0.00000000000E+00  0.14701799997E+04  0.14701799997E+04  0.00000000000E+00 0.  1.
         21   -1    0    0  502  503 -0.00000000000E+00 -0.00000000000E+00 -0.12318884575E+03  0.12318884575E+03  0.00000000000E+00 0. -1.
         -6    2    1    2    0  503  0.33277679000E+03  0.12992142057E+03  0.38242013018E+03  0.55057875368E+03  0.17109015328E+03 0.  0.
        -24    2    3    3    0    0  0.12340014448E+03 -0.33290813433E+01  0.12520221808E+03  0.19311907727E+03  0.79879309935E+02 0.  0.
          6    2    1    2  501    0 -0.33277679000E+03 -0.12992142057E+03  0.96457102377E+03  0.10427900918E+04  0.17144663341E+03 0.  0.
         24    2    5    5    0    0 -0.17594470726E+03 -0.76668909765E+02  0.35880494599E+03  0.41477196857E+03  0.80374964401E+02 0.  0.
         14    1    6    6    0    0 -0.67681272864E+02  0.88734015652E+01  0.93936311822E+02  0.11611857143E+03  0.00000000000E+00 0. -1.
        -13    1    6    6    0    0 -0.10826343440E+03 -0.85542311330E+02  0.26486863417E+03  0.29865339714E+03  0.00000000000E+00 0.  1.
          5    1    5    5  501    0 -0.15683208274E+03 -0.53252510805E+02  0.60576607778E+03  0.62801812320E+03  0.47000000000E+01 0. -1.
         11    1    4    4    0    0  0.97751747165E+02  0.26165906489E+02  0.61604498466E+02  0.11847013534E+03  0.00000000000E+00 0. -1.
        -12    1    4    4    0    0  0.25648397313E+02 -0.29494987832E+02  0.63597719612E+02  0.74648941934E+02  0.00000000000E+00 0.  1.
         -5    1    3    3    0  503  0.20937664552E+03  0.13325050191E+03  0.25721791210E+03  0.35745967641E+03  0.47000000000E+01 0.  1.
</event>
<event>
12    1  0.9749377E-001  0.7779828E+03  0.7818608E-02  0.9592444E-01
         21   -1    0    0  501  502  0.00000000000E+00  0.00000000000E+00  0.15021712212E+04  0.15021712212E+04  0.00000000000E+00 0.  1.
         21   -1    0    0  502  503 -0.00000000000E+00 -0.00000000000E+00 -0.69410027162E+03  0.69410027162E+03  0.00000000000E+00 0. -1.
         -6    2    1    2    0  503 -0.68778698391E+03  0.35201527837E+03 -0.28981885770E+03  0.84282960054E+03  0.17146741332E+03 0.  0.
        -24    2    3    3    0    0 -0.25272069868E+03  0.13407166474E+03 -0.52959749103E+02  0.30162130553E+03  0.79546930153E+02 0.  0.
          6    2    1    2  501    0  0.68778698391E+03 -0.35201527837E+03  0.10978898073E+04  0.13534418923E+04  0.17168935724E+03 0.  0.
         24    2    5    5    0    0  0.57709628459E+03 -0.32784859117E+03  0.85092511944E+03  0.10816881311E+04  0.73829760871E+02 0.  0.
         12    1    6    6    0    0  0.49707642018E+03 -0.30821967300E+03  0.75968739282E+03  0.95875401909E+03  0.00000000000E+00 0. -1.
        -11    1    6    6    0    0  0.80019864416E+02 -0.19628918174E+02  0.91237726621E+02  0.12293411198E+03  0.00000000000E+00 0.  1.
          5    1    5    5  501    0  0.11069069932E+03 -0.24166687193E+02  0.24696468784E+03  0.27175376120E+03  0.47000000000E+01 0. -1.
         11    1    4    4    0    0 -0.18788399601E+03  0.11802813165E+03 -0.97979972071E+01  0.22209690805E+03  0.00000000000E+00 0. -1.
        -12    1    4    4    0    0 -0.64836702669E+02  0.16043533088E+02 -0.43161751896E+02  0.79524397474E+02  0.00000000000E+00 0.  1.
         -5    1    3    3    0  503 -0.43506628523E+03  0.21794361363E+03 -0.23685910860E+03  0.54120829501E+03  0.47000000000E+01 0.  1.
</event>
<event>
12    1  0.9749377E-001  0.2378035E+03  0.7818608E-02  0.1121265E+00
         21   -1    0    0  503  502  0.00000000000E+00  0.00000000000E+00  0.49050224109E+03  0.49050224109E+03  0.00000000000E+00 0. -1.
         21   -1    0    0  501  503 -0.00000000000E+00 -0.00000000000E+00 -0.16371456499E+03  0.16371456499E+03  0.00000000000E+00 0.  1.
          6    2    1    2  501    0  0.18167378751E+03  0.12414906796E+03  0.21791349634E+03  0.35450290670E+03  0.17253307750E+03 0.  0.
         24    2    3    3    0    0  0.62150745012E+02  0.99347033799E+02  0.56046519334E+02  0.15171260410E+03  0.78376997150E+02 0.  0.
         -6    2    1    2    0  502 -0.18167378751E+03 -0.12414906796E+03  0.10887417977E+03  0.29971389938E+03  0.17191997650E+03 0.  0.
        -24    2    5    5    0    0 -0.13527908305E+03 -0.98014345008E+02  0.14446618143E+03  0.23549261843E+03  0.81725477175E+02 0.  0.
         12    1    4    4    0    0  0.54579178965E+02  0.85795399357E+02  0.88965404018E+01  0.10207294332E+03  0.00000000000E+00 0. -1.
        -11    1    4    4    0    0  0.75715660461E+01  0.13551634441E+02  0.47149978932E+02  0.49639660774E+02  0.00000000000E+00 0.  1.
          5    1    3    3  501    0  0.11952304249E+03  0.24802034160E+02  0.16186697700E+03  0.20279030260E+03  0.47000000000E+01 0. -1.
         13    1    6    6    0    0 -0.33308813822E+01 -0.37452452745E+02  0.13449517549E+02  0.39933325803E+02  0.00000000000E+00 0. -1.
        -14    1    6    6    0    0 -0.13194820167E+03 -0.60561892264E+02  0.13101666388E+03  0.19555929263E+03  0.00000000000E+00 0.  1.
         -5    1    5    5    0  502 -0.46394704454E+02 -0.26134722950E+02 -0.35592001659E+02  0.64221280952E+02  0.47000000000E+01 0.  1.
</event>
<event>
12    1  0.9749377E-001  0.2560406E+03  0.7818608E-02  0.1109546E+00
         21   -1    0    0  501  502  0.00000000000E+00  0.00000000000E+00  0.23738312289E+03  0.23738312289E+03  0.00000000000E+00 0.  1.
         21   -1    0    0  502  503 -0.00000000000E+00 -0.00000000000E+00 -0.31527771038E+03  0.31527771038E+03  0.00000000000E+00 0. -1.
         -6    2    1    2    0  503  0.19518584090E+03  0.19896321375E+02 -0.11826672970E+03  0.28647127626E+03  0.17200406006E+03 0.  0.
        -24    2    3    3    0    0  0.12996504926E+03  0.80517145878E+02 -0.80831583250E+02  0.18976493616E+03  0.78122092494E+02 0.  0.
          6    2    1    2  501    0 -0.19518584090E+03 -0.19896321375E+02  0.40372142204E+02  0.26618955701E+03  0.17530999488E+03 0.  0.
         24    2    5    5    0    0 -0.19860509182E+03  0.20666425583E+02  0.12376213702E+02  0.21656204720E+03  0.82914811555E+02 0.  0.
         14    1    6    6    0    0 -0.52977758424E+02  0.43766582485E+02  0.59248316846E+01  0.68972895115E+02  0.00000000000E+00 0. -1.
        -13    1    6    6    0    0 -0.14562733340E+03 -0.23100156902E+02  0.64513820172E+01  0.14758915208E+03  0.00000000000E+00 0.  1.
          5    1    5    5  501    0  0.34192509271E+01 -0.40562746958E+02  0.27995928503E+02  0.49627509814E+02  0.47000000000E+01 0. -1.
         13    1    4    4    0    0  0.36097484042E+02 -0.77519543559E+01  0.13358796367E+01  0.36944630528E+02  0.00000000000E+00 0. -1.
        -14    1    4    4    0    0  0.93867565221E+02  0.88269100234E+02 -0.82167462887E+02  0.15282030563E+03  0.00000000000E+00 0.  1.
         -5    1    3    3    0  503  0.65220791634E+02 -0.60620824503E+02 -0.37435146450E+02  0.96706340095E+02  0.47000000000E+01 0.  1.
</event>
<event>
12    1  0.9749377E-001  0.3948569E+03  0.7818608E-02  0.1045575E+00
         21   -1    0    0  503  502  0.00000000000E+00  0.00000000000E+00  0.41775486814E+03  0.41775486814E+03  0.00000000000E+00 0. -1.
         21   -1    0    0  501  503 -0.00000000000E+00 -0.00000000000E+00 -0.39593860441E+03  0.39593860441E+03  0.00000000000E+00 0.  1.
          6    2    1    2  501    0 -0.21143454056E+03 -0.30293588356E+03 -0.20282866536E+01  0.40716798721E+03  0.17119270244E+03 0.  0.
         24    2    3    3    0    0 -0.19827776990E+03 -0.18031901867E+03 -0.25816980369E+02  0.28148589573E+03  0.82090014559E+02 0.  0.
         -6    2    1    2    0  502  0.21143454056E+03  0.30293588356E+03  0.23844550383E+02  0.40652548535E+03  0.16798718154E+03 0.  0.
        -24    2    5    5    0    0  0.13511312389E+03  0.27766980483E+03  0.47256636098E+02  0.32265922792E+03  0.80744727045E+02 0.  0.
         12    1    4    4    0    0 -0.85012186235E+02 -0.42807050191E+02  0.20599412094E+02  0.97385066274E+02  0.00000000000E+00 0. -1.
        -11    1    4    4    0    0 -0.11326558366E+03 -0.13751196848E+03 -0.46416392463E+02  0.18410082946E+03  0.00000000000E+00 0.  1.
          5    1    3    3  501    0 -0.13156770665E+02 -0.12261686489E+03  0.23788693715E+02  0.12568209148E+03  0.47000000000E+01 0. -1.
         11    1    6    6    0    0  0.10158082535E+03  0.15542371977E+03 -0.45225158065E+01  0.18573004575E+03  0.00000000000E+00 0. -1.
        -12    1    6    6    0    0  0.33532298548E+02  0.12224608506E+03  0.51779151905E+02  0.13692918218E+03  0.00000000000E+00 0.  1.
         -5    1    5    5    0  502  0.76321416670E+02  0.25266078728E+02 -0.23412085716E+02  0.83866257424E+02  0.47000000000E+01 0.  1.
</event>
<event>
12    1  0.9749377E-001  0.3000549E+03  0.7818608E-02  0.1085213E+00
         21   -1    0    0  501  502  0.00000000000E+00  0.00000000000E+00  0.36694476151E+03  0.36694476151E+03  0.00000000000E+00 0.  1.
         21   -1    0    0  502  503 -0.00000000000E+00 -0.00000000000E+00 -0.27337612638E+03  0.27337612638E+03  0.00000000000E+00 0. -1.
         -6    2    1    2    0  503  0.19850121356E+03 -0.17653770589E+03  0.62575459342E+02  0.32237109315E+03  0.17157837917E+03 0.  0.
        -24    2    3    3    0    0  0.42088925332E+02 -0.22331609769E+02  0.27911843198E+01  0.94685842133E+02  0.81776766628E+02 0.  0.
          6    2    1    2  501    0 -0.19850121356E+03  0.17653770589E+03  0.30993175795E+02  0.31794979474E+03  0.17193952903E+03 0.  0.
         24    2    5    5    0    0 -0.20111233272E+03  0.14766743307E+03 -0.16026195491E+02  0.26251314737E+03  0.80027947846E+02 0.  0.
         14    1    6    6    0    0 -0.12613387290E+03  0.49427977916E+02 -0.28051205343E+02  0.13834648176E+03  0.00000000000E+00 0. -1.
        -13    1    6    6    0    0 -0.74978459818E+02  0.98239455158E+02  0.12025009852E+02  0.12416666561E+03  0.00000000000E+00 0.  1.
          5    1    5    5  501    0  0.26111191593E+01  0.28870272820E+02  0.47019371286E+02  0.55436647375E+02  0.47000000000E+01 0. -1.
         11    1    4    4    0    0 -0.15338487086E+02 -0.30350808542E+02  0.11820771053E+02  0.36002380387E+02  0.00000000000E+00 0. -1.
        -12    1    4    4    0    0  0.57427412418E+02  0.80191987724E+01 -0.90295867330E+01  0.58683461747E+02  0.00000000000E+00 0.  1.
         -5    1    3    3    0  503  0.15641228823E+03 -0.15420609612E+03  0.59784275022E+02  0.22768525102E+03  0.47000000000E+01 0.  1.
</event>
<event>
12    1  0.9749377E-001  0.3747565E+03  0.7818608E-02  0.1052889E+00
         21   -1    0    0  501  502  0.00000000000E+00  0.00000000000E+00  0.31591041691E+03  0.31591041691E+03  0.00000000000E+00 0. -1.
         21   -1    0    0  502  503 -0.00000000000E+00 -0.00000000000E+00 -0.48143659759E+03  0.48143659759E+03  0.00000000000E+00 0.  1.
         -6    2    1    2    0  503  0.15264232683E+03 -0.31011084409E+03 -0.13720847327E+03  0.41023735276E+03  0.17320538356E+03 0.  0.
        -24    2    3    3    0    0  0.51515048867E+01 -0.86451292110E+02 -0.38602746441E+02  0.12471622024E+03  0.81016045618E+02 0.  0.
          6    2    1    2  501    0 -0.15264232683E+03  0.31011084409E+03 -0.28317707410E+02  0.38710966174E+03  0.17199878515E+03 0.  0.
         24    2    5    5    0    0 -0.93374541683E+02  0.84544002737E+02 -0.38707562425E+02  0.15360782157E+03  0.78934111922E+02 0.  0.
         12    1    6    6    0    0 -0.20985316280E+02 -0.14831792073E+02 -0.72643953853E+01  0.26704624989E+02  0.00000000000E+00 0. -1.
        -11    1    6    6    0    0 -0.72389225403E+02  0.99375794810E+02 -0.31443167040E+02  0.12690319658E+03  0.00000000000E+00 0.  1.
          5    1    5    5  501    0 -0.59267785150E+02  0.22556684136E+03  0.10389855015E+02  0.23350184017E+03  0.47000000000E+01 0. -1.
         11    1    4    4    0    0  0.22564446272E+02 -0.76128572940E+02  0.19127050636E+01  0.79425262317E+02  0.00000000000E+00 0. -1.
        -12    1    4    4    0    0 -0.17412941385E+02 -0.10322719169E+02 -0.40515451505E+02  0.45290957921E+02  0.00000000000E+00 0.  1.
         -5    1    3    3    0  503  0.14749082195E+03 -0.22365955198E+03 -0.98605726833E+02  0.28552113252E+03  0.47000000000E+01 0.  1.
</event>
<event>
12    1  0.9749377E-001  0.8907208E+03  0.7818608E-02  0.9437256E-01
         21   -1    0    0  503  502  0.00000000000E+00  0.00000000000E+00  0.17053019705E+04  0.17053019705E+04  0.00000000000E+00 0.  1.
         21   -1    0    0  501  503 -0.00000000000E+00 -0.00000000000E+00 -0.48842562135E+03  0.48842562135E+03  0.00000000000E+00 0. -1.
          6    2    1    2  501    0 -0.23899754106E+03 -0.85205621930E+03  0.78011411263E+03  0.11924205180E+04  0.17369236497E+03 0.  0.
         24    2    3    3    0    0 -0.13669475036E+03 -0.31875312445E+03  0.26716796399E+03  0.44541724271E+03  0.82029202082E+02 0.  0.
         -6    2    1    2    0  502  0.23899754106E+03  0.85205621930E+03  0.43676223648E+03  0.10013070738E+04  0.16951395014E+03 0.  0.
        -24    2    5    5    0    0  0.19824333792E+03  0.60819443439E+03  0.38326759267E+03  0.74829869026E+03  0.62096627903E+02 0.  0.
         14    1    4    4    0    0 -0.83787302925E+01 -0.53325324562E+02  0.11518599382E+02  0.55194850237E+02  0.00000000000E+00 0. -1.
        -13    1    4    4    0    0 -0.12831602007E+03 -0.26542779989E+03  0.25564936461E+03  0.39022239247E+03  0.00000000000E+00 0.  1.
          5    1    3    3  501    0 -0.10230279070E+03 -0.53330309485E+03  0.51294614864E+03  0.74700327534E+03  0.47000000000E+01 0. -1.
         11    1    6    6    0    0  0.70327992407E+02  0.30928923209E+03  0.20221752914E+03  0.37616191287E+03  0.00000000000E+00 0. -1.
        -12    1    6    6    0    0  0.12791534551E+03  0.29890520230E+03  0.18105006353E+03  0.37213677739E+03  0.00000000000E+00 0.  1.
         -5    1    5    5    0  502  0.40754203146E+02  0.24386178491E+03  0.53494643809E+02  0.25300838351E+03  0.47000000000E+01 0.  1.
</event>
<event>
12    1  0.9749377E-001  0.1474592E+04  0.7818608E-02  0.8901527E-01
         21   -1    0    0  503  502  0.00000000000E+00  0.00000000000E+00  0.14275374842E+04  0.14275374842E+04  0.00000000000E+00 0. -1.
         21   -1    0    0  501  503 -0.00000000000E+00 -0.00000000000E+00 -0.17107895891E+04  0.17107895891E+04  0.00000000000E+00 0.  1.
          6    2    1    2  501    0 -0.13829079106E+04  0.50202489649E+03  0.35999622067E+03  0.15243020604E+04  0.17156982967E+03 0.  0.
         24    2    3    3    0    0 -0.10534827084E+04  0.34707072884E+03  0.21619968640E+03  0.11328543740E+04  0.79579020619E+02 0.  0.
         -6    2    1    2    0  502  0.13829079106E+04 -0.50202489649E+03 -0.64324832552E+03  0.16140250129E+04  0.16384458497E+03 0.  0.
        -24    2    5    5    0    0  0.80056383375E+03 -0.30726693448E+03 -0.31002186130E+03  0.91537112570E+03  0.80469387707E+02 0.  0.
         14    1    4    4    0    0 -0.28318011869E+03  0.71155382174E+02  0.85586211443E+02  0.30426808512E+03  0.00000000000E+00 0. -1.
        -13    1    4    4    0    0 -0.77030258970E+03  0.27591534667E+03  0.13061347495E+03  0.82858628885E+03  0.00000000000E+00 0.  1.
          5    1    3    3  501    0 -0.32942520225E+03  0.15495416765E+03  0.14379653427E+03  0.39144768644E+03  0.47000000000E+01 0. -1.
         11    1    6    6    0    0  0.54202898034E+03 -0.16971211476E+03 -0.21844470024E+03  0.60853570519E+03  0.00000000000E+00 0. -1.
        -12    1    6    6    0    0  0.25853485340E+03 -0.13755481973E+03 -0.91577161059E+02  0.30683542052E+03  0.00000000000E+00 0.  1.
         -5    1    5    5    0  502  0.58234407689E+03 -0.19475796201E+03 -0.33322646422E+03  0.69865388721E+03  0.47000000000E+01 0.  1.
</event>
<event>
12    1  0.9749377E-001  0.6195970E+03  0.7818608E-02  0.9865562E-01
         21   -1    0    0  501  502  0.00000000000E+00  0.00000000000E+00  0.10890931726E+04  0.10890931726E+04  0.00000000000E+00 0.  1.
         21   -1    0    0  502  503 -0.00000000000E+00 -0.00000000000E+00 -0.57809906082E+03  0.57809906082E+03  0.00000000000E+00 0. -1.
         -6    2    1    2    0  503  0.49268849119E+03 -0.35047894070E+03 -0.25243977057E+03  0.67823504914E+03  0.17521274752E+03 0.  0.
        -24    2    3    3    0    0  0.46279980491E+03 -0.29005156767E+03 -0.18404636798E+03  0.58208647402E+03  0.81474083862E+02 0.  0.
          6    2    1    2  501    0 -0.49268849119E+03  0.35047894070E+03  0.76343388233E+03  0.98895718426E+03  0.17212664633E+03 0.  0.
         24    2    5    5    0    0 -0.36676923472E+03  0.18612609236E+03  0.55523824754E+03  0.69529916844E+03  0.77387520374E+02 0.  0.
         14    1    6    6    0    0 -0.32354847900E+03  0.14322244222E+03  0.43688166577E+03  0.56219380654E+03  0.00000000000E+00 0. -1.
        -13    1    6    6    0    0 -0.43220755719E+02  0.42903650140E+02  0.11835658177E+03  0.13310536191E+03  0.00000000000E+00 0.  1.
          5    1    5    5  501    0 -0.12591925647E+03  0.16435284834E+03  0.20819563479E+03  0.29365801581E+03  0.47000000000E+01 0. -1.
         11    1    4    4    0    0  0.87124928698E+02 -0.27147817714E+02 -0.51488518919E+02  0.10477988732E+03  0.00000000000E+00 0. -1.
        -12    1    4    4    0    0  0.37567487621E+03 -0.26290374996E+03 -0.13255784906E+03  0.47730658670E+03  0.00000000000E+00 0.  1.
         -5    1    3    3    0  503  0.29888686279E+02 -0.60427373031E+02 -0.68393402597E+02  0.96148575121E+02  0.47000000000E+01 0.  1.
</event>
<event>
12    1  0.9749377E-001  0.6196118E+03  0.7818608E-02  0.9865533E-01
         21   -1    0    0  503  502  0.00000000000E+00  0.00000000000E+00  0.50561468290E+03  0.50561468290E+03  0.00000000000E+00 0.  1.
         21   -1    0    0  501  503 -0.00000000000E+00 -0.00000000000E+00 -0.80998212032E+03  0.80998212032E+03  0.00000000000E+00 0. -1.
          6    2    1    2  501    0 -0.66448031339E+02 -0.60555596781E+03 -0.55811672235E+02  0.63554057971E+03  0.17228904399E+03 0.  0.
         24    2    3    3    0    0  0.31741353665E+02 -0.27347714443E+03 -0.81969323597E+01  0.28595975398E+03  0.76866957383E+02 0.  0.
         -6    2    1    2    0  502  0.66448031339E+02  0.60555596781E+03 -0.24855576518E+03  0.68005622351E+03  0.17199746426E+03 0.  0.
        -24    2    5    5    0    0  0.58512668667E+02  0.48162203178E+03 -0.13152258399E+03  0.50934756532E+03  0.82178089006E+02 0.  0.
         12    1    4    4    0    0  0.38372953578E+02 -0.27390166862E+03 -0.15787014898E+01  0.27658109107E+03  0.00000000000E+00 0. -1.
        -11    1    4    4    0    0 -0.66315999134E+01  0.42452418491E+00 -0.66182308699E+01  0.93786629133E+01  0.00000000000E+00 0.  1.
          5    1    3    3  501    0 -0.98189385004E+02 -0.33207882338E+03 -0.47614739875E+02  0.34958082573E+03  0.47000000000E+01 0. -1.
         11    1    6    6    0    0  0.28872261178E+02  0.17674110156E+03 -0.86142359604E+01  0.17929090749E+03  0.00000000000E+00 0. -1.
        -12    1    6    6    0    0  0.29640407489E+02  0.30488093021E+03 -0.12290834803E+03  0.33005665783E+03  0.00000000000E+00 0.  1.
         -5    1    5    5    0  502  0.79353626721E+01  0.12393393603E+03 -0.11703318119E+03  0.17070865819E+03  0.47000000000E+01 0.  1.
</event>
<event>
12    1  0.9749377E-001  0.1937992E+03  0.7818608E-02  0.1155079E+00
         21   -1    0    0  501  502  0.00000000000E+00  0.00000000000E+00  0.80677502915E+03  0.80677502915E+03  0.00000000000E+00 0. -1.
         21   -1    0    0  502  503 -0.00000000000E+00 -0.00000000000E+00 -0.75106473026E+02  0.75106473026E+02  0.00000000000E+00 0.  1.
         -6    2    1    2    0  503  0.13693136695E+03  0.95241302744E+02  0.25308416750E+03  0.34854051636E+03  0.17206914511E+03 0.  0.
        -24    2    3    3    0    0  0.82572210769E+02  0.88951252390E+02  0.83828069597E+02  0.17059614507E+03  0.85705333367E+02 0.  0.
          6    2    1    2  501    0 -0.13693136695E+03 -0.95241302744E+02  0.47858438862E+03  0.53334098582E+03  0.16609781793E+03 0.  0.
         24    2    5    5    0    0 -0.87685563404E+02 -0.16972827946E+02  0.14917777275E+03  0.19116864343E+03  0.79464504224E+02 0.  0.
         12    1    6    6    0    0 -0.61674831503E+02  0.27179640975E+02  0.96217205703E+02  0.11747454362E+03  0.00000000000E+00 0. -1.
        -11    1    6    6    0    0 -0.26010731901E+02 -0.44152468922E+02  0.52960567042E+02  0.73694099814E+02  0.00000000000E+00 0.  1.
          5    1    5    5  501    0 -0.49245803542E+02 -0.78268474798E+02  0.32940661587E+03  0.34217234239E+03  0.47000000000E+01 0. -1.
         11    1    4    4    0    0  0.11469052222E+02  0.14556224301E+02 -0.17991836041E+02  0.25828840254E+02  0.00000000000E+00 0. -1.
        -12    1    4    4    0    0  0.71103158547E+02  0.74395028089E+02  0.10181990564E+03  0.14476730482E+03  0.00000000000E+00 0.  1.
         -5    1    3    3    0  503  0.54359156177E+02  0.62900503536E+01  0.16925609791E+03  0.17794437129E+03  0.47000000000E+01 0.  1.
</event>
<event>
12    1  0.9749377E-001  0.1748593E+03  0.7818608E-02  0.1172873E+00
         21   -1    0    0  501  502  0.00000000000E+00  0.00000000000E+00  0.21030330470E+03  0.21030330470E+03  0.00000000000E+00 0.  1.
         21   -1    0    0  502  503 -0.00000000000E+00 -0.00000000000E+00 -0.36537089494E+03  0.36537089494E+03  0.00000000000E+00 0.  1.
         -6    2    1    2    0  503 -0.47241926329E+02  0.91852383100E+02  0.12093087506E+03  0.23480454538E+03  0.17274327224E+03 0.  0.
        -24    2    3    3    0    0  0.23700966519E+02  0.25209560828E+02  0.16540421691E+02  0.91998325068E+02  0.83623253313E+02 0.  0.
          6    2    1    2  501    0  0.47241926329E+02 -0.91852383100E+02 -0.27599846529E+03  0.34086965427E+03  0.17131348012E+03 0.  0.
         24    2    5    5    0    0  0.17582373769E+02 -0.10746609664E+03 -0.11889220948E+03  0.18015891186E+03  0.80397601052E+02 0.  0.
         12    1    6    6    0    0 -0.95988257702E+01 -0.10559327521E+03 -0.80708875292E+02  0.13325164080E+03  0.00000000000E+00 0. -1.
        -11    1    6    6    0    0  0.27181199539E+02 -0.18728214256E+01 -0.38183334190E+02  0.46907271061E+02  0.00000000000E+00 0.  1.
          5    1    5    5  501    0  0.29659552560E+02  0.15613713535E+02 -0.15710625581E+03  0.16071074240E+03  0.47000000000E+01 0. -1.
         13    1    4    4    0    0 -0.15828335353E+02 -0.19732646541E+02  0.19699414375E+02  0.32062134462E+02  0.00000000000E+00 0. -1.
        -14    1    4    4    0    0  0.39529301872E+02  0.44942207369E+02 -0.31589926839E+01  0.59936190607E+02  0.00000000000E+00 0.  1.
         -5    1    3    3    0  503 -0.70942892849E+02  0.66642822272E+02  0.10439045336E+03  0.14280622031E+03  0.47000000000E+01 0.  1.
</event>
<event>
12    1  0.9749377E-001  0.6781694E+03  0.7818608E-02  0.9755311E-01
         21   -1    0    0  501  502  0.00000000000E+00  0.00000000000E+00  0.21500784324E+04  0.21500784324E+04  0.00000000000E+00 0.  1.
         21   -1    0    0  502  503 -0.00000000000E+00 -0.00000000000E+00 -0.71653197691E+03  0.71653197691E+03  0.00000000000E+00 0. -1.
         -6    2    1    2    0  503  0.53887153948E+03  0.38665128007E+03  0.19119200333E+04  0.20309101782E+04  0.17110286266E+03 0.  0.
        -24    2    3    3    0    0  0.34472946904E+03  0.17515916602E+03  0.11217709635E+04  0.11902094584E+04  0.93323737036E+02 0.  0.
          6    2    1    2  501    0 -0.53887153948E+03 -0.38665128007E+03 -0.47837357783E+03  0.83570023112E+03  0.17225518248E+03 0.  0.
         24    2    5    5    0    0 -0.14305981503E+03 -0.69864367105E+02 -0.11783062253E+03  0.21357951771E+03  0.79906284563E+02 0.  0.
         14    1    6    6    0    0 -0.53899314852E+02  0.28999137324E+01 -0.81274177902E+01  0.54585717556E+02  0.00000000000E+00 0. -1.
        -13    1    6    6    0    0 -0.89160500181E+02 -0.72764280838E+02 -0.10970320474E+03  0.15899380016E+03  0.00000000000E+00 0.  1.
          5    1    5    5  501    0 -0.39581172445E+03 -0.31678691296E+03 -0.36054295530E+03  0.62212071341E+03  0.47000000000E+01 0. -1.
         13    1    4    4    0    0  0.18410825898E+03  0.53692300767E+02  0.63794402996E+03  0.66614660515E+03  0.00000000000E+00 0. -1.
        -14    1    4    4    0    0  0.16062121006E+03  0.12146686525E+03  0.48382693359E+03  0.52406285323E+03  0.00000000000E+00 0.  1.
         -5    1    3    3    0  503  0.19414207044E+03  0.21149211405E+03  0.79014906978E+03  0.84070071981E+03  0.47000000000E+01 0.  1.
</event>
<event>
12    1  0.9749377E-001  0.3973019E+03  0.7818608E-02  0.1044718E+00
         21   -1    0    0  501  502  0.00000000000E+00  0.00000000000E+00  0.12051735907E+04  0.12051735907E+04  0.00000000000E+00 0.  1.
         21   -1    0    0  502  503 -0.00000000000E+00 -0.00000000000E+00 -0.14336186484E+03  0.14336186484E+03  0.00000000000E+00 0. -1.
         -6    2    1    2    0  503 -0.25161698446E+03  0.28077880275E+03  0.49351473173E+03  0.64430868079E+03  0.17154895153E+03 0.  0.
        -24    2    3    3    0    0 -0.24758442345E+03  0.23843257592E+03  0.35688232101E+03  0.50113057446E+03  0.74958132397E+02 0.  0.
          6    2    1    2  501    0  0.25161698446E+03 -0.28077880275E+03  0.56829699415E+03  0.70422677477E+03  0.17557344273E+03 0.  0.
         24    2    5    5    0    0  0.67950919280E+02 -0.16283186398E+03  0.22219303061E+03  0.29501442470E+03  0.80822178716E+02 0.  0.
         12    1    6    6    0    0  0.79044730084E+02 -0.15331090940E+03  0.17545014922E+03  0.24603873507E+03  0.00000000000E+00 0. -1.
        -11    1    6    6    0    0 -0.11093810804E+02 -0.95209545846E+01  0.46742881386E+02  0.48975689628E+02  0.00000000000E+00 0.  1.
          5    1    5    5  501    0  0.18366606518E+03 -0.11794693876E+03  0.34610396355E+03  0.40921235007E+03  0.47000000000E+01 0. -1.
         13    1    4    4    0    0 -0.95123190673E+02  0.63730942006E+02  0.78474686789E+02  0.13881041330E+03  0.00000000000E+00 0. -1.
        -14    1    4    4    0    0 -0.15246123278E+03  0.17470163392E+03  0.27840763422E+03  0.36232016116E+03  0.00000000000E+00 0.  1.
         -5    1    3    3    0  503 -0.40325610110E+01  0.42346226823E+02  0.13663241072E+03  0.14317810633E+03  0.47000000000E+01 0.  1.
</event>
<event>
12    1  0.9749377E-001  0.2004585E+03  0.7818608E-02  0.1149353E+00
         21   -1    0    0  503  502  0.00000000000E+00  0.00000000000E+00  0.39239130264E+03  0.39239130264E+03  0.00000000000E+00 0.  1.
         21   -1    0    0  501  503 -0.00000000000E+00 -0.00000000000E+00 -0.11939151714E+03  0.11939151714E+03  0.00000000000E+00 0. -1.
          6    2    1    2  501    0  0.71998952819E+02 -0.10542051190E+03  0.16902416347E+03  0.27396136040E+03  0.17374787946E+03 0.  0.
         24    2    3    3    0    0  0.10826463612E+03 -0.11291455840E+03  0.15438236049E+03  0.23386356853E+03  0.79920751496E+02 0.  0.
         -6    2    1    2    0  502 -0.71998952819E+02  0.10542051190E+03  0.10397562203E+03  0.23782145938E+03  0.17161230441E+03 0.  0.
        -24    2    5    5    0    0 -0.29783534503E+02  0.12136633673E+03  0.30688313615E+02  0.15162673536E+03  0.80200047786E+02 0.  0.
         12    1    4    4    0    0  0.46702097237E+02 -0.94760511534E+02  0.65754499053E+02  0.12443590550E+03  0.00000000000E+00 0. -1.
        -11    1    4    4    0    0  0.61562538887E+02 -0.18154046865E+02  0.88627861441E+02  0.10942766303E+03  0.00000000000E+00 0.  1.
          5    1    3    3  501    0 -0.36265683305E+02  0.74940464939E+01  0.14641802979E+02  0.40097791871E+02  0.47000000000E+01 0. -1.
         13    1    6    6    0    0  0.27148432899E+02  0.27749863897E+02  0.56078321853E+01  0.39224228954E+02  0.00000000000E+00 0. -1.
        -14    1    6    6    0    0 -0.56931967402E+02  0.93616472834E+02  0.25080481430E+02  0.11240250641E+03  0.00000000000E+00 0.  1.
         -5    1    5    5    0  502 -0.42215418317E+02 -0.15945824827E+02  0.73287308418E+02  0.86194724016E+02  0.47000000000E+01 0.  1.
</event>
<event>
12    1  0.9749377E-001  0.5420271E+03  0.7818608E-02  0.1003356E+00
         21   -1    0    0  501  502  0.00000000000E+00  0.00000000000E+00  0.29899141804E+03  0.29899141804E+03  0.00000000000E+00 0. -1.
         21   -1    0    0  502  503 -0.00000000000E+00 -0.00000000000E+00 -0.12194876966E+04  0.12194876966E+04  0.00000000000E+00 0.  1.
         -6    2    1    2    0  503  0.18136359842E+03 -0.49530769272E+03 -0.15939148889E+03  0.57691797076E+03  0.17089831176E+03 0.  0.
        -24    2    3    3    0    0  0.12871717892E+03 -0.29587576285E+03 -0.30522742106E+02  0.33366093791E+03  0.79293155491E+02 0.  0.
          6    2    1    2  501    0 -0.18136359842E+03  0.49530769272E+03 -0.76110478968E+03  0.94156114390E+03  0.17039489876E+03 0.  0.
         24    2    5    5    0    0 -0.11994207824E+03  0.16611174095E+03 -0.29394313055E+03  0.36675275533E+03  0.78267534346E+02 0.  0.
         12    1    6    6    0    0 -0.36082454107E+02  0.17490070613E+02 -0.10373009694E+03  0.11121051692E+03  0.00000000000E+00 0. -1.
        -11    1    6    6    0    0 -0.83859624136E+02  0.14862167034E+03 -0.19021303361E+03  0.25554223841E+03  0.00000000000E+00 0.  1.
          5    1    5    5  501    0 -0.61421520176E+02  0.32919595177E+03 -0.46716165913E+03  0.57480838856E+03  0.47000000000E+01 0. -1.
         11    1    4    4    0    0  0.28238729972E+02 -0.16333902567E+03 -0.20744259632E+02  0.16705504328E+03  0.00000000000E+00 0. -1.
        -12    1    4    4    0    0  0.10047844895E+03 -0.13253673718E+03 -0.97784824735E+01  0.16660589463E+03  0.00000000000E+00 0.  1.
         -5    1    3    3    0  503  0.52646419501E+02 -0.19943192987E+03 -0.12886874679E+03  0.24325703286E+03  0.47000000000E+01 0.  1.
</event>
<event>
12    1  0.9749377E-001  0.3185332E+03  0.7818608E-02  0.1076326E+00
         21   -1    0    0  501  502  0.00000000000E+00  0.00000000000E+00  0.19628954462E+04  0.19628954462E+04  0.00000000000E+00 0.  1.
         21   -1    0    0  502  503 -0.00000000000E+00 -0.00000000000E+00 -0.55784273493E+02  0.55784273493E+02  0.00000000000E+00 0. -1.
         -6    2    1    2    0  503 -0.24566424457E+03  0.13853487283E+03  0.10247311392E+04  0.10765467227E+04  0.17127786311E+03 0.  0.
        -24    2    3    3    0    0 -0.25367190729E+03  0.15728119097E+03  0.97425851830E+03  0.10219104475E+04  0.77681996700E+02 0.  0.
          6    2    1    2  501    0  0.24566424457E+03 -0.13853487283E+03  0.88238003345E+03  0.94213299698E+03  0.17168933718E+03 0.  0.
         24    2    5    5    0    0  0.24736309033E+03 -0.15085830981E+03  0.75187593899E+03  0.81095311343E+03  0.91546689978E+02 0.  0.
         14    1    6    6    0    0  0.19825209308E+03 -0.80012498842E+02  0.47330117637E+03  0.51934564207E+03  0.00000000000E+00 0. -1.
        -13    1    6    6    0    0  0.49110997248E+02 -0.70845810971E+02  0.27857476262E+03  0.29160747136E+03  0.00000000000E+00 0.  1.
          5    1    5    5  501    0 -0.16988457617E+01  0.12323436983E+02  0.13050409446E+03  0.13117988355E+03  0.47000000000E+01 0. -1.
         13    1    4    4    0    0 -0.21453112894E+02 -0.15584983665E+01  0.13617102665E+03  0.13785939746E+03  0.00000000000E+00 0. -1.
        -14    1    4    4    0    0 -0.23221879439E+03  0.15883968933E+03  0.83808749165E+03  0.88405105002E+03  0.00000000000E+00 0.  1.
         -5    1    3    3    0  503  0.80076627196E+01 -0.18746318136E+02  0.50472620924E+02  0.54636275210E+02  0.47000000000E+01 0.  1.
</event>
<event>
12    1  0.9749377E-001  0.3912505E+03  0.7818608E-02  0.1046852E+00
         21   -1    0    0  501  502  0.00000000000E+00  0.00000000000E+00  0.24891884506E+03  0.24891884506E+03  0.00000000000E+00 0.  1.
         21   -1    0    0  502  503 -0.00000000000E+00 -0.00000000000E+00 -0.71396247160E+03  0.71396247160E+03  0.00000000000E+00 0. -1.
         -6    2    1    2    0  503  0.24633680757E+03 -0.26592577188E+03 -0.86141951227E+02  0.41064566927E+03  0.17265888629E+03 0.  0.
        -24    2    3    3    0    0  0.34840942405E+02 -0.66154699416E+02 -0.61623583779E+01  0.10888780666E+03  0.78919226144E+02 0.  0.
          6    2    1    2  501    0 -0.24633680757E+03  0.26592577188E+03 -0.37890167531E+03  0.55223564739E+03  0.17320332495E+03 0.  0.
         24    2    5    5    0    0 -0.10187931373E+03  0.20997531752E+03 -0.24373809633E+03  0.34659104144E+03  0.79044682754E+02 0.  0.
         14    1    6    6    0    0 -0.85568809683E+02  0.11772040447E+03 -0.18738780011E+03  0.23726420389E+03  0.00000000000E+00 0. -1.
        -13    1    6    6    0    0 -0.16310504043E+02  0.92254913050E+02 -0.56350296220E+02  0.10932683755E+03  0.00000000000E+00 0.  1.
          5    1    5    5  501    0 -0.14445749385E+03  0.55950454365E+02 -0.13516357898E+03  0.20564460595E+03  0.47000000000E+01 0. -1.
         13    1    4    4    0    0  0.48669401511E+02 -0.67740013479E+02 -0.23496047475E+02  0.86657280805E+02  0.00000000000E+00 0. -1.
        -14    1    4    4    0    0 -0.13828459105E+02  0.15853140634E+01  0.17333689097E+02  0.22230525851E+02  0.00000000000E+00 0.  1.
         -5    1    3    3    0  503  0.21149586517E+03 -0.19977107247E+03 -0.79979592849E+02  0.30175786262E+03  0.47000000000E+01 0.  1.
</event>
<event>
12    1  0.9749377E-001  0.1564648E+04  0.7818608E-02  0.8842565E-01
         21   -1    0    0  503  502  0.00000000000E+00  0.00000000000E+00  0.14904762206E+04  0.14904762206E+04  0.00000000000E+00 0. -1.
         21   -1    0    0  501  503 -0.00000000000E+00 -0.00000000000E+00 -0.21177701145E+04  0.21177701145E+04  0.00000000000E+00 0.  1.
          6    2    1    2  501    0 -0.10629851930E+04 -0.11409800208E+04 -0.11605942871E+04  0.19514375677E+04  0.17133754051E+03 0.  0.
         24    2    3    3    0    0 -0.71199915092E+03 -0.82163403616E+03 -0.87350763402E+03  0.13968080553E+04  0.77665154654E+02 0.  0.
         -6    2    1    2    0  502  0.10629851930E+04  0.11409800208E+04  0.53330039322E+03  0.16568087674E+04  0.16980298505E+03 0.  0.
        -24    2    5    5    0    0  0.10665528020E+04  0.11385047739E+04  0.52935264745E+03  0.16492901653E+04  0.78840499011E+02 0.  0.
         14    1    4    4    0    0 -0.24162135023E+03 -0.30542646856E+03 -0.35538917631E+03  0.52722639466E+03  0.00000000000E+00 0. -1.
        -13    1    4    4    0    0 -0.47037780069E+03 -0.51620756761E+03 -0.51811845771E+03  0.86958166060E+03  0.00000000000E+00 0.  1.
          5    1    3    3  501    0 -0.35098604211E+03 -0.31934598464E+03 -0.28708665309E+03  0.55462951242E+03  0.47000000000E+01 0. -1.
         11    1    6    6    0    0  0.64178406380E+03  0.65689345673E+03  0.34698750863E+03  0.98173118988E+03  0.00000000000E+00 0. -1.
        -12    1    6    6    0    0  0.42476873817E+03  0.48161131718E+03  0.18236513882E+03  0.66755897539E+03  0.00000000000E+00 0.  1.
         -5    1    5    5    0  502 -0.35676089461E+01  0.24752468971E+01  0.39477457672E+01  0.75186020932E+01  0.47000000000E+01 0.  1.
</event>
<event>
12    1  0.9749377E-001  0.2442713E+03  0.7818608E-02  0.1116980E+00
         21   -1    0    0  501  502  0.00000000000E+00  0.00000000000E+00  0.92590973374E+02  0.92590973374E+02  0.00000000000E+00 0. -1.
         21   -1    0    0  502  503 -0.00000000000E+00 -0.00000000000E+00 -0.76057524148E+03  0.76057524148E+03  0.00000000000E+00 0.  1.
         -6    2    1    2    0  503  0.19385795595E+03 -0.60549037020E+02 -0.31168728604E+03  0.41020932563E+03  0.17284569300E+03 0.  0.
        -24    2    3    3    0    0  0.14709348052E+03 -0.10536773957E+03 -0.18619196395E+03  0.26890540451E+03  0.70027255967E+02 0.  0.
          6    2    1    2  501    0 -0.19385795595E+03  0.60549037020E+02 -0.35629698207E+03  0.44295688922E+03  0.16738032535E+03 0.  0.
         24    2    5    5    0    0 -0.13694620573E+03  0.96781720413E+01 -0.13481086223E+03  0.20863876467E+03  0.80673634278E+02 0.  0.
         14    1    6    6    0    0 -0.11713335492E+02 -0.24916720683E+02 -0.12634380948E+02  0.30293114397E+02  0.00000000000E+00 0. -1.
        -13    1    6    6    0    0 -0.12523287024E+03  0.34594892724E+02 -0.12217648129E+03  0.17834565027E+03  0.00000000000E+00 0.  1.
          5    1    5    5  501    0 -0.56911750212E+02  0.50870864978E+02 -0.22148611983E+03  0.23431812456E+03  0.47000000000E+01 0. -1.
         13    1    4    4    0    0  0.14189144794E+03 -0.78220765430E+02 -0.17655755105E+03  0.23963355352E+03  0.00000000000E+00 0. -1.
        -14    1    4    4    0    0  0.52020325868E+01 -0.27146974139E+02 -0.96344129009E+01  0.29271850981E+02  0.00000000000E+00 0.  1.
         -5    1    3    3    0  503  0.46764475422E+02  0.44818702549E+02 -0.12549532209E+03  0.14130392112E+03  0.47000000000E+01 0.  1.
</event>
<event>
12    1  0.9749377E-001  0.3078063E+03  0.7818608E-02  0.1081402E+00
         21   -1    0    0  501  502  0.00000000000E+00  0.00000000000E+00  0.63921509108E+03  0.63921509108E+03  0.00000000000E+00 0.  1.
         21   -1    0    0  502  503 -0.00000000000E+00 -0.00000000000E+00 -0.16719158888E+03  0.16719158888E+03  0.00000000000E+00 0. -1.
         -6    2    1    2    0  503  0.91596141682E+02  0.25979085580E+03  0.19040819490E+03  0.37647006785E+03  0.17202700188E+03 0.  0.
        -24    2    3    3    0    0  0.79798033626E+02  0.69465353094E+02  0.61320933670E+02  0.14614724366E+03  0.80034982796E+02 0.  0.
          6    2    1    2  501    0 -0.91596141682E+02 -0.25979085580E+03  0.28161530730E+03  0.42993661210E+03  0.17221256399E+03 0.  0.
         24    2    5    5    0    0 -0.29364276680E+02 -0.10038084763E+03  0.45993841564E+02  0.13869114718E+03  0.78620770332E+02 0.  0.
         14    1    6    6    0    0 -0.33342979156E+02 -0.37930115128E+01  0.60743500725E+01  0.34103356493E+02  0.00000000000E+00 0. -1.
        -13    1    6    6    0    0  0.39787024753E+01 -0.96587836117E+02  0.39919491492E+02  0.10458779068E+03  0.00000000000E+00 0.  1.
          5    1    5    5  501    0 -0.62231865002E+02 -0.15941000817E+03  0.23562146573E+03  0.29124546493E+03  0.47000000000E+01 0. -1.
         11    1    4    4    0    0  0.50733476303E+02  0.29063177358E+01 -0.42634722296E+00  0.50818442248E+02  0.00000000000E+00 0. -1.
        -12    1    4    4    0    0  0.29064557322E+02  0.66559035358E+02  0.61747280893E+02  0.95328801408E+02  0.00000000000E+00 0.  1.
         -5    1    3    3    0  503  0.11798108056E+02  0.19032550270E+03  0.12908726123E+03  0.23032282420E+03  0.47000000000E+01 0.  1.
</event>
<event>
12    1  0.9749377E-001  0.4273976E+03  0.7818608E-02  0.1034685E+00
         21   -1    0    0  503  502  0.00000000000E+00  0.00000000000E+00  0.28303098155E+03  0.28303098155E+03  0.00000000000E+00 0.  1.
         21   -1    0    0  501  503 -0.00000000000E+00 -0.00000000000E+00 -0.77823178911E+03  0.77823178911E+03  0.00000000000E+00 0. -1.
          6    2    1    2  501    0  0.36902425383E+03 -0.16942494498E+03 -0.43123172506E+03  0.61656590327E+03  0.17119871637E+03 0.  0.
         24    2    3    3    0    0  0.35189704101E+03 -0.10836322285E+03 -0.36013237095E+03  0.52117678710E+03  0.79723291905E+02 0.  0.
         -6    2    1    2    0  502 -0.36902425383E+03  0.16942494498E+03 -0.63969082500E+02  0.44469686739E+03  0.16964536084E+03 0.  0.
        -24    2    5    5    0    0 -0.26140155304E+03  0.16384965772E+03  0.15107948570E+01  0.31850877805E+03  0.79171187477E+02 0.  0.
         14    1    4    4    0    0  0.21546398585E+03 -0.48397053544E+02 -0.26240131198E+03  0.34295984097E+03  0.00000000000E+00 0. -1.
        -13    1    4    4    0    0  0.13643305516E+03 -0.59966169305E+02 -0.97731058969E+02  0.17821694614E+03  0.00000000000E+00 0.  1.
          5    1    3    3  501    0  0.17127212814E+02 -0.61061722131E+02 -0.71099354111E+02  0.95389116169E+02  0.47000000000E+01 0. -1.
         13    1    6    6    0    0 -0.37820657571E+02  0.49647647096E+02  0.23038584628E+02  0.66528695936E+02  0.00000000000E+00 0. -1.
        -14    1    6    6    0    0 -0.22358089547E+03  0.11420201062E+03 -0.21527789771E+02  0.25198008211E+03  0.00000000000E+00 0.  1.
         -5    1    5    5    0  502 -0.10762270079E+03  0.55752872633E+01 -0.65479877357E+02  0.12618808934E+03  0.47000000000E+01 0.  1.
</event>
<event>
12    1  0.9749377E-001  0.3023259E+03  0.7818608E-02  0.1084084E+00
         21   -1    0    0  501  502  0.00000000000E+00  0.00000000000E+00  0.33312962930E+03  0.33312962930E+03  0.00000000000E+00 0.  1.
         21   -1    0    0  502  503 -0.00000000000E+00 -0.00000000000E+00 -0.31279383113E+03  0.31279383113E+03  0.00000000000E+00 0. -1.
         -6    2    1    2    0  503 -0.19402068199E+03  0.18568013060E+03 -0.40811035648E+02  0.32142063477E+03  0.17182708718E+03 0.  0.
        -24    2    3    3    0    0 -0.21800875593E+03  0.17470979571E+03 -0.28724516592E+02  0.29202761039E+03  0.80023102893E+02 0.  0.
          6    2    1    2  501    0  0.19402068199E+03 -0.18568013060E+03  0.61146833817E+02  0.32450282566E+03  0.17158674961E+03 0.  0.
         24    2    5    5    0    0  0.11070996575E+03 -0.16786232059E+03  0.90941280408E+02  0.23412612047E+03  0.78168207183E+02 0.  0.
         12    1    6    6    0    0 -0.80826632299E+01 -0.10110951561E+01 -0.31432635210E+01  0.87310860644E+01  0.00000000000E+00 0. -1.
        -11    1    6    6    0    0  0.11879262898E+03 -0.16685122544E+03  0.94084543929E+02  0.22539503441E+03  0.00000000000E+00 0.  1.
          5    1    5    5  501    0  0.83310716240E+02 -0.17817810003E+02 -0.29794446591E+02  0.90376705192E+02  0.47000000000E+01 0. -1.
         11    1    4    4    0    0 -0.12920570785E+03  0.96976151590E+02 -0.55849104734E+02  0.17093159865E+03  0.00000000000E+00 0. -1.
        -12    1    4    4    0    0 -0.88803048081E+02  0.77733644123E+02  0.27124588142E+02  0.12109601174E+03  0.00000000000E+00 0.  1.
         -5    1    3    3    0  503  0.23988073947E+02  0.10970334884E+02 -0.12086519056E+02  0.29393024377E+02  0.47000000000E+01 0.  1.
</event>
<event>
12    1  0.9749377E-001  0.2411072E+03  0.7818608E-02  0.1119057E+00
         21   -1    0    0  503  502  0.00000000000E+00  0.00000000000E+00  0.56089098307E+03  0.56089098307E+03  0.00000000000E+00 0. -1.
         21   -1    0    0  501  503 -0.00000000000E+00 -0.00000000000E+00 -0.15642250391E+03  0.15642250391E+03  0.00000000000E+00 0.  1.
          6    2    1    2  501    0 -0.14662094899E+02 -0.19044253491E+03  0.38170227507E+03  0.46066535850E+03  0.17329919100E+03 0.  0.
         24    2    3    3    0    0 -0.15736497079E+01 -0.48346481273E+02  0.20739751050E+03  0.23535038606E+03  0.10018092748E+03 0.  0.
         -6    2    1    2    0  502  0.14662094899E+02  0.19044253491E+03  0.22766204088E+02  0.25664812848E+03  0.16990181187E+03 0.  0.
        -24    2    5    5    0    0  0.70730428364E+01  0.21164782428E+02  0.32605704378E+02  0.86849845330E+02  0.77342017853E+02 0.  0.
         14    1    4    4    0    0  0.34988844844E+02 -0.50121295999E+02  0.17861367700E+03  0.18878349818E+03  0.00000000000E+00 0. -1.
        -13    1    4    4    0    0 -0.36562494552E+02  0.17748147262E+01  0.28783833500E+02  0.46566887873E+02  0.00000000000E+00 0.  1.
          5    1    3    3  501    0 -0.13088445191E+02 -0.14209605363E+03  0.17430476457E+03  0.22531497245E+03  0.47000000000E+01 0. -1.
         13    1    6    6    0    0 -0.28096648689E+02  0.23944660601E+02 -0.26028246866E+01  0.37007338937E+02  0.00000000000E+00 0. -1.
        -14    1    6    6    0    0  0.35169691525E+02 -0.27798781730E+01  0.35208529065E+02  0.49842506393E+02  0.00000000000E+00 0.  1.
         -5    1    5    5    0  502  0.75890520622E+01  0.16927775248E+03 -0.98395002903E+01  0.16979828315E+03  0.47000000000E+01 0.  1.
</event>
<event>
12    1  0.9749377E-001  0.2539091E+03  0.7818608E-02  0.1110859E+00
         21   -1    0    0  503  502  0.00000000000E+00  0.00000000000E+00  0.39859887843E+03  0.39859887843E+03  0.00000000000E+00 0.  1.
         21   -1    0    0  501  503 -0.00000000000E+00 -0.00000000000E+00 -0.18941301454E+03  0.18941301454E+03  0.00000000000E+00 0. -1.
          6    2    1    2  501    0 -0.20144866322E+03 -0.76359550344E+02  0.10327161793E+03  0.29287655548E+03  0.16940869174E+03 0.  0.
         24    2    3    3    0    0 -0.20704871780E+03 -0.51566453083E+02  0.12451253844E+03  0.25942024087E+03  0.79165766094E+02 0.  0.
         -6    2    1    2    0  502  0.20144866322E+03  0.76359550344E+02  0.10591424595E+03  0.29513533749E+03  0.17168195916E+03 0.  0.
        -24    2    5    5    0    0  0.19513108469E+03  0.20062946733E+02  0.56396359315E+02  0.21974747061E+03  0.81423211989E+02 0.  0.
         14    1    4    4    0    0 -0.66546322805E+02 -0.18936688846E+02  0.85516370820E+02  0.11000027701E+03  0.00000000000E+00 0. -1.
        -13    1    4    4    0    0 -0.14050239499E+03 -0.32629764236E+02  0.38996167616E+02  0.14941996387E+03  0.00000000000E+00 0.  1.
          5    1    3    3  501    0  0.56000545799E+01 -0.24793097262E+02 -0.21240920503E+02  0.33456314605E+02  0.47000000000E+01 0. -1.
         11    1    6    6    0    0  0.57869227260E+02  0.43566792358E+02  0.10941859994E+02  0.73257335197E+02  0.00000000000E+00 0. -1.
        -12    1    6    6    0    0  0.13726185743E+03 -0.23503845624E+02  0.45454499321E+02  0.14649013541E+03  0.00000000000E+00 0.  1.
         -5    1    5    5    0  502  0.63175785299E+01  0.56296603611E+02  0.49517886637E+02  0.75387866886E+02  0.47000000000E+01 0.  1.
</event>
<event>
12    1  0.9749377E-001  0.1027410E+04  0.7818608E-02  0.9278982E-01
         21   -1    0    0  501  502  0.00000000000E+00  0.00000000000E+00  0.28400631068E+04  0.28400631068E+04  0.00000000000E+00 0. -1.
         21   -1    0    0  502  503 -0.00000000000E+00 -0.00000000000E+00 -0.45351398499E+03  0.45351398499E+03  0.00000000000E+00 0.  1.
         -6    2    1    2    0  503  0.92095624263E+03  0.44195523306E+03  0.51908664971E+03  0.11580339127E+04  0.16765072070E+03 0.  0.
        -24    2    3    3    0    0  0.66611527971E+03  0.27302306947E+03  0.41699251691E+03  0.83565634797E+03  0.78661365483E+02 0.  0.
          6    2    1    2  501    0 -0.92095624263E+03 -0.44195523306E+03  0.18674624721E+04  0.21355431791E+04  0.17217362226E+03 0.  0.
         24    2    5    5    0    0 -0.61363353156E+03 -0.33793230602E+03  0.11663865991E+04  0.13630164884E+04  0.81313557608E+02 0.  0.
         12    1    6    6    0    0 -0.59457181944E+02 -0.34405999216E+02  0.73370330217E+02  0.10050937580E+03  0.00000000000E+00 0. -1.
        -11    1    6    6    0    0 -0.55417634961E+03 -0.30352630680E+03  0.10930162688E+04  0.12625071126E+04  0.00000000000E+00 0.  1.
          5    1    5    5  501    0 -0.30732271108E+03 -0.10402292704E+03  0.70107587305E+03  0.77252669071E+03  0.47000000000E+01 0. -1.
         13    1    4    4    0    0  0.48946171576E+03  0.23654409893E+03  0.32106020112E+03  0.63135214791E+03  0.00000000000E+00 0. -1.
        -14    1    4    4    0    0  0.17665356395E+03  0.36478970541E+02  0.95932315793E+02  0.20430420006E+03  0.00000000000E+00 0.  1.
         -5    1    3    3    0  503  0.25484096292E+03  0.16893216359E+03  0.10209413279E+03  0.32237756471E+03  0.47000000000E+01 0.  1.
</event>
<event>
12    1  0.9749377E-001  0.2326168E+03  0.7818608E-02  0.1124811E+00
         21   -1    0    0  503  502  0.00000000000E+00  0.00000000000E+00  0.22417371255E+03  0.22417371255E+03  0.00000000000E+00 0. -1.
         21   -1    0    0  501  503 -0.00000000000E+00 -0.00000000000E+00 -0.34274098659E+03  0.34274098659E+03  0.00000000000E+00 0.  1.
          6    2    1    2  501    0  0.14151499258E+03  0.13993516252E+03  0.36862676050E+02  0.26071900975E+03  0.16433868177E+03 0.  0.
         24    2    3    3    0    0  0.54851940220E+02  0.11878435117E+03 -0.19610635150E+02  0.15503473304E+03  0.80825330251E+02 0.  0.
         -6    2    1    2    0  502 -0.14151499258E+03 -0.13993516252E+03 -0.15542995008E+03  0.30619568939E+03  0.17317328889E+03 0.  0.
        -24    2    5    5    0    0 -0.71696648388E+02 -0.33524851860E+01 -0.50696785303E+02  0.12039860992E+03  0.82304390434E+02 0.  0.
         12    1    4    4    0    0 -0.16082002864E+02  0.66173584268E+01  0.85304336527E+01  0.19369784381E+02  0.00000000000E+00 0. -1.
        -11    1    4    4    0    0  0.70933943083E+02  0.11216699274E+03 -0.28141068803E+02  0.13566494866E+03  0.00000000000E+00 0.  1.
          5    1    3    3  501    0  0.86663052359E+02  0.21150811350E+02  0.56473311200E+02  0.10568427671E+03  0.47000000000E+01 0. -1.
         11    1    6    6    0    0 -0.12783087285E+02  0.28426439140E+01 -0.59130190991E+02  0.60562921260E+02  0.00000000000E+00 0. -1.
        -12    1    6    6    0    0 -0.58913561103E+02 -0.61951291000E+01  0.84334056876E+01  0.59835688664E+02  0.00000000000E+00 0.  1.
         -5    1    5    5    0  502 -0.69818344191E+02 -0.13658267733E+03 -0.10473316478E+03  0.18579707946E+03  0.47000000000E+01 0.  1.
</event>
<event>
12    1  0.9749377E-001  0.2188831E+03  0.7818608E-02  0.1134719E+00
         21   -1    0    0  503  502  0.00000000000E+00  0.00000000000E+00  0.35663359186E+03  0.35663359186E+03  0.00000000000E+00 0. -1.
         21   -1    0    0  501  503 -0.00000000000E+00 -0.00000000000E+00 -0.17988177001E+03  0.17988177001E+03  0.00000000000E+00 0.  1.
          6    2    1    2  501    0  0.73975677677E+02 -0.13346691240E+03  0.20120288793E+03  0.30518082558E+03  0.17136778168E+03 0.  0.
         24    2    3    3    0    0  0.11521389155E+03 -0.11996009160E+03  0.17977001177E+03  0.25655487910E+03  0.76409976275E+02 0.  0.
         -6    2    1    2    0  502 -0.73975677677E+02  0.13346691240E+03 -0.24451066076E+02  0.23133453629E+03  0.17213946513E+03 0.  0.
        -24    2    5    5    0    0 -0.61401123348E+02  0.16609148363E+03 -0.13664822925E+02  0.19444395340E+03  0.79153299001E+02 0.  0.
         14    1    4    4    0    0  0.96928346563E+02 -0.10409097012E+03  0.10179207927E+03  0.17490472215E+03  0.00000000000E+00 0. -1.
        -13    1    4    4    0    0  0.18285544983E+02 -0.15869121476E+02  0.77977932506E+02  0.81650156948E+02  0.00000000000E+00 0.  1.
          5    1    3    3  501    0 -0.41238213869E+02 -0.13506820799E+02  0.21432876159E+02  0.48625946486E+02  0.47000000000E+01 0. -1.
         13    1    6    6    0    0 -0.44593758615E+02  0.26659684368E+02 -0.14715210289E+02  0.53998884173E+02  0.00000000000E+00 0. -1.
        -14    1    6    6    0    0 -0.16807364733E+02  0.13943179926E+03  0.10503873632E+01  0.14044506922E+03  0.00000000000E+00 0.  1.
         -5    1    5    5    0  502 -0.12574554329E+02 -0.32624571236E+02 -0.10786243151E+02  0.36890582894E+02  0.47000000000E+01 0.  1.
</event>
<event>
12    1  0.9749377E-001  0.3368911E+03  0.7818608E-02  0.1068128E+00
         21   -1    0    0  503  502  0.00000000000E+00  0.00000000000E+00  0.25578890854E+03  0.25578890854E+03  0.00000000000E+00 0.  1.
         21   -1    0    0  501  503 -0.00000000000E+00 -0.00000000000E+00 -0.50281868883E+03  0.50281868883E+03  0.00000000000E+00 0. -1.
          6    2    1    2  501    0  0.17572058078E+02  0.30678935213E+03 -0.19889998130E+03  0.40457228323E+03  0.17230509567E+03 0.  0.
         24    2    3    3    0    0  0.52024749626E+02  0.21836313993E+03 -0.77708204884E+02  0.25057319353E+03  0.79745374509E+02 0.  0.
         -6    2    1    2    0  502 -0.17572058078E+02 -0.30678935213E+03 -0.48129798997E+02  0.35403531414E+03  0.16910364366E+03 0.  0.
        -24    2    5    5    0    0  0.37574092560E+02 -0.26762316535E+03 -0.38937437212E+02  0.28561252822E+03  0.83811820159E+02 0.  0.
         12    1    4    4    0    0  0.67375605097E+02  0.17106561506E+03 -0.80634967958E+02  0.20076083999E+03  0.00000000000E+00 0. -1.
        -11    1    4    4    0    0 -0.15350855470E+02  0.47297524875E+02  0.29267630745E+01  0.49812353538E+02  0.00000000000E+00 0.  1.
          5    1    3    3  501    0 -0.34452691548E+02  0.88426212196E+02 -0.12119177641E+03  0.15399908970E+03  0.47000000000E+01 0. -1.
         13    1    6    6    0    0 -0.11741794406E+02 -0.14107106937E+03  0.83233817189E+01  0.14180336750E+03  0.00000000000E+00 0. -1.
        -14    1    6    6    0    0  0.49315886965E+02 -0.12655209598E+03 -0.47260818931E+02  0.14380916073E+03  0.00000000000E+00 0.  1.
         -5    1    5    5    0  502 -0.55146150638E+02 -0.39166186781E+02 -0.91923617846E+01  0.68422785915E+02  0.47000000000E+01 0.  1.
</event>
<event>
12    1  0.9749377E-001  0.3668670E+03  0.7818608E-02  0.1055897E+00
         21   -1    0    0  503  502  0.00000000000E+00  0.00000000000E+00  0.33998080796E+03  0.33998080796E+03  0.00000000000E+00 0.  1.
         21   -1    0    0  501  503 -0.00000000000E+00 -0.00000000000E+00 -0.11069150652E+04  0.11069150652E+04  0.00000000000E+00 0. -1.
          6    2    1    2  501    0  0.37513564135E+02 -0.35832288803E+03  0.16485763363E+03  0.43345985806E+03  0.17580344023E+03 0.  0.
         24    2    3    3    0    0 -0.63012960818E+01 -0.22927843320E+03  0.35491860289E+02  0.24549761022E+03  0.80006863544E+02 0.  0.
         -6    2    1    2    0  502 -0.37513564135E+02  0.35832288803E+03 -0.93179189090E+03  0.10134360151E+04  0.17033458019E+03 0.  0.
        -24    2    5    5    0    0 -0.33825442646E+02  0.33591716171E+03 -0.92699741445E+03  0.98975699874E+03  0.79436830650E+02 0.  0.
         14    1    4    4    0    0  0.17079034138E+02 -0.14436292373E+03  0.54755748838E+02  0.15534007592E+03  0.00000000000E+00 0. -1.
        -13    1    4    4    0    0 -0.23380330220E+02 -0.84915509470E+02 -0.19263888549E+02  0.90157534304E+02  0.00000000000E+00 0.  1.
          5    1    3    3  501    0  0.43814860216E+02 -0.12904445483E+03  0.12936577334E+03  0.18796224784E+03  0.47000000000E+01 0. -1.
         11    1    6    6    0    0  0.11557781497E+02  0.57892237977E+02 -0.10033599355E+03  0.11641479774E+03  0.00000000000E+00 0. -1.
        -12    1    6    6    0    0 -0.45383224143E+02  0.27802492374E+03 -0.82666142090E+03  0.87334220100E+03  0.00000000000E+00 0.  1.
         -5    1    5    5    0  502 -0.36881214891E+01  0.22405726321E+02 -0.47944764534E+01  0.23679016376E+02  0.47000000000E+01 0.  1.
</event>
<event>
12    1  0.9749377E-001  0.6406244E+03  0.7818608E-02  0.9824533E-01
         21   -1    0    0  503  502  0.00000000000E+00  0.00000000000E+00  0.17765177347E+04  0.17765177347E+04  0.00000000000E+00 0. -1.
         21   -1    0    0  501  503 -0.00000000000E+00 -0.00000000000E+00 -0.23961789588E+03  0.23961789588E+03  0.00000000000E+00 0.  1.
          6    2    1    2  501    0  0.56189852374E+03 -0.27083665427E+03  0.89127872892E+03  0.11019855372E+04  0.17581782395E+03 0.  0.
         24    2    3    3    0    0  0.45583702603E+03 -0.27285819158E+03  0.69136834752E+03  0.87562436890E+03  0.80553438415E+02 0.  0.
         -6    2    1    2    0  502 -0.56189852374E+03  0.27083665427E+03  0.64562110986E+03  0.91415009337E+03  0.17251472813E+03 0.  0.
        -24    2    5    5    0    0 -0.32224331488E+03  0.22134689658E+03  0.35440624742E+03  0.53373973421E+03  0.80244084199E+02 0.  0.
         12    1    4    4    0    0  0.38541773171E+03 -0.23881383976E+03  0.63005698784E+03  0.77624138379E+03  0.00000000000E+00 0. -1.
        -11    1    4    4    0    0  0.70419294320E+02 -0.34044351821E+02  0.61311359677E+02  0.99382985108E+02  0.00000000000E+00 0.  1.
          5    1    3    3  501    0  0.10606149771E+03  0.20215373049E+01  0.19991038140E+03  0.22636116827E+03  0.47000000000E+01 0. -1.
         13    1    6    6    0    0 -0.15510715770E+03  0.59803820029E+02  0.13591069004E+03  0.21472410886E+03  0.00000000000E+00 0. -1.
        -14    1    6    6    0    0 -0.16713615718E+03  0.16154307655E+03  0.21849555738E+03  0.31901562535E+03  0.00000000000E+00 0.  1.
         -5    1    5    5    0  502 -0.23965520887E+03  0.49489757696E+02  0.29121486244E+03  0.38041035916E+03  0.47000000000E+01 0.  1.
</event>
<event>
12    1  0.9749377E-001  0.4663194E+03  0.7818608E-02  0.1022964E+00
         21   -1    0    0  503  502  0.00000000000E+00  0.00000000000E+00  0.60519072378E+03  0.60519072378E+03  0.00000000000E+00 0. -1.
         21   -1    0    0  501  503 -0.00000000000E+00 -0.00000000000E+00 -0.46290716622E+03  0.46290716622E+03  0.00000000000E+00 0.  1.
          6    2    1    2  501    0 -0.38801014776E+03  0.22679842117E+03 -0.15132600340E+03  0.50456034100E+03  0.17231418918E+03 0.  0.
         24    2    3    3    0    0 -0.20527864891E+03  0.19639667648E+03 -0.11007588086E+03  0.31472164799E+03  0.78879895653E+02 0.  0.
         -6    2    1    2    0  502  0.38801014776E+03 -0.22679842117E+03  0.29360956096E+03  0.56353754901E+03  0.17140185601E+03 0.  0.
        -24    2    5    5    0    0  0.21277310965E+03 -0.12558818099E+03  0.10377942282E+03  0.28603240745E+03  0.99997910562E+02 0.  0.
         12    1    4    4    0    0 -0.10121184627E+03  0.11996704304E+03 -0.98000222539E+02  0.18504046276E+03  0.00000000000E+00 0. -1.
        -11    1    4    4    0    0 -0.10406680264E+03  0.76429633439E+02 -0.12075658319E+02  0.12968118523E+03  0.00000000000E+00 0.  1.
          5    1    3    3  501    0 -0.18273149885E+03  0.30401744687E+02 -0.41250122545E+02  0.18983869300E+03  0.47000000000E+01 0. -1.
         13    1    6    6    0    0  0.61389018688E+02  0.11617289755E+01  0.55520705038E+02  0.82779888364E+02  0.00000000000E+00 0. -1.
        -14    1    6    6    0    0  0.15138409096E+03 -0.12674990997E+03  0.48258717779E+02  0.20325251909E+03  0.00000000000E+00 0.  1.
         -5    1    5    5    0  502  0.17523703811E+03 -0.10121024017E+03  0.18983013815E+03  0.27750514155E+03  0.47000000000E+01 0.  1.
</event>
<event>
12    1  0.9749377E-001  0.1220231E+04  0.7818608E-02  0.9095330E-01
         21   -1    0    0  503  502  0.00000000000E+00  0.00000000000E+00  0.37818761291E+04  0.37818761291E+04  0.00000000000E+00 0.  1.
         21   -1    0    0  501  503 -0.00000000000E+00 -0.00000000000E+00 -0.54074603566E+03  0.54074603566E+03  0.00000000000E+00 0. -1.
          6    2    1    2  501    0  0.98147204023E+03  0.71349687372E+03  0.50692176895E+03  0.13263014983E+04  0.17245529885E+03 0.  0.
         24    2    3    3    0    0  0.42283477353E+03  0.26072754230E+03  0.15993957261E+03  0.52786903545E+03  0.79353353303E+02 0.  0.
         -6    2    1    2    0  502 -0.98147204023E+03 -0.71349687372E+03  0.27342083245E+04  0.29963206664E+04  0.17227077457E+03 0.  0.
        -24    2    5    5    0    0 -0.72514083029E+03 -0.46694619500E+03  0.18218605486E+04  0.20170896005E+04  0.74877399680E+02 0.  0.
         14    1    4    4    0    0  0.28191406893E+03  0.12951778613E+03  0.90334361948E+02  0.32312643986E+03  0.00000000000E+00 0. -1.
        -13    1    4    4    0    0  0.14092070459E+03  0.13120975617E+03  0.69605210665E+02  0.20474259559E+03  0.00000000000E+00 0.  1.
          5    1    3    3  501    0  0.55863726670E+03  0.45276933142E+03  0.34698219634E+03  0.79843246289E+03  0.47000000000E+01 0. -1.
         13    1    6    6    0    0 -0.66670295616E+03 -0.43766821054E+03  0.16352864859E+04  0.18193977535E+04  0.00000000000E+00 0. -1.
        -14    1    6    6    0    0 -0.58437874129E+02 -0.29277984459E+02  0.18657406267E+03  0.19769184700E+03  0.00000000000E+00 0.  1.
         -5    1    5    5    0  502 -0.25633120994E+03 -0.24655067873E+03  0.91234777591E+03  0.97923106598E+03  0.47000000000E+01 0.  1.
</event>
<event>
12    1  0.9749377E-001  0.5702265E+03  0.7818608E-02  0.9969178E-01
         21   -1    0    0  501  502  0.00000000000E+00  0.00000000000E+00  0.26974559228E+03  0.26974559228E+03  0.00000000000E+00 0. -1.
         21   -1    0    0  502  503 -0.00000000000E+00 -0.00000000000E+00 -0.12704056280E+04  0.12704056280E+04  0.00000000000E+00 0.  1.
         -6    2    1    2    0  503  0.11354045337E+03  0.54495642293E+03 -0.52402770802E+03  0.78359531254E+03  0.17189426291E+03 0.  0.
        -24    2    3    3    0    0  0.67908177309E+02  0.22037932434E+03 -0.30087026045E+03  0.38704275114E+03  0.78106404626E+02 0.  0.
          6    2    1    2  501    0 -0.11354045337E+03 -0.54495642293E+03 -0.47663232775E+03  0.75655590778E+03  0.18796150747E+03 0.  0.
         24    2    5    5    0    0 -0.70103342365E+02 -0.50804552960E+03 -0.37886647838E+03  0.64328875472E+03  0.85181422569E+02 0.  0.
         12    1    6    6    0    0 -0.15888472119E+01 -0.22052286023E+03 -0.20061568712E+03  0.29812666811E+03  0.00000000000E+00 0. -1.
        -11    1    6    6    0    0 -0.68514495153E+02 -0.28752266937E+03 -0.17825079126E+03  0.34516208661E+03  0.00000000000E+00 0.  1.
          5    1    5    5  501    0 -0.43437111002E+02 -0.36910893333E+02 -0.97765849372E+02  0.11326715306E+03  0.47000000000E+01 0. -1.
         11    1    4    4    0    0  0.80378083233E+02  0.18094574914E+03 -0.21843885332E+03  0.29481779633E+03  0.00000000000E+00 0. -1.
        -12    1    4    4    0    0 -0.12469905924E+02  0.39433575196E+02 -0.82431407139E+02  0.92224954808E+02  0.00000000000E+00 0.  1.
         -5    1    3    3    0  503  0.45632276057E+02  0.32457709860E+03 -0.22315744756E+03  0.39655256140E+03  0.47000000000E+01 0.  1.
</event>
<event>
12    1  0.9749377E-001  0.3004116E+03  0.7818608E-02  0.1085035E+00
         21   -1    0    0  501  502  0.00000000000E+00  0.00000000000E+00  0.52845872066E+02  0.52845872066E+02  0.00000000000E+00 0.  1.
         21   -1    0    0  502  503 -0.00000000000E+00 -0.00000000000E+00 -0.20784275996E+04  0.20784275996E+04  0.00000000000E+00 0. -1.
         -6    2    1    2    0  503  0.17403587513E+02  0.27829903140E+03 -0.11721228301E+04  0.12170914934E+04  0.17229781964E+03 0.  0.
        -24    2    3    3    0    0  0.40527579176E+02  0.99583671928E+02 -0.33544877270E+03  0.36121798225E+03  0.79957233625E+02 0.  0.
          6    2    1    2  501    0 -0.17403587513E+02 -0.27829903140E+03 -0.85345889747E+03  0.91418197833E+03  0.17199815145E+03 0.  0.
         24    2    5    5    0    0 -0.10767072411E+01 -0.26318240384E+03 -0.84704063903E+03  0.89055226209E+03  0.79620037440E+02 0.  0.
         12    1    6    6    0    0  0.28387987934E+01 -0.26272316344E+03 -0.77347998698E+03  0.81688604447E+03  0.00000000000E+00 0. -1.
        -11    1    6    6    0    0 -0.39155060345E+01 -0.45924039836E+00 -0.73560652054E+02  0.73666217629E+02  0.00000000000E+00 0.  1.
          5    1    5    5  501    0 -0.16326880272E+02 -0.15116627557E+02 -0.64182584385E+01  0.23629716239E+02  0.47000000000E+01 0. -1.
         11    1    4    4    0    0  0.28428846695E+02 -0.23124733775E+01 -0.10784062453E+03  0.11154885547E+03  0.00000000000E+00 0. -1.
        -12    1    4    4    0    0  0.12098732482E+02  0.10189614531E+03 -0.22760814817E+03  0.24966912678E+03  0.00000000000E+00 0.  1.
         -5    1    3    3    0  503 -0.23123991663E+02  0.17871535947E+03 -0.83667405739E+03  0.85587351111E+03  0.47000000000E+01 0.  1.
</event>
<event>
12    1  0.9749377E-001  0.5669205E+03  0.7818608E-02  0.9976516E-01
         21   -1    0    0  503  502  0.00000000000E+00  0.00000000000E+00  0.53275559849E+03  0.53275559849E+03  0.00000000000E+00 0.  1.
         21   -1    0    0  501  503 -0.00000000000E+00 -0.00000000000E+00 -0.62468154155E+03  0.62468154155E+03  0.00000000000E+00 0. -1.
          6    2    1    2  501    0  0.52320839516E+03  0.16605780901E+03  0.17987625763E+02  0.57321165195E+03  0.16409089721E+03 0.  0.
         24    2    3    3    0    0  0.12159455307E+03  0.70719031752E+02  0.20231320701E+02  0.16040384585E+03  0.74388645891E+02 0.  0.
         -6    2    1    2    0  502 -0.52320839516E+03 -0.16605780901E+03 -0.10991356882E+03  0.58422548810E+03  0.16708144013E+03 0.  0.
        -24    2    5    5    0    0 -0.35776286344E+03 -0.17891323198E+03 -0.80507904255E+02  0.41563050308E+03  0.79139000555E+02 0.  0.
         14    1    4    4    0    0  0.97890059666E+02  0.80391062655E+02  0.34245839340E+02  0.13121724067E+03  0.00000000000E+00 0. -1.
        -13    1    4    4    0    0  0.23704493402E+02 -0.96720309032E+01 -0.14014518639E+02  0.29186605180E+02  0.00000000000E+00 0.  1.
          5    1    3    3  501    0  0.40161384209E+03  0.95338777255E+02 -0.22436949379E+01  0.41280780610E+03  0.47000000000E+01 0. -1.
         11    1    6    6    0    0 -0.12897193147E+03 -0.39713619822E+02 -0.57977362537E+02  0.14687513498E+03  0.00000000000E+00 0. -1.
        -12    1    6    6    0    0 -0.22879093197E+03 -0.13919961215E+03 -0.22530541718E+02  0.26875536810E+03  0.00000000000E+00 0.  1.
         -5    1    5    5    0  502 -0.16544553172E+03  0.12855422968E+02 -0.29405664567E+02  0.16859498502E+03  0.47000000000E+01 0.  1.
</event>
<event>
12    1  0.9749377E-001  0.2887329E+03  0.7818608E-02  0.1091013E+00
         21   -1    0    0  501  502  0.00000000000E+00  0.00000000000E+00  0.67442252394E+03  0.67442252394E+03  0.00000000000E+00 0. -1.
         21   -1    0    0  502  503 -0.00000000000E+00 -0.00000000000E+00 -0.13256287249E+03  0.13256287249E+03  0.00000000000E+00 0.  1.
         -6    2    1    2    0  503 -0.21283891869E+02  0.24030620102E+03  0.22226775702E+03  0.37085399024E+03  0.17300188427E+03 0.  0.
        -24    2    3    3    0    0 -0.66561208877E+02  0.21217276688E+03  0.14755122314E+03  0.27895091092E+03  0.81206956110E+02 0.  0.
          6    2    1    2  501    0  0.21283891869E+02 -0.24030620102E+03  0.31959189443E+03  0.43613140619E+03  0.17283388029E+03 0.  0.
         24    2    5    5    0    0  0.81108884424E+02 -0.15882818972E+03  0.15748369255E+03  0.24503233456E+03  0.58606199153E+02 0.  0.
         12    1    6    6    0    0  0.24426007515E+02 -0.10521056186E+03  0.10739498446E+03  0.15231406651E+03  0.00000000000E+00 0. -1.
        -11    1    6    6    0    0  0.56682876909E+02 -0.53617627854E+02  0.50088708090E+02  0.92718268046E+02  0.00000000000E+00 0.  1.
          5    1    5    5  501    0 -0.59824992555E+02 -0.81478011304E+02  0.16210820188E+03  0.19109907163E+03  0.47000000000E+01 0. -1.
         13    1    4    4    0    0  0.15337003789E+02  0.92714221456E+01  0.10723513302E+02  0.20884843580E+02  0.00000000000E+00 0. -1.
        -14    1    4    4    0    0 -0.81898212666E+02  0.20290134474E+03  0.13682770983E+03  0.25806606734E+03  0.00000000000E+00 0.  1.
         -5    1    3    3    0  503  0.45277317008E+02  0.28133434135E+02  0.74716533887E+02  0.91903079316E+02  0.47000000000E+01 0.  1.
</event>
<event>
12    1  0.9749377E-001  0.2636330E+03  0.7818608E-02  0.1104980E+00
         21   -1    0    0  501  502  0.00000000000E+00  0.00000000000E+00  0.19182446853E+03  0.19182446853E+03  0.00000000000E+00 0. -1.
         21   -1    0    0  502  503 -0.00000000000E+00 -0.00000000000E+00 -0.46223126916E+03  0.46223126916E+03  0.00000000000E+00 0.  1.
         -6    2    1    2    0  503  0.10088452680E+03 -0.21181715686E+03 -0.66159499301E+02  0.29846738866E+03  0.17222516384E+03 0.  0.
        -24    2    3    3    0    0  0.74435546781E+02 -0.74830562334E+02  0.16592678173E+02  0.13618711106E+03  0.84447312363E+02 0.  0.
          6    2    1    2  501    0 -0.10088452680E+03  0.21181715686E+03 -0.20424730133E+03  0.35558834902E+03  0.17228441070E+03 0.  0.
         24    2    5    5    0    0 -0.10799154832E+03  0.12509011780E+03 -0.20034065622E+03  0.26835623948E+03  0.67594235380E+02 0.  0.
         14    1    6    6    0    0 -0.68784124516E+02  0.11700587780E+03 -0.17295845636E+03  0.21985508603E+03  0.00000000000E+00 0. -1.
        -13    1    6    6    0    0 -0.39207423799E+02  0.80842399976E+01 -0.27382199853E+02  0.48501153451E+02  0.00000000000E+00 0.  1.
          5    1    5    5  501    0  0.71070215148E+01  0.86727039057E+02 -0.39066451110E+01  0.87232109538E+02  0.47000000000E+01 0. -1.
         11    1    4    4    0    0  0.10443324081E+02  0.12634731880E+02  0.22282784875E+02  0.27662645740E+02  0.00000000000E+00 0. -1.
        -12    1    4    4    0    0  0.63992222700E+02 -0.87465294214E+02 -0.56901067022E+01  0.10852446532E+03  0.00000000000E+00 0.  1.
         -5    1    3    3    0  503  0.26448980019E+02 -0.13698659452E+03 -0.82752177474E+02  0.16228027761E+03  0.47000000000E+01 0.  1.
</event>
<event>
12    1  0.9749377E-001  0.6227984E+03  0.7818608E-02  0.9859204E-01
         21   -1    0    0  503  502  0.00000000000E+00  0.00000000000E+00  0.80492724942E+03  0.80492724942E+03  0.00000000000E+00 0. -1.
         21   -1    0    0  501  503 -0.00000000000E+00 -0.00000000000E+00 -0.68115137877E+03  0.68115137877E+03  0.00000000000E+00 0.  1.
          6    2    1    2  501    0  0.34659701982E+03 -0.50124014916E+03 -0.32324827260E+03  0.71103227186E+03  0.17235505390E+03 0.  0.
         24    2    3    3    0    0  0.18979398189E+03 -0.38873810193E+03 -0.22108105027E+03  0.49261950975E+03  0.81597078000E+02 0.  0.
         -6    2    1    2    0  502 -0.34659701982E+03  0.50124014916E+03  0.44702414325E+03  0.77504635633E+03  0.17174134194E+03 0.  0.
        -24    2    5    5    0    0 -0.22882233330E+03  0.40715037780E+03  0.28991770597E+03  0.55726599796E+03  0.91444113431E+02 0.  0.
         14    1    4    4    0    0  0.38695199865E+02 -0.58487808922E+02 -0.56520719875E+01  0.70356863225E+02  0.00000000000E+00 0. -1.
        -13    1    4    4    0    0  0.15109878203E+03 -0.33025029301E+03 -0.21542897829E+03  0.42226264652E+03  0.00000000000E+00 0.  1.
          5    1    3    3  501    0  0.15680303793E+03 -0.11250204723E+03 -0.10216722232E+03  0.21841276211E+03  0.47000000000E+01 0. -1.
         13    1    6    6    0    0 -0.78807296550E+02  0.17640003524E+03  0.16884395099E+03  0.25658496099E+03  0.00000000000E+00 0. -1.
        -14    1    6    6    0    0 -0.15001503675E+03  0.23075034256E+03  0.12107375498E+03  0.30068103696E+03  0.00000000000E+00 0.  1.
         -5    1    5    5    0  502 -0.11777468652E+03  0.94089771363E+02  0.15710643728E+03  0.21778035837E+03  0.47000000000E+01 0.  1.
</event>
<event>
12    1  0.9749377E-001  0.3017910E+03  0.7818608E-02  0.1084349E+00
         21   -1    0    0  503  502  0.00000000000E+00  0.00000000000E+00  0.23393407482E+03  0.23393407482E+03  0.00000000000E+00 0.  1.
         21   -1    0    0  501  503 -0.00000000000E+00 -0.00000000000E+00 -0.55318990138E+03  0.55318990138E+03  0.00000000000E+00 0. -1.
          6    2    1    2  501    0  0.15640159941E+03 -0.23277194038E+03  0.30420469549E+01  0.32892455492E+03  0.17186585539E+03 0.  0.
         24    2    3    3    0    0  0.48707891923E+02 -0.65363059157E+02 -0.46506406242E+02  0.12373974223E+03  0.80646697059E+02 0.  0.
         -6    2    1    2    0  502 -0.15640159941E+03  0.23277194038E+03 -0.32229787352E+03  0.45819942129E+03  0.16560964303E+03 0.  0.
        -24    2    5    5    0    0 -0.16655329000E+03  0.22538033972E+03 -0.24736739672E+03  0.38207873464E+03  0.79102683668E+02 0.  0.
         14    1    4    4    0    0  0.63163518991E+02 -0.58131452810E+02 -0.13377971969E+02  0.86878455736E+02  0.00000000000E+00 0. -1.
        -13    1    4    4    0    0 -0.14455627068E+02 -0.72316063476E+01 -0.33128434272E+02  0.36861286489E+02  0.00000000000E+00 0.  1.
          5    1    3    3  501    0  0.10769370749E+03 -0.16740888122E+03  0.49548453197E+02  0.20518481269E+03  0.47000000000E+01 0. -1.
         13    1    6    6    0    0 -0.61484350087E+02  0.14261302238E+03 -0.15581264293E+03  0.21999177065E+03  0.00000000000E+00 0. -1.
        -14    1    6    6    0    0 -0.10506893991E+03  0.82767317344E+02 -0.91554753788E+02  0.16208696399E+03  0.00000000000E+00 0.  1.
         -5    1    5    5    0  502  0.10151690583E+02  0.73916006567E+01 -0.74930476800E+02  0.76120686645E+02  0.47000000000E+01 0.  1.
</event>
<event>
12    1  0.9749377E-001  0.4327443E+03  0.7818608E-02  0.1032997E+00
         21   -1    0    0  503  502  0.00000000000E+00  0.00000000000E+00  0.96816662225E+03  0.96816662225E+03  0.00000000000E+00 0. -1.
         21   -1    0    0  501  503 -0.00000000000E+00 -0.00000000000E+00 -0.20975438540E+03  0.20975438540E+03  0.00000000000E+00 0.  1.
          6    2    1    2  501    0  0.65764013428E+02  0.39768686158E+03  0.51779049304E+03  0.67777111454E+03  0.16966715560E+03 0.  0.
         24    2    3    3    0    0 -0.26082070644E+02  0.23538647745E+03  0.31260421318E+03  0.40046150906E+03  0.80999740540E+02 0.  0.
         -6    2    1    2    0  502 -0.65764013428E+02 -0.39768686158E+03  0.24062174381E+03  0.50014989310E+03  0.17254375284E+03 0.  0.
        -24    2    5    5    0    0  0.72382514741E+01 -0.97383560388E+02  0.99891283226E+02  0.16053458732E+03  0.79102055239E+02 0.  0.
         14    1    4    4    0    0  0.15734844035E+02  0.19813178399E+02  0.63679577996E+02  0.68521792219E+02  0.00000000000E+00 0. -1.
        -13    1    4    4    0    0 -0.41816914679E+02  0.21557329905E+03  0.24892463518E+03  0.33193971684E+03  0.00000000000E+00 0.  1.
          5    1    3    3  501    0  0.91846084072E+02  0.16230038413E+03  0.20518627987E+03  0.27730960548E+03  0.47000000000E+01 0. -1.
         13    1    6    6    0    0 -0.31838356183E+02 -0.18221350762E+02  0.21811289600E+02  0.42678225151E+02  0.00000000000E+00 0. -1.
        -14    1    6    6    0    0  0.39076607657E+02 -0.79162209626E+02  0.78079993626E+02  0.11785636217E+03  0.00000000000E+00 0.  1.
         -5    1    5    5    0  502 -0.73002264902E+02 -0.30030330119E+03  0.14073046058E+03  0.33961530578E+03  0.47000000000E+01 0.  1.
</event>
<event>
12    1  0.9749377E-001  0.6388941E+03  0.7818608E-02  0.9827845E-01
         21   -1    0    0  503  502  0.00000000000E+00  0.00000000000E+00  0.92643258238E+03  0.92643258238E+03  0.00000000000E+00 0. -1.
         21   -1    0    0  501  503 -0.00000000000E+00 -0.00000000000E+00 -0.47385696830E+03  0.47385696830E+03  0.00000000000E+00 0.  1.
          6    2    1    2  501    0  0.26492702824E+03  0.57171814768E+03  0.34185369212E+03  0.73737262921E+03  0.17264552359E+03 0.  0.
         24    2    3    3    0    0  0.46524195239E+02  0.21053530052E+03  0.12973233109E+03  0.26496347567E+03  0.82979227524E+02 0.  0.
         -6    2    1    2    0  502 -0.26492702824E+03 -0.57171814768E+03  0.11072192196E+03  0.66291692147E+03  0.17364195947E+03 0.  0.
        -24    2    5    5    0    0 -0.75088099443E+02 -0.26481712308E+03  0.94365876269E+02  0.30164601478E+03  0.79492567427E+02 0.  0.
         14    1    4    4    0    0  0.54029642387E+02  0.18673344833E+03  0.13830774413E+03  0.23857412908E+03  0.00000000000E+00 0. -1.
        -13    1    4    4    0    0 -0.75054471483E+01  0.23801852191E+02 -0.85754130349E+01  0.26389346588E+02  0.00000000000E+00 0.  1.
          5    1    3    3  501    0  0.21840283300E+03  0.36118284715E+03  0.21212136103E+03  0.47240915354E+03  0.47000000000E+01 0. -1.
         13    1    6    6    0    0 -0.56321086947E+02 -0.18210481849E+03  0.25338830484E+02  0.19229218934E+03  0.00000000000E+00 0. -1.
        -14    1    6    6    0    0 -0.18767012496E+02 -0.82712304590E+02  0.69027045784E+02  0.10935382544E+03  0.00000000000E+00 0.  1.
         -5    1    5    5    0  502 -0.18983892880E+03 -0.30690102460E+03  0.16356045695E+02  0.36127090669E+03  0.47000000000E+01 0.  1.
</event>
<event>
12    1  0.9749377E-001  0.3618373E+03  0.7818608E-02  0.1057859E+00
         21   -1    0    0  503  502  0.00000000000E+00  0.00000000000E+00  0.11388997232E+04  0.11388997232E+04  0.00000000000E+00 0.  1.
         21   -1    0    0  501  503 -0.00000000000E+00 -0.00000000000E+00 -0.12378277233E+03  0.12378277233E+03  0.00000000000E+00 0. -1.
          6    2    1    2  501    0  0.29600019357E+03  0.15094656811E+03  0.56582246919E+03  0.67818315166E+03  0.17139527280E+03 0.  0.
         24    2    3    3    0    0  0.28397692500E+03  0.82167118761E+02  0.47831060807E+03  0.56613143380E+03  0.65798428555E+02 0.  0.
         -6    2    1    2    0  502 -0.29600019357E+03 -0.15094656811E+03  0.44929448167E+03  0.58449934387E+03  0.17138544484E+03 0.  0.
        -24    2    5    5    0    0 -0.18452267865E+03 -0.14419752742E+03  0.22443389576E+03  0.33338749832E+03  0.77039630155E+02 0.  0.
         14    1    4    4    0    0  0.19733014543E+03  0.47803799174E+02  0.37879768831E+03  0.42978143071E+03  0.00000000000E+00 0. -1.
        -13    1    4    4    0    0  0.86646779574E+02  0.34363319587E+02  0.99512919760E+02  0.13635000309E+03  0.00000000000E+00 0.  1.
          5    1    3    3  501    0  0.12023268564E+02  0.68779449348E+02  0.87511861118E+02  0.11205171786E+03  0.47000000000E+01 0. -1.
         13    1    6    6    0    0 -0.13487736529E+03 -0.59346880833E+02  0.12078829643E+03  0.19053547829E+03  0.00000000000E+00 0. -1.
        -14    1    6    6    0    0 -0.49645313366E+02 -0.84850646582E+02  0.10364559934E+03  0.14285202003E+03  0.00000000000E+00 0.  1.
         -5    1    5    5    0  502 -0.11147751491E+03 -0.67490406938E+01  0.22486058591E+03  0.25111184555E+03  0.47000000000E+01 0.  1.
</event>
<event>
12    1  0.9749377E-001  0.5482745E+03  0.7818608E-02  0.1001894E+00
         21   -1    0    0  503  502  0.00000000000E+00  0.00000000000E+00  0.19202807069E+04  0.19202807069E+04  0.00000000000E+00 0. -1.
         21   -1    0    0  501  503 -0.00000000000E+00 -0.00000000000E+00 -0.20055398844E+03  0.20055398844E+03  0.00000000000E+00 0.  1.
          6    2    1    2  501    0 -0.55228211538E+02 -0.53039104206E+03  0.40372687010E+03  0.69053639530E+03  0.17169832484E+03 0.  0.
         24    2    3    3    0    0 -0.99912805655E+02 -0.32810664669E+03  0.27145723940E+03  0.44470508167E+03  0.80231144196E+02 0.  0.
         -6    2    1    2    0  502  0.55228211538E+02  0.53039104206E+03  0.13159998484E+04  0.14302983000E+04  0.17185113723E+03 0.  0.
        -24    2    5    5    0    0  0.14566517160E+02  0.34994024457E+03  0.10215404249E+04  0.10825278215E+04  0.75175038077E+02 0.  0.
         14    1    4    4    0    0 -0.48662444326E+02 -0.25330579893E+03  0.22753376203E+03  0.34395272077E+03  0.00000000000E+00 0. -1.
        -13    1    4    4    0    0 -0.51250361329E+02 -0.74800847763E+02  0.43923477369E+02  0.10075236090E+03  0.00000000000E+00 0.  1.
          5    1    3    3  501    0  0.44684594117E+02 -0.20228439536E+03  0.13226963069E+03  0.24583131363E+03  0.47000000000E+01 0. -1.
         13    1    6    6    0    0  0.37702327332E+02  0.16202220042E+03  0.41411613894E+03  0.44627887631E+03  0.00000000000E+00 0. -1.
        -14    1    6    6    0    0 -0.23135810172E+02  0.18791804415E+03  0.60742428596E+03  0.63624894515E+03  0.00000000000E+00 0.  1.
         -5    1    5    5    0  502  0.40661694378E+02  0.18045079749E+03  0.29445942346E+03  0.34777047857E+03  0.47000000000E+01 0.  1.
</event>
<event>
12    1  0.9749377E-001  0.4987241E+03  0.7818608E-02  0.1014112E+00
         21   -1    0    0  503  502  0.00000000000E+00  0.00000000000E+00  0.19958756756E+04  0.19958756756E+04  0.00000000000E+00 0. -1.
         21   -1    0    0  501  503 -0.00000000000E+00 -0.00000000000E+00 -0.14637746667E+03  0.14637746667E+03  0.00000000000E+00 0.  1.
          6    2    1    2  501    0  0.41971357223E+03 -0.25472490029E+03  0.63463193774E+03  0.82076453565E+03  0.17277867068E+03 0.  0.
         24    2    3    3    0    0  0.24222652808E+03 -0.11483939668E+03  0.44596595519E+03  0.52633874206E+03  0.79278372006E+02 0.  0.
         -6    2    1    2    0  502 -0.41971357223E+03  0.25472490029E+03  0.12148662711E+04  0.13214886066E+04  0.17142876946E+03 0.  0.
        -24    2    5    5    0    0 -0.31568450219E+03  0.22013619526E+03  0.10685446529E+04  0.11385937409E+04  0.80569114167E+02 0.  0.
         14    1    4    4    0    0  0.23625820063E+03 -0.12307218477E+03  0.40983443068E+03  0.48880360126E+03  0.00000000000E+00 0. -1.
        -13    1    4    4    0    0  0.59683274585E+01  0.82327880813E+01  0.36131524505E+02  0.37535140805E+02  0.00000000000E+00 0.  1.
          5    1    3    3  501    0  0.17748704415E+03 -0.13988550361E+03  0.18866598255E+03  0.29442579359E+03  0.47000000000E+01 0. -1.
         13    1    6    6    0    0 -0.35240101522E+02  0.30232438984E+02  0.68511314724E+02  0.82762705172E+02  0.00000000000E+00 0. -1.
        -14    1    6    6    0    0 -0.28044440067E+03  0.18990375628E+03  0.10000333382E+04  0.10558310357E+04  0.00000000000E+00 0.  1.
         -5    1    5    5    0  502 -0.10402907004E+03  0.34588705032E+02  0.14632161825E+03  0.18289486569E+03  0.47000000000E+01 0.  1.
</event>
<event>
12    1  0.9749377E-001  0.2260664E+03  0.7818608E-02  0.1129439E+00
         21   -1    0    0  501  502  0.00000000000E+00  0.00000000000E+00  0.15926697109E+03  0.15926697109E+03  0.00000000000E+00 0.  1.
         21   -1    0    0  502  503 -0.00000000000E+00 -0.00000000000E+00 -0.11779746345E+04  0.11779746345E+04  0.00000000000E+00 0. -1.
         -6    2    1    2    0  503 -0.15107015632E+03  0.99352156160E+02  0.37001258237E+02  0.25246846667E+03  0.17227359196E+03 0.  0.
        -24    2    3    3    0    0 -0.10315606554E+03 -0.44261073970E+01  0.45464404840E+02  0.13775402585E+03  0.79046791504E+02 0.  0.
          6    2    1    2  501    0  0.15107015632E+03 -0.99352156160E+02 -0.10557089217E+04  0.10847731390E+04  0.17180917498E+03 0.  0.
         24    2    5    5    0    0  0.14036056990E+03 -0.15325384238E+02 -0.77248763476E+03  0.78911864295E+03  0.77686097901E+02 0.  0.
         14    1    6    6    0    0  0.13416273964E+03 -0.18830329503E+02 -0.54730759243E+03  0.56382605717E+03  0.00000000000E+00 0. -1.
        -13    1    6    6    0    0  0.61978302601E+01  0.35049452652E+01 -0.22518004233E+03  0.22529258577E+03  0.00000000000E+00 0.  1.
          5    1    5    5  501    0  0.10709586423E+02 -0.84026771922E+02 -0.28322128693E+03  0.29565449601E+03  0.47000000000E+01 0. -1.
         11    1    4    4    0    0 -0.22545905073E+02  0.15375340663E+02  0.47434203686E+02  0.54724058835E+02  0.00000000000E+00 0. -1.
        -12    1    4    4    0    0 -0.80610160463E+02 -0.19801448060E+02 -0.19697988460E+01  0.83029967015E+02  0.00000000000E+00 0.  1.
         -5    1    3    3    0  503 -0.47914090787E+02  0.10377826356E+03 -0.84631466025E+01  0.11471444082E+03  0.47000000000E+01 0.  1.
</event>
<event>
12    1  0.9749377E-001  0.3896926E+03  0.7818608E-02  0.1047408E+00
         21   -1    0    0  501  502  0.00000000000E+00  0.00000000000E+00  0.88404613597E+03  0.88404613597E+03  0.00000000000E+00 0.  1.
         21   -1    0    0  502  503 -0.00000000000E+00 -0.00000000000E+00 -0.23566961649E+03  0.23566961649E+03  0.00000000000E+00 0. -1.
         -6    2    1    2    0  503 -0.73019714274E+02 -0.35874770200E+03  0.65418590534E+02  0.41010152868E+03  0.17283483294E+03 0.  0.
        -24    2    3    3    0    0  0.12424479908E+02 -0.18514414189E+03 -0.18768458785E+02  0.19903647787E+03  0.69502111474E+02 0.  0.
          6    2    1    2  501    0  0.73019714274E+02  0.35874770200E+03  0.58295792895E+03  0.70961422378E+03  0.17228060630E+03 0.  0.
         24    2    5    5    0    0  0.34060660118E+02  0.66986668297E+02  0.14701139903E+03  0.18357831661E+03  0.80257738488E+02 0.  0.
         12    1    6    6    0    0  0.49488527605E+02  0.38138380116E+02  0.46519689224E+02  0.77895647426E+02  0.00000000000E+00 0. -1.
        -11    1    6    6    0    0 -0.15427867487E+02  0.28848288182E+02  0.10049170981E+03  0.10568266918E+03  0.00000000000E+00 0.  1.
          5    1    5    5  501    0  0.38959054156E+02  0.29176103370E+03  0.43594652992E+03  0.52603590717E+03  0.47000000000E+01 0. -1.
         13    1    4    4    0    0  0.22387931740E+02 -0.17766668516E+02 -0.12638540155E+02  0.31250707112E+02  0.00000000000E+00 0. -1.
        -14    1    4    4    0    0 -0.99634518314E+01 -0.16737747337E+03 -0.61299186296E+01  0.16778577075E+03  0.00000000000E+00 0.  1.
         -5    1    3    3    0  503 -0.85444194182E+02 -0.17360356011E+03  0.84187049319E+02  0.21106505082E+03  0.47000000000E+01 0.  1.
</event>
<event>
12    1  0.9749377E-001  0.2257878E+03  0.7818608E-02  0.1129640E+00
         21   -1    0    0  503  502  0.00000000000E+00  0.00000000000E+00  0.21958594356E+03  0.21958594356E+03  0.00000000000E+00 0. -1.
         21   -1    0    0  501  503 -0.00000000000E+00 -0.00000000000E+00 -0.42389929814E+03  0.42389929814E+03  0.00000000000E+00 0.  1.
          6    2    1    2  501    0  0.18995182049E+03  0.86822675127E+02  0.47740709489E+02  0.27379788636E+03  0.17048822895E+03 0.  0.
         24    2    3    3    0    0  0.57115132635E+02 -0.32348088166E+00  0.57569756214E+02  0.11455361392E+03  0.80907420023E+02 0.  0.
         -6    2    1    2    0  502 -0.18995182049E+03 -0.86822675127E+02 -0.25205406406E+03  0.36968735533E+03  0.17180692202E+03 0.  0.
        -24    2    5    5    0    0 -0.94402603778E+02 -0.42831227830E+02 -0.22685774836E+03  0.26141988757E+03  0.78291467923E+02 0.  0.
         14    1    4    4    0    0  0.50498904669E+02 -0.23833760524E+01  0.78016549626E+02  0.92964519413E+02  0.00000000000E+00 0. -1.
        -13    1    4    4    0    0  0.66162279655E+01  0.20598951708E+01 -0.20446793412E+02  0.21589094502E+02  0.00000000000E+00 0.  1.
          5    1    3    3  501    0  0.13283668786E+03  0.87146156009E+02 -0.98290467252E+01  0.15924427245E+03  0.47000000000E+01 0. -1.
         11    1    6    6    0    0  0.19541008599E+00  0.17600970078E+02 -0.33346155301E+02  0.37706742184E+02  0.00000000000E+00 0. -1.
        -12    1    6    6    0    0 -0.94598013864E+02 -0.60432197908E+02 -0.19351159306E+03  0.22371314538E+03  0.00000000000E+00 0.  1.
         -5    1    5    5    0  502 -0.95549216716E+02 -0.43991447297E+02 -0.25196315707E+02  0.10826746776E+03  0.47000000000E+01 0.  1.
</event>
<event>
12    1  0.9749377E-001  0.3935636E+03  0.7818608E-02  0.1046031E+00
         21   -1    0    0  503  502  0.00000000000E+00  0.00000000000E+00  0.33623360976E+03  0.33623360976E+03  0.00000000000E+00 0.  1.
         21   -1    0    0  501  503 -0.00000000000E+00 -0.00000000000E+00 -0.77569058484E+03  0.77569058484E+03  0.00000000000E+00 0. -1.
          6    2    1    2  501    0  0.37550598098E+03 -0.22136785176E+02 -0.54595305351E+03  0.68499426384E+03  0.17221389565E+03 0.  0.
         24    2    3    3    0    0  0.19445946385E+03  0.17506379113E+02 -0.19304524482E+03  0.28635227751E+03  0.81303160422E+02 0.  0.
         -6    2    1    2    0  502 -0.37550598098E+03  0.22136785176E+02  0.10649607843E+03  0.42692993076E+03  0.17156040349E+03 0.  0.
        -24    2    5    5    0    0 -0.14800261531E+03  0.21925295549E+02 -0.10111055696E+02  0.17124039275E+03  0.82677360491E+02 0.  0.
         12    1    4    4    0    0  0.20078129410E+03  0.16740162859E+02 -0.19425300027E+03  0.27987066518E+03  0.00000000000E+00 0. -1.
        -11    1    4    4    0    0 -0.63218302551E+01  0.76621625413E+00  0.12077554481E+01  0.64816123260E+01  0.00000000000E+00 0.  1.
          5    1    3    3  501    0  0.18104651713E+03 -0.39643164289E+02 -0.35290780868E+03  0.39864198634E+03  0.47000000000E+01 0. -1.
         11    1    6    6    0    0 -0.50624181276E+01  0.22836032856E+02 -0.15728691107E+02  0.28186950844E+02  0.00000000000E+00 0. -1.
        -12    1    6    6    0    0 -0.14294019719E+03 -0.91073730724E+00  0.56176354109E+01  0.14305344191E+03  0.00000000000E+00 0.  1.
         -5    1    5    5    0  502 -0.22750336567E+03  0.21148962640E+00  0.11660713412E+03  0.25568953801E+03  0.47000000000E+01 0.  1.
</event>
<event>
12    1  0.9749377E-001  0.6194386E+03  0.7818608E-02  0.9865878E-01
         21   -1    0    0  503  502  0.00000000000E+00  0.00000000000E+00  0.43865274146E+03  0.43865274146E+03  0.00000000000E+00 0.  1.
         21   -1    0    0  501  503 -0.00000000000E+00 -0.00000000000E+00 -0.12957352075E+04  0.12957352075E+04  0.00000000000E+00 0. -1.
          6    2    1    2  501    0  0.54592389095E+03  0.26722414959E+03 -0.90185298962E+03  0.11013948100E+04  0.17404043120E+03 0.  0.
         24    2    3    3    0    0  0.32181224440E+03  0.21957484889E+03 -0.63424054601E+03  0.74906684350E+03  0.84046599669E+02 0.  0.
         -6    2    1    2    0  502 -0.54592389095E+03 -0.26722414959E+03  0.44770523630E+02  0.63299313896E+03  0.17098033028E+03 0.  0.
        -24    2    5    5    0    0 -0.24092868627E+03 -0.15287819015E+03 -0.42877369048E+02  0.29564863194E+03  0.64430364759E+02 0.  0.
         14    1    4    4    0    0  0.15485162487E+03  0.15557984333E+03 -0.33673183992E+03  0.40196075105E+03  0.00000000000E+00 0. -1.
        -13    1    4    4    0    0  0.16696061953E+03  0.63995005562E+02 -0.29750870610E+03  0.34710609245E+03  0.00000000000E+00 0.  1.
          5    1    3    3  501    0  0.22411164655E+03  0.47649300697E+02 -0.26761244361E+03  0.35232796646E+03  0.47000000000E+01 0. -1.
         11    1    6    6    0    0 -0.21626015475E+03 -0.14172337687E+03 -0.18507979464E+02  0.25922290675E+03  0.00000000000E+00 0. -1.
        -12    1    6    6    0    0 -0.24668531520E+02 -0.11154813278E+02 -0.24369389585E+02  0.36425725186E+02  0.00000000000E+00 0.  1.
         -5    1    5    5    0  502 -0.30499520469E+03 -0.11434595944E+03  0.87647892678E+02  0.33734450702E+03  0.47000000000E+01 0.  1.
</event>
<event>
12    1  0.9749377E-001  0.1359814E+04  0.7818608E-02  0.8983432E-01
         21   -1    0    0  501  502  0.00000000000E+00  0.00000000000E+00  0.92742580513E+03  0.92742580513E+03  0.00000000000E+00 0. -1.
         21   -1    0    0  502  503 -0.00000000000E+00 -0.00000000000E+00 -0.24811119607E+04  0.24811119607E+04  0.00000000000E+00 0.  1.
         -6    2    1    2    0  503  0.90905426187E+02  0.13532017588E+04 -0.15153890169E+04  0.20409314199E+04  0.17198369644E+03 0.  0.
        -24    2    3    3    0    0  0.25329663925E+02  0.11244881509E+04 -0.12108532432E+04  0.16544418049E+04  0.76791379810E+02 0.  0.
          6    2    1    2  501    0 -0.90905426187E+02 -0.13532017588E+04 -0.38297138720E+02  0.13676063459E+04  0.17164396325E+03 0.  0.
         24    2    5    5    0    0 -0.23167885795E+02 -0.50332214605E+03 -0.66942933212E+02  0.51453753156E+03  0.79984882561E+02 0.  0.
         12    1    6    6    0    0 -0.26047912677E+02 -0.43444518490E+03 -0.84608067130E+02  0.44337302293E+03  0.00000000000E+00 0. -1.
        -11    1    6    6    0    0  0.28800268820E+01 -0.68876961154E+02  0.17665133918E+02  0.71164508634E+02  0.00000000000E+00 0.  1.
          5    1    5    5  501    0 -0.67737540392E+02 -0.84987961274E+03  0.28645794492E+02  0.85306881438E+03  0.47000000000E+01 0. -1.
         13    1    4    4    0    0 -0.15870911206E+01  0.23880602901E+03 -0.21361075627E+03  0.32040660658E+03  0.00000000000E+00 0. -1.
        -14    1    4    4    0    0  0.26916755046E+02  0.88568212186E+03 -0.99724248693E+03  0.13340351983E+04  0.00000000000E+00 0.  1.
         -5    1    3    3    0  503  0.65575762262E+02  0.22871360791E+03 -0.30453577370E+03  0.38648961501E+03  0.47000000000E+01 0.  1.
</event>
<event>
12    1  0.9749377E-001  0.6014852E+03  0.7818608E-02  0.9902329E-01
         21   -1    0    0  503  502  0.00000000000E+00  0.00000000000E+00  0.43725483667E+03  0.43725483667E+03  0.00000000000E+00 0. -1.
         21   -1    0    0  501  503 -0.00000000000E+00 -0.00000000000E+00 -0.85865204800E+03  0.85865204800E+03  0.00000000000E+00 0.  1.
          6    2    1    2  501    0  0.11071283744E+03 -0.57787571209E+03 -0.19852122093E+03  0.64590152319E+03  0.17770883915E+03 0.  0.
         24    2    3    3    0    0  0.14369808340E+03 -0.37199476034E+03 -0.12086797045E+03  0.42335465160E+03  0.74772012571E+02 0.  0.
         -6    2    1    2    0  502 -0.11071283744E+03  0.57787571209E+03 -0.22287599040E+03  0.65000536147E+03  0.16320414165E+03 0.  0.
        -24    2    5    5    0    0 -0.12215708996E+03  0.49582176417E+03 -0.14604619384E+03  0.53691809904E+03  0.78676412549E+02 0.  0.
         14    1    4    4    0    0  0.11981459759E+03 -0.28766703791E+03 -0.61873409323E+02  0.31770455030E+03  0.00000000000E+00 0. -1.
        -13    1    4    4    0    0  0.23883485805E+02 -0.84327722422E+02 -0.58994561132E+02  0.10565010131E+03  0.00000000000E+00 0.  1.
          5    1    3    3  501    0 -0.32985245960E+02 -0.20588095175E+03 -0.77653250473E+02  0.22254687159E+03  0.47000000000E+01 0. -1.
         13    1    6    6    0    0 -0.14356805126E+02  0.12996334704E+03 -0.69568178330E+01  0.13093886643E+03  0.00000000000E+00 0. -1.
        -14    1    6    6    0    0 -0.10780028483E+03  0.36585841713E+03 -0.13908937601E+03  0.40597923261E+03  0.00000000000E+00 0.  1.
         -5    1    5    5    0  502  0.11444252522E+02  0.82053947916E+02 -0.76829796560E+02  0.11308726243E+03  0.47000000000E+01 0.  1.
</event>
<event>
12    1  0.9749377E-001  0.2318228E+03  0.7818608E-02  0.1125363E+00
         21   -1    0    0  503  502  0.00000000000E+00  0.00000000000E+00  0.48878915293E+02  0.48878915293E+02  0.00000000000E+00 0. -1.
         21   -1    0    0  501  503 -0.00000000000E+00 -0.00000000000E+00 -0.13122630217E+04  0.13122630217E+04  0.00000000000E+00 0.  1.
          6    2    1    2  501    0 -0.18480437481E+03 -0.14345635927E+02 -0.66532462146E+03  0.71197312931E+03  0.17288849215E+03 0.  0.
         24    2    3    3    0    0 -0.18556114993E+03  0.16446850017E+02 -0.64163493645E+03  0.67283183302E+03  0.79396754446E+02 0.  0.
         -6    2    1    2    0  502  0.18480437481E+03  0.14345635927E+02 -0.59805948499E+03  0.64916880773E+03  0.17142502477E+03 0.  0.
        -24    2    5    5    0    0  0.11387521464E+03 -0.60343110988E+02 -0.35462227314E+03  0.38479573650E+03  0.75511235362E+02 0.  0.
         14    1    4    4    0    0 -0.13676823809E+03 -0.21753326325E+02 -0.48499882991E+03  0.50438340890E+03  0.00000000000E+00 0. -1.
        -13    1    4    4    0    0 -0.48792911841E+02  0.38200176342E+02 -0.15663610654E+03  0.16844842412E+03  0.00000000000E+00 0.  1.
          5    1    3    3  501    0  0.75677511924E+00 -0.30792485945E+02 -0.23689685015E+02  0.39141296291E+02  0.47000000000E+01 0. -1.
         11    1    6    6    0    0  0.47608819440E+02 -0.27193545259E+02 -0.61222222986E+02  0.82184239240E+02  0.00000000000E+00 0. -1.
        -12    1    6    6    0    0  0.66266395196E+02 -0.33149565729E+02 -0.29340005015E+03  0.30261149725E+03  0.00000000000E+00 0.  1.
         -5    1    5    5    0  502  0.70929160178E+02  0.74688746915E+02 -0.24343721185E+03  0.26437307123E+03  0.47000000000E+01 0.  1.
</event>
<event>
12    1  0.9749377E-001  0.1228948E+03  0.7818608E-02  0.1238397E+00
         21   -1    0    0  503  502  0.00000000000E+00  0.00000000000E+00  0.36482602699E+02  0.36482602699E+02  0.00000000000E+00 0.  1.
         21   -1    0    0  501  503 -0.00000000000E+00 -0.00000000000E+00 -0.93688301042E+03  0.93688301042E+03  0.00000000000E+00 0.  1.
          6    2    1    2  501    0  0.26929835443E+02 -0.21801330802E+02 -0.29842980993E+03  0.34632732394E+03  0.17228392202E+03 0.  0.
         24    2    3    3    0    0  0.42832971101E+02 -0.22178249471E+02 -0.31160618052E+03  0.32514340236E+03  0.79330209898E+02 0.  0.
         -6    2    1    2    0  502 -0.26929835443E+02  0.21801330802E+02 -0.60197059778E+03  0.62703828918E+03  0.17206946690E+03 0.  0.
        -24    2    5    5    0    0 -0.68496608624E+02  0.20214017604E+02 -0.25103729552E+03  0.27361702662E+03  0.82135020607E+02 0.  0.
         14    1    4    4    0    0  0.58172993017E+02 -0.29085607333E+01 -0.13784916655E+03  0.14964942218E+03  0.00000000000E+00 0. -1.
        -13    1    4    4    0    0 -0.15340021916E+02 -0.19269688737E+02 -0.17375701397E+03  0.17549398018E+03  0.00000000000E+00 0.  1.
          5    1    3    3  501    0 -0.15903135658E+02  0.37691866879E+00  0.13176370582E+02  0.21183921572E+02  0.47000000000E+01 0. -1.
         13    1    6    6    0    0 -0.16616671550E+02  0.44264907292E+02 -0.15280615023E+03  0.15995379126E+03  0.00000000000E+00 0. -1.
        -14    1    6    6    0    0 -0.51879937074E+02 -0.24050889688E+02 -0.98231145292E+02  0.11366323535E+03  0.00000000000E+00 0.  1.
         -5    1    5    5    0  502  0.41566773181E+02  0.15873131983E+01 -0.35093330226E+03  0.35342126256E+03  0.47000000000E+01 0.  1.
</event>
<event>
12    1  0.9749377E-001  0.4933933E+03  0.7818608E-02  0.1015518E+00
         21   -1    0    0  501  502  0.00000000000E+00  0.00000000000E+00  0.78094034498E+03  0.78094034498E+03  0.00000000000E+00 0. -1.
         21   -1    0    0  502  503 -0.00000000000E+00 -0.00000000000E+00 -0.32224295956E+03  0.32224295956E+03  0.00000000000E+00 0.  1.
         -6    2    1    2    0  503  0.21920924587E+03 -0.41664038079E+03  0.19779048099E+03  0.53924747390E+03  0.17327684021E+03 0.  0.
        -24    2    3    3    0    0  0.10486303913E+03 -0.29830490836E+03  0.18394274054E+03  0.37404399650E+03  0.78050651424E+02 0.  0.
          6    2    1    2  501    0 -0.21920924587E+03  0.41664038079E+03  0.26090690444E+03  0.56393583064E+03  0.16825370105E+03 0.  0.
         24    2    5    5    0    0 -0.83177621364E+02  0.89044727917E+02  0.82074426682E+02  0.16666179456E+03  0.78692197729E+02 0.  0.
         14    1    6    6    0    0 -0.76765130483E+02  0.26666987950E+02  0.56314900554E+02  0.98870529122E+02  0.00000000000E+00 0. -1.
        -13    1    6    6    0    0 -0.64124908808E+01  0.62377739967E+02  0.25759526128E+02  0.67791265433E+02  0.00000000000E+00 0.  1.
          5    1    5    5  501    0 -0.13603162450E+03  0.32759565288E+03  0.17883247776E+03  0.39727403609E+03  0.47000000000E+01 0. -1.
         13    1    4    4    0    0  0.29564178164E+01 -0.10397192113E+03  0.39107592030E+02  0.11112292537E+03  0.00000000000E+00 0. -1.
        -14    1    4    4    0    0  0.10190662132E+03 -0.19433298723E+03  0.14483514851E+03  0.26292107112E+03  0.00000000000E+00 0.  1.
         -5    1    3    3    0  503  0.11434620673E+03 -0.11833547243E+03  0.13847740446E+02  0.16520347740E+03  0.47000000000E+01 0.  1.
</event>
<event>
12    1  0.9749377E-001  0.4025722E+03  0.7818608E-02  0.1042893E+00
         21   -1    0    0  503  502  0.00000000000E+00  0.00000000000E+00  0.91769607331E+03  0.91769607331E+03  0.00000000000E+00 0. -1.
         21   -1    0    0  501  503 -0.00000000000E+00 -0.00000000000E+00 -0.19392286954E+03  0.19392286954E+03  0.00000000000E+00 0.  1.
          6    2    1    2  501    0  0.37460537496E+03  0.29741257812E+02  0.25253984156E+03  0.48451438107E+03  0.17252270726E+03 0.  0.
         24    2    3    3    0    0  0.38367674088E+03  0.25057983745E+02  0.26185758661E+03  0.46991530204E+03  0.66447358041E+02 0.  0.
         -6    2    1    2    0  502 -0.37460537496E+03 -0.29741257812E+02  0.47123336222E+03  0.62710456178E+03  0.17316327662E+03 0.  0.
        -24    2    5    5    0    0 -0.28232218379E+03 -0.73991342431E+02  0.40210975579E+03  0.50351483597E+03  0.81574506555E+02 0.  0.
         12    1    4    4    0    0  0.63580123159E+02  0.29084603994E+02  0.41926735947E+02  0.81524213812E+02  0.00000000000E+00 0. -1.
        -11    1    4    4    0    0  0.32009661772E+03 -0.40266202498E+01  0.21993085067E+03  0.38839108823E+03  0.00000000000E+00 0.  1.
          5    1    3    3  501    0 -0.90713659112E+01  0.46832740676E+01 -0.93177450541E+01  0.14599079025E+02  0.47000000000E+01 0. -1.
         11    1    6    6    0    0 -0.26852080980E+03 -0.49127875240E+02  0.37781556322E+03  0.46611326224E+03  0.00000000000E+00 0. -1.
        -12    1    6    6    0    0 -0.13801373998E+02 -0.24863467191E+02  0.24294192567E+02  0.37401573730E+02  0.00000000000E+00 0.  1.
         -5    1    5    5    0  502 -0.92283191170E+02  0.44250084619E+02  0.69123606428E+02  0.12358972581E+03  0.47000000000E+01 0.  1.
</event>
<event>
12    1  0.9749377E-001  0.1243788E+03  0.7818608E-02  0.1236043E+00
         21   -1    0    0  501  502  0.00000000000E+00  0.00000000000E+00  0.42555260748E+02  0.42555260748E+02  0.00000000000E+00 0.  1.
         21   -1    0    0  502  503 -0.00000000000E+00 -0.00000000000E+00 -0.11155694648E+04  0.11155694648E+04  0.00000000000E+00 0.  1.
         -6    2    1    2    0  503 -0.36715698387E+02  0.36200545109E+02 -0.20290521251E+03  0.27002741981E+03  0.17054547842E+03 0.  0.
        -24    2    3    3    0    0 -0.13270799600E+02  0.18639434671E+02 -0.22097735401E+03  0.23528913866E+03  0.77501258935E+02 0.  0.
          6    2    1    2  501    0  0.36715698387E+02 -0.36200545109E+02 -0.87010899149E+03  0.88809730569E+03  0.17020177826E+03 0.  0.
         24    2    5    5    0    0 -0.28015778829E+02 -0.30654244557E+02 -0.70283444663E+03  0.70858744816E+03  0.79970905612E+02 0.  0.
         12    1    6    6    0    0 -0.38932775166E+02 -0.52626769278E+02 -0.52662536824E+03  0.53067844907E+03  0.00000000000E+00 0. -1.
        -11    1    6    6    0    0  0.10916996337E+02  0.21972524721E+02 -0.17620907839E+03  0.17790899910E+03  0.00000000000E+00 0.  1.
          5    1    5    5  501    0  0.64731477215E+02 -0.55463005518E+01 -0.16727454486E+03  0.17950985753E+03  0.47000000000E+01 0. -1.
         11    1    4    4    0    0  0.19881065212E+02  0.23129606391E+02 -0.35428260150E+02  0.46748230587E+02  0.00000000000E+00 0. -1.
        -12    1    4    4    0    0 -0.33151864812E+02 -0.44901717196E+01 -0.18554909386E+03  0.18854090807E+03  0.00000000000E+00 0.  1.
         -5    1    3    3    0  503 -0.23444898787E+02  0.17561110437E+02  0.18072141502E+02  0.34738281152E+02  0.47000000000E+01 0.  1.
</event>
<event>
12    1  0.9749377E-001  0.4519580E+03  0.7818608E-02  0.1027140E+00
         21   -1    0    0  501  502  0.00000000000E+00  0.00000000000E+00  0.39669519485E+03  0.39669519485E+03  0.00000000000E+00 0.  1.
         21   -1    0    0  502  503 -0.00000000000E+00 -0.00000000000E+00 -0.96038089198E+03  0.96038089198E+03  0.00000000000E+00 0. -1.
         -6    2    1    2    0  503 -0.13599913005E+03  0.41607033085E+03 -0.72228693159E+03  0.86096213059E+03  0.16717384715E+03 0.  0.
        -24    2    3    3    0    0 -0.92561271134E+02  0.12637053811E+03 -0.26697288048E+03  0.31953273294E+03  0.79306662332E+02 0.  0.
          6    2    1    2  501    0  0.13599913005E+03 -0.41607033085E+03  0.15860123446E+03  0.49611395624E+03  0.17136050426E+03 0.  0.
         24    2    5    5    0    0  0.79050677550E+02 -0.18550252408E+03  0.12044722170E+02  0.21699831524E+03  0.79265360794E+02 0.  0.
         14    1    6    6    0    0  0.22188417736E+02  0.32852401860E+00 -0.11012038794E+01  0.22218156081E+02  0.00000000000E+00 0. -1.
        -13    1    6    6    0    0  0.56862259814E+02 -0.18583104810E+03  0.13145926049E+02  0.19478015915E+03  0.00000000000E+00 0.  1.
          5    1    5    5  501    0  0.56948452500E+02 -0.23056780677E+03  0.14655651229E+03  0.27911564101E+03  0.47000000000E+01 0. -1.
         11    1    4    4    0    0 -0.66310410619E+02  0.83885476262E+02 -0.10432583773E+03  0.14939117813E+03  0.00000000000E+00 0. -1.
        -12    1    4    4    0    0 -0.26250860515E+02  0.42485061846E+02 -0.16264704275E+03  0.17014155481E+03  0.00000000000E+00 0.  1.
         -5    1    3    3    0  503 -0.43437858916E+02  0.28969979274E+03 -0.45531405111E+03  0.54142939765E+03  0.47000000000E+01 0.  1.
</event>
<event>
12    1  0.9749377E-001  0.1559433E+03  0.7818608E-02  0.1193354E+00
         21   -1    0    0  503  502  0.00000000000E+00  0.00000000000E+00  0.10038103704E+03  0.10038103704E+03  0.00000000000E+00 0.  1.
         21   -1    0    0  501  503 -0.00000000000E+00 -0.00000000000E+00 -0.42609227123E+03  0.42609227123E+03  0.00000000000E+00 0.  1.
          6    2    1    2  501    0  0.34919838761E+02  0.10964688044E+03 -0.16498915499E+03  0.26503626180E+03  0.17257162361E+03 0.  0.
         24    2    3    3    0    0 -0.13749682838E+02  0.47652586670E+02 -0.15990716982E+03  0.18591653376E+03  0.80838306325E+02 0.  0.
         -6    2    1    2    0  502 -0.34919838761E+02 -0.10964688044E+03 -0.16072207920E+03  0.26143704646E+03  0.17110204263E+03 0.  0.
        -24    2    5    5    0    0  0.22055706967E+02 -0.37765555180E+02 -0.14167557244E+03  0.16763940709E+03  0.78219637027E+02 0.  0.
         14    1    4    4    0    0 -0.19052156448E+02  0.45777204282E+02 -0.34551187295E+02  0.60434440849E+02  0.00000000000E+00 0. -1.
        -13    1    4    4    0    0  0.53024736103E+01  0.18753823875E+01 -0.12535598252E+03  0.12548209291E+03  0.00000000000E+00 0.  1.
          5    1    3    3  501    0  0.48669521599E+02  0.61994293768E+02 -0.50819851661E+01  0.79119728043E+02  0.47000000000E+01 0. -1.
         11    1    6    6    0    0 -0.22909803820E+02 -0.33672893535E+02 -0.91410360787E+02  0.10007285811E+03  0.00000000000E+00 0. -1.
        -12    1    6    6    0    0  0.44965510787E+02 -0.40926616447E+01 -0.50265211653E+02  0.67566548988E+02  0.00000000000E+00 0.  1.
         -5    1    5    5    0  502 -0.56975545728E+02 -0.71881325257E+02 -0.19046506762E+02  0.93797639371E+02  0.47000000000E+01 0.  1.
</event>
<event>
12    1  0.9749377E-001  0.3067680E+03  0.7818608E-02  0.1081905E+00
         21   -1    0    0  503  502  0.00000000000E+00  0.00000000000E+00  0.12239823995E+04  0.12239823995E+04  0.00000000000E+00 0.  1.
         21   -1    0    0  501  503 -0.00000000000E+00 -0.00000000000E+00 -0.84352817962E+02  0.84352817962E+02  0.00000000000E+00 0. -1.
          6    2    1    2  501    0  0.12979742568E+03 -0.23473345461E+03  0.65270255489E+03  0.72646972236E+03  0.17259914805E+03 0.  0.
         24    2    3    3    0    0  0.65083438529E+02 -0.21848495317E+03  0.57610924896E+03  0.62478128424E+03  0.80487624343E+02 0.  0.
         -6    2    1    2    0  502 -0.12979742568E+03  0.23473345461E+03  0.48692702663E+03  0.58186549509E+03  0.17182071671E+03 0.  0.
        -24    2    5    5    0    0 -0.31535228620E+02  0.34785943597E+02  0.18510128167E+03  0.20669175287E+03  0.79085167470E+02 0.  0.
         14    1    4    4    0    0  0.78966648627E+02 -0.17875120751E+03  0.51265189722E+03  0.54863438965E+03  0.00000000000E+00 0. -1.
        -13    1    4    4    0    0 -0.13883210098E+02 -0.39733745655E+02  0.63457351734E+02  0.76146894589E+02  0.00000000000E+00 0.  1.
          5    1    3    3  501    0  0.64713987150E+02 -0.16248501442E+02  0.76593305938E+02  0.10168843812E+03  0.47000000000E+01 0. -1.
         11    1    6    6    0    0 -0.28641252711E+02  0.57059103087E+02  0.99728037074E+02  0.11841344510E+03  0.00000000000E+00 0. -1.
        -12    1    6    6    0    0 -0.28939759095E+01 -0.22273159490E+02  0.85373244598E+02  0.88278307774E+02  0.00000000000E+00 0.  1.
         -5    1    5    5    0  502 -0.98262197059E+02  0.19994751101E+03  0.30182574496E+03  0.37517374222E+03  0.47000000000E+01 0.  1.
</event>
<event>
12    1  0.9749377E-001  0.2013008E+03  0.7818608E-02  0.1148646E+00
         21   -1    0    0  501  502  0.00000000000E+00  0.00000000000E+00  0.12680177055E+03  0.12680177055E+03  0.00000000000E+00 0. -1.
         21   -1    0    0  502  503 -0.00000000000E+00 -0.00000000000E+00 -0.11680793478E+04  0.11680793478E+04  0.00000000000E+00 0.  1.
         -6    2    1    2    0  503 -0.12996772574E+03 -0.96752937046E+02 -0.87214371084E+01  0.23558482961E+03  0.17079639316E+03 0.  0.
        -24    2    3    3    0    0 -0.70387067824E+00 -0.46107315370E+02  0.20946220236E+02  0.93541233792E+02  0.78643742997E+02 0.  0.
          6    2    1    2  501    0  0.12996772574E+03  0.96752937046E+02 -0.10325561401E+04  0.10592962887E+04  0.17228959406E+03 0.  0.
         24    2    5    5    0    0  0.14807714775E+03  0.10459130080E+03 -0.73642180337E+03  0.76246801089E+03  0.78576162216E+02 0.  0.
         14    1    6    6    0    0  0.11511704891E+02  0.21839250778E+02 -0.33364012669E+02  0.41504572825E+02  0.00000000000E+00 0. -1.
        -13    1    6    6    0    0  0.13656544286E+03  0.82752050020E+02 -0.70305779070E+03  0.72096343806E+03  0.00000000000E+00 0.  1.
          5    1    5    5  501    0 -0.18109422007E+02 -0.78383637519E+01 -0.29613433674E+03  0.29682827782E+03  0.47000000000E+01 0. -1.
         13    1    4    4    0    0 -0.11122747829E+02 -0.47263389998E+02  0.45687984763E+02  0.66670349520E+02  0.00000000000E+00 0. -1.
        -14    1    4    4    0    0  0.10418877151E+02  0.11560746279E+01 -0.24741764527E+02  0.26870884272E+02  0.00000000000E+00 0.  1.
         -5    1    3    3    0  503 -0.12926385506E+03 -0.50645621675E+02 -0.29667657344E+02  0.14204359582E+03  0.47000000000E+01 0.  1.
</event>
<event>
12    1  0.9749377E-001  0.4460600E+03  0.7818608E-02  0.1028904E+00
         21   -1    0    0  501  502  0.00000000000E+00  0.00000000000E+00  0.12643364027E+04  0.12643364027E+04  0.00000000000E+00 0.  1.
         21   -1    0    0  502  503 -0.00000000000E+00 -0.00000000000E+00 -0.19383683079E+03  0.19383683079E+03  0.00000000000E+00 0. -1.
         -6    2    1    2    0  503  0.12489169601E+03 -0.40002796620E+03  0.23779204699E+03  0.51187195690E+03  0.17276438629E+03 0.  0.
        -24    2    3    3    0    0  0.43366822676E+02 -0.33808157485E+03  0.17469828109E+03  0.39151177383E+03  0.81130432431E+02 0.  0.
          6    2    1    2  501    0 -0.12489169601E+03  0.40002796620E+03  0.83270752487E+03  0.94630127655E+03  0.16267751701E+03 0.  0.
         24    2    5    5    0    0 -0.41976128271E+01  0.12159212699E+03  0.23536218853E+03  0.27627357628E+03  0.78290892589E+02 0.  0.
         12    1    6    6    0    0 -0.97073994953E+01 -0.38541650567E+01  0.58170835036E+02  0.59101051108E+02  0.00000000000E+00 0. -1.
        -11    1    6    6    0    0  0.55097866683E+01  0.12544629205E+03  0.17719135349E+03  0.21717252517E+03  0.00000000000E+00 0.  1.
          5    1    5    5  501    0 -0.12069408318E+03  0.27843583921E+03  0.59734533635E+03  0.67002770027E+03  0.47000000000E+01 0. -1.
         11    1    4    4    0    0  0.53422064629E+02 -0.11506292196E+03  0.55963651398E+02  0.13865541200E+03  0.00000000000E+00 0. -1.
        -12    1    4    4    0    0 -0.10055241953E+02 -0.22301865289E+03  0.11873462970E+03  0.25285636182E+03  0.00000000000E+00 0.  1.
         -5    1    3    3    0  503  0.81524873334E+02 -0.61946391352E+02  0.63093765898E+02  0.12036018307E+03  0.47000000000E+01 0.  1.
</event>
<event>
12    1  0.9749377E-001  0.8169100E+03  0.7818608E-02  0.9535858E-01
         21   -1    0    0  503  502  0.00000000000E+00  0.00000000000E+00  0.76970438903E+03  0.76970438903E+03  0.00000000000E+00 0.  1.
         21   -1    0    0  501  503 -0.00000000000E+00 -0.00000000000E+00 -0.88707007931E+03  0.88707007931E+03  0.00000000000E+00 0. -1.
          6    2    1    2  501    0 -0.33666745678E+03 -0.73137137526E+03  0.10405265338E+02  0.82379154393E+03  0.17399762442E+03 0.  0.
         24    2    3    3    0    0 -0.12536300261E+03 -0.31226086974E+03  0.61179451879E+02  0.35166518774E+03  0.81870298308E+02 0.  0.
         -6    2    1    2    0  502  0.33666745678E+03  0.73137137526E+03 -0.12777095561E+03  0.83298292441E+03  0.17113173363E+03 0.  0.
        -24    2    5    5    0    0  0.81500162866E+02  0.31588942052E+03 -0.56470041737E+02  0.34019340248E+03  0.78193880432E+02 0.  0.
         14    1    4    4    0    0 -0.69775426400E+02 -0.96284652120E+02  0.48093266412E+02  0.12826654528E+03  0.00000000000E+00 0. -1.
        -13    1    4    4    0    0 -0.55587576211E+02 -0.21597621762E+03  0.13086185467E+02  0.22339864247E+03  0.00000000000E+00 0.  1.
          5    1    3    3  501    0 -0.21130445417E+03 -0.41911050552E+03 -0.50774186541E+02  0.47212635619E+03  0.47000000000E+01 0. -1.
         13    1    6    6    0    0  0.77653619408E+02  0.14945244433E+03 -0.38309024332E+02  0.17272434416E+03  0.00000000000E+00 0. -1.
        -14    1    6    6    0    0  0.38465434574E+01  0.16643697619E+03 -0.18161017405E+02  0.16746905832E+03  0.00000000000E+00 0.  1.
         -5    1    5    5    0  502  0.25516729392E+03  0.41548195474E+03 -0.71300913877E+02  0.49278952193E+03  0.47000000000E+01 0.  1.
</event>
<event>
12    1  0.9749377E-001  0.6032634E+03  0.7818608E-02  0.9898659E-01
         21   -1    0    0  501  502  0.00000000000E+00  0.00000000000E+00  0.14630717832E+04  0.14630717832E+04  0.00000000000E+00 0. -1.
         21   -1    0    0  502  503 -0.00000000000E+00 -0.00000000000E+00 -0.27106101130E+03  0.27106101130E+03  0.00000000000E+00 0.  1.
         -6    2    1    2    0  503 -0.48172609888E+03  0.33600837660E+03  0.39048841262E+03  0.72595420449E+03  0.17194953658E+03 0.  0.
        -24    2    3    3    0    0 -0.34623423023E+03  0.19483010214E+03  0.32604288948E+03  0.51988463589E+03  0.78352778937E+02 0.  0.
          6    2    1    2  501    0  0.48172609888E+03 -0.33600837660E+03  0.80152235928E+03  0.10081785900E+04  0.17036523541E+03 0.  0.
         24    2    5    5    0    0  0.36441999048E+03 -0.17589808739E+03  0.53608045440E+03  0.67670080396E+03  0.82460038073E+02 0.  0.
         12    1    6    6    0    0  0.32880391258E+03 -0.13805738867E+03  0.49688976619E+03  0.61161368137E+03  0.00000000000E+00 0. -1.
        -11    1    6    6    0    0  0.35616077895E+02 -0.37840698721E+02  0.39190688216E+02  0.65087122591E+02  0.00000000000E+00 0.  1.
          5    1    5    5  501    0  0.11730610841E+03 -0.16011028921E+03  0.26544190488E+03  0.33147778605E+03  0.47000000000E+01 0. -1.
         11    1    4    4    0    0 -0.78441786010E+02  0.11831496901E+02  0.48355693017E+02  0.92905172937E+02  0.00000000000E+00 0. -1.
        -12    1    4    4    0    0 -0.26779244422E+03  0.18299860524E+03  0.27768719646E+03  0.42697946295E+03  0.00000000000E+00 0.  1.
         -5    1    3    3    0  503 -0.13549186865E+03  0.14117827446E+03  0.64445523143E+02  0.20606956860E+03  0.47000000000E+01 0.  1.
</event>
<event>
12    1  0.9749377E-001  0.2180813E+03  0.7818608E-02  0.1135322E+00
         21   -1    0    0  501  502  0.00000000000E+00  0.00000000000E+00  0.13884627647E+03  0.13884627647E+03  0.00000000000E+00 0.  1.
         21   -1    0    0  502  503 -0.00000000000E+00 -0.00000000000E+00 -0.49207938642E+03  0.49207938642E+03  0.00000000000E+00 0. -1.
         -6    2    1    2    0  503  0.16448858485E+03  0.68873546121E+02 -0.69875680888E+02  0.25492534488E+03  0.16823870180E+03 0.  0.
        -24    2    3    3    0    0  0.48357889623E+02 -0.83620394247E+00 -0.75249918099E+02  0.11929068835E+03  0.78921058203E+02 0.  0.
          6    2    1    2  501    0 -0.16448858485E+03 -0.68873546121E+02 -0.28335742906E+03  0.37600031800E+03  0.17112786634E+03 0.  0.
         24    2    5    5    0    0 -0.76893163562E+02 -0.98221626536E+02 -0.21162692252E+03  0.25894638504E+03  0.81897676818E+02 0.  0.
         14    1    6    6    0    0 -0.72359186533E+02 -0.10987430735E+03 -0.20766288792E+03  0.24582939269E+03  0.00000000000E+00 0. -1.
        -13    1    6    6    0    0 -0.45339770289E+01  0.11652680819E+02 -0.39640346028E+01  0.13116992350E+02  0.00000000000E+00 0.  1.
          5    1    5    5  501    0 -0.87595421284E+02  0.29348080414E+02 -0.71730506533E+02  0.11705393296E+03  0.47000000000E+01 0. -1.
         13    1    4    4    0    0  0.82978854660E+01 -0.18509403075E+02  0.10624223339E+02  0.22898188290E+02  0.00000000000E+00 0. -1.
        -14    1    4    4    0    0  0.40060004157E+02  0.17673199132E+02 -0.85874141438E+02  0.96392500063E+02  0.00000000000E+00 0.  1.
         -5    1    3    3    0  503  0.11613069522E+03  0.69709750064E+02  0.53742372108E+01  0.13563465653E+03  0.47000000000E+01 0.  1.
</event>
<event>
12    1  0.9749377E-001  0.1907042E+03  0.7818608E-02  0.1157828E+00
         21   -1    0    0  503  502  0.00000000000E+00  0.00000000000E+00  0.19919828401E+03  0.19919828401E+03  0.00000000000E+00 0. -1.
         21   -1    0    0  501  503 -0.00000000000E+00 -0.00000000000E+00 -0.19178023705E+03  0.19178023705E+03  0.00000000000E+00 0. -1.
          6    2    1    2  501    0 -0.50504603351E+02  0.47331656638E+02  0.10667598991E+02  0.18489939201E+03  0.17112272443E+03 0.  0.
         24    2    3    3    0    0 -0.76713496559E+02  0.80542777993E+02  0.26530617377E+02  0.13947241745E+03  0.79853502934E+02 0.  0.
         -6    2    1    2    0  502  0.50504603351E+02 -0.47331656638E+02 -0.32495520374E+01  0.20607912905E+03  0.19408000197E+03 0.  0.
        -24    2    5    5    0    0  0.72473693237E+02  0.37568672981E+02 -0.14774942350E+02  0.11750355961E+03  0.83216261627E+02 0.  0.
         14    1    4    4    0    0 -0.48976837921E+02  0.94077061018E+02  0.20759807118E+02  0.10807494462E+03  0.00000000000E+00 0. -1.
        -13    1    4    4    0    0 -0.27736658637E+02 -0.13534283026E+02  0.57708102584E+01  0.31397472835E+02  0.00000000000E+00 0.  1.
          5    1    3    3  501    0  0.26208893208E+02 -0.33211121354E+02 -0.15863018386E+02  0.45426974554E+02  0.47000000000E+01 0. -1.
         11    1    6    6    0    0  0.27811337133E+02 -0.24881122009E+02 -0.16276335019E+02  0.40711912105E+02  0.00000000000E+00 0. -1.
        -12    1    6    6    0    0  0.44662356104E+02  0.62449794990E+02  0.15013926687E+01  0.76791647508E+02  0.00000000000E+00 0.  1.
         -5    1    5    5    0  502 -0.21969089887E+02 -0.84900329619E+02  0.11525390313E+02  0.88575569441E+02  0.47000000000E+01 0.  1.
</event>
<event>
12    1  0.9749377E-001  0.2629897E+03  0.7818608E-02  0.1105360E+00
         21   -1    0    0  503  502  0.00000000000E+00  0.00000000000E+00  0.18055118695E+04  0.18055118695E+04  0.00000000000E+00 0. -1.
         21   -1    0    0  501  503 -0.00000000000E+00 -0.00000000000E+00 -0.67503679412E+02  0.67503679412E+02  0.00000000000E+00 0.  1.
          6    2    1    2  501    0  0.12109452759E+03 -0.18238019019E+03  0.14285611057E+04  0.14554275979E+04  0.17191928809E+03 0.  0.
         24    2    3    3    0    0  0.10753041315E+02 -0.11160812208E+03  0.55517655473E+03  0.57224777867E+03  0.81697689441E+02 0.  0.
         -6    2    1    2    0  502 -0.12109452759E+03  0.18238019019E+03  0.30944708437E+03  0.41758795100E+03  0.17520211303E+03 0.  0.
        -24    2    5    5    0    0 -0.15400582622E+03  0.16753016997E+03  0.24522364932E+03  0.34376101629E+03  0.79074937738E+02 0.  0.
         14    1    4    4    0    0  0.26304551632E+02 -0.77873025794E+02  0.21714323554E+03  0.23217950453E+03  0.00000000000E+00 0. -1.
        -13    1    4    4    0    0 -0.15551510317E+02 -0.33735096285E+02  0.33803331919E+03  0.34006827414E+03  0.00000000000E+00 0.  1.
          5    1    3    3  501    0  0.11034148627E+03 -0.70772068111E+02  0.87338455098E+03  0.88317981924E+03  0.47000000000E+01 0. -1.
         11    1    6    6    0    0 -0.12697658752E+03  0.16969032863E+03  0.20229946399E+03  0.29298964920E+03  0.00000000000E+00 0. -1.
        -12    1    6    6    0    0 -0.27029238701E+02 -0.21601586618E+01  0.42924185327E+02  0.50771367090E+02  0.00000000000E+00 0.  1.
         -5    1    5    5    0  502  0.32911298631E+02  0.14850020219E+02  0.64223435056E+02  0.73826934708E+02  0.47000000000E+01 0.  1.
</event>
<event>
12    1  0.9749377E-001  0.5176008E+03  0.7818608E-02  0.1009284E+00
         21   -1    0    0  503  502  0.00000000000E+00  0.00000000000E+00  0.20708205695E+03  0.20708205695E+03  0.00000000000E+00 0.  1.
         21   -1    0    0  501  503 -0.00000000000E+00 -0.00000000000E+00 -0.16330647062E+04  0.16330647062E+04  0.00000000000E+00 0. -1.
          6    2    1    2  501    0  0.46893617540E+03 -0.19325268311E+03 -0.36092279030E+03  0.64816468057E+03  0.18056704141E+03 0.  0.
         24    2    3    3    0    0  0.17100329827E+03 -0.11259511025E+03 -0.90062186882E+02  0.23748573075E+03  0.79802806549E+02 0.  0.
         -6    2    1    2    0  502 -0.46893617540E+03  0.19325268311E+03 -0.10650598589E+04  0.11919820826E+04  0.17094164477E+03 0.  0.
        -24    2    5    5    0    0 -0.28114921345E+03  0.17501137962E+03 -0.76292603695E+03  0.83574673252E+03  0.82113335399E+02 0.  0.
         12    1    4    4    0    0  0.13271183888E+03 -0.89170791882E+02 -0.10370008728E+03  0.19057169361E+03  0.00000000000E+00 0. -1.
        -11    1    4    4    0    0  0.38291459389E+02 -0.23424318367E+02  0.13637900403E+02  0.46914037137E+02  0.00000000000E+00 0.  1.
          5    1    3    3  501    0  0.29793287713E+03 -0.80657572861E+02 -0.27086060342E+03  0.41067894982E+03  0.47000000000E+01 0. -1.
         13    1    6    6    0    0 -0.29088430690E+02  0.31810327487E+02 -0.49311100951E+02  0.65495178539E+02  0.00000000000E+00 0. -1.
        -14    1    6    6    0    0 -0.25206078276E+03  0.14320105213E+03 -0.71361493600E+03  0.77025155398E+03  0.00000000000E+00 0.  1.
         -5    1    5    5    0  502 -0.18778696195E+03  0.18241303493E+02 -0.30213382198E+03  0.35623535004E+03  0.47000000000E+01 0.  1.
</event>
<event>
12    1  0.9749377E-001  0.2320036E+03  0.7818608E-02  0.1125237E+00
         21   -1    0    0  503  502  0.00000000000E+00  0.00000000000E+00  0.14828179004E+03  0.14828179004E+03  0.00000000000E+00 0.  1.
         21   -1    0    0  501  503 -0.00000000000E+00 -0.00000000000E+00 -0.54541446748E+03  0.54541446748E+03  0.00000000000E+00 0. -1.
          6    2    1    2  501    0  0.11506107040E+03  0.18301960240E+03 -0.27848263922E+03  0.39247323333E+03  0.17247444377E+03 0.  0.
         24    2    3    3    0    0  0.78270006485E+02  0.12207339685E+03 -0.83999440767E+02  0.18531670596E+03  0.79109211372E+02 0.  0.
         -6    2    1    2    0  502 -0.11506107040E+03 -0.18301960240E+03 -0.11865003823E+03  0.30122302418E+03  0.17298050162E+03 0.  0.
        -24    2    5    5    0    0 -0.14795985081E+02 -0.79621168311E+02 -0.10826901841E+03  0.15674403236E+03  0.79297286929E+02 0.  0.
         14    1    4    4    0    0  0.65066660842E+02  0.88583302147E+02 -0.97445480840E+02  0.14688871130E+03  0.00000000000E+00 0. -1.
        -13    1    4    4    0    0  0.13203345643E+02  0.33490094705E+02  0.13446040073E+02  0.38427994654E+02  0.00000000000E+00 0.  1.
          5    1    3    3  501    0  0.36791063911E+02  0.60946205552E+02 -0.19448319845E+03  0.20715652737E+03  0.47000000000E+01 0. -1.
         11    1    6    6    0    0  0.23630522999E+02 -0.16762747609E+02 -0.42572732789E+01  0.29283369007E+02  0.00000000000E+00 0. -1.
        -12    1    6    6    0    0 -0.38426508080E+02 -0.62858420702E+02 -0.10401174513E+03  0.12746066335E+03  0.00000000000E+00 0.  1.
         -5    1    5    5    0  502 -0.10026508531E+03 -0.10339843409E+03 -0.10381019815E+02  0.14447899182E+03  0.47000000000E+01 0.  1.
</event>
<event>
12    1  0.9749377E-001  0.6238679E+03  0.7818608E-02  0.9857089E-01
         21   -1    0    0  501  502  0.00000000000E+00  0.00000000000E+00  0.48294199056E+03  0.48294199056E+03  0.00000000000E+00 0. -1.
         21   -1    0    0  502  503 -0.00000000000E+00 -0.00000000000E+00 -0.10110321803E+04  0.10110321803E+04  0.00000000000E+00 0.  1.
         -6    2    1    2    0  503 -0.59495674999E+02  0.60353086911E+03 -0.58649157750E+03  0.86093324860E+03  0.17159383074E+03 0.  0.
        -24    2    3    3    0    0  0.28286539865E+02  0.39024816060E+03 -0.40097121248E+03  0.56490094152E+03  0.72397550403E+02 0.  0.
          6    2    1    2  501    0  0.59495674999E+02 -0.60353086911E+03  0.58401387716E+02  0.63304092230E+03  0.17187449463E+03 0.  0.
         24    2    5    5    0    0  0.41019397560E+02 -0.18840525716E+03  0.60583854327E+02  0.21747203549E+03  0.80277960315E+02 0.  0.
         12    1    6    6    0    0  0.17228600189E+02 -0.17705407753E+03  0.67423589834E+02  0.19023909036E+03  0.00000000000E+00 0. -1.
        -11    1    6    6    0    0  0.23790797371E+02 -0.11351179630E+02 -0.68397355076E+01  0.27232945128E+02  0.00000000000E+00 0.  1.
          5    1    5    5  501    0  0.18476277439E+02 -0.41512561195E+03 -0.21824666113E+01  0.41556888681E+03  0.47000000000E+01 0. -1.
         11    1    4    4    0    0  0.28904550837E+02  0.56315480880E+02 -0.76463544018E+02  0.99265200396E+02  0.00000000000E+00 0. -1.
        -12    1    4    4    0    0 -0.61801097244E+00  0.33393267972E+03 -0.32450766846E+03  0.46563574112E+03  0.00000000000E+00 0.  1.
         -5    1    3    3    0  503 -0.87782214863E+02  0.21328270851E+03 -0.18552036502E+03  0.29603230708E+03  0.47000000000E+01 0.  1.
</event>
<event>
12    1  0.9749377E-001  0.5952193E+03  0.7818608E-02  0.9915374E-01
         21   -1    0    0  501  502  0.00000000000E+00  0.00000000000E+00  0.92963108421E+03  0.92963108421E+03  0.00000000000E+00 0. -1.
         21   -1    0    0  502  503 -0.00000000000E+00 -0.00000000000E+00 -0.39912626222E+03  0.39912626222E+03  0.00000000000E+00 0.  1.
         -6    2    1    2    0  503 -0.46454508978E+03  0.34410164396E+03  0.35724310564E+03  0.70130155737E+03  0.17318532277E+03 0.  0.
        -24    2    3    3    0    0 -0.30577915659E+03  0.29921670935E+03  0.29005096648E+03  0.52309338567E+03  0.80408924948E+02 0.  0.
          6    2    1    2  501    0  0.46454508978E+03 -0.34410164396E+03  0.17326171635E+03  0.62745578906E+03  0.17167720598E+03 0.  0.
         24    2    5    5    0    0  0.20897168956E+03 -0.23099267437E+03  0.11881041467E+03  0.34267791746E+03  0.79280879310E+02 0.  0.
         12    1    6    6    0    0  0.56400944248E+02 -0.46867323006E+02 -0.48109420107E+01  0.73489847196E+02  0.00000000000E+00 0. -1.
        -11    1    6    6    0    0  0.15257074532E+03 -0.18412535137E+03  0.12362135668E+03  0.26918807026E+03  0.00000000000E+00 0.  1.
          5    1    5    5  501    0  0.25557340022E+03 -0.11310896959E+03  0.54451301682E+02  0.28477787160E+03  0.47000000000E+01 0. -1.
         11    1    4    4    0    0 -0.67901092688E+02  0.11077793186E+03  0.10990247041E+03  0.17017891049E+03  0.00000000000E+00 0. -1.
        -12    1    4    4    0    0 -0.23787806391E+03  0.18843877749E+03  0.18014849607E+03  0.35291447517E+03  0.00000000000E+00 0.  1.
         -5    1    3    3    0  503 -0.15876593319E+03  0.44884934611E+02  0.67192139162E+02  0.17820817170E+03  0.47000000000E+01 0.  1.
</event>
<event>
12    1  0.9749377E-001  0.8895141E+03  0.7818608E-02  0.9438785E-01
         21   -1    0    0  503  502  0.00000000000E+00  0.00000000000E+00  0.45675472749E+03  0.45675472749E+03  0.00000000000E+00 0. -1.
         21   -1    0    0  501  503 -0.00000000000E+00 -0.00000000000E+00 -0.28390606409E+04  0.28390606409E+04  0.00000000000E+00 0.  1.
          6    2    1    2  501    0 -0.86602972674E+03  0.14646817245E+03 -0.22122253268E+04  0.23864372043E+04  0.17228238558E+03 0.  0.
         24    2    3    3    0    0 -0.83285064097E+03  0.17043023497E+03 -0.21102539362E+04  0.22764586306E+04  0.80034782460E+02 0.  0.
         -6    2    1    2    0  502  0.86602972674E+03 -0.14646817245E+03 -0.17008058666E+03  0.90937816414E+03  0.16303627302E+03 0.  0.
        -24    2    5    5    0    0  0.80053496575E+03 -0.16163308016E+03 -0.18352295977E+03  0.84065898532E+03  0.77751970035E+02 0.  0.
         12    1    4    4    0    0 -0.57868415034E+03  0.15506381363E+03 -0.14995072318E+04  0.16147575887E+04  0.00000000000E+00 0. -1.
        -11    1    4    4    0    0 -0.25416649063E+03  0.15366421337E+02 -0.61074670440E+03  0.66170104186E+03  0.00000000000E+00 0.  1.
          5    1    3    3  501    0 -0.33179085771E+02 -0.23962062521E+02 -0.10197139063E+03  0.10997857373E+03  0.47000000000E+01 0. -1.
         13    1    6    6    0    0  0.58048499770E+03 -0.11452542013E+03 -0.97052011158E+02  0.59958151846E+03  0.00000000000E+00 0. -1.
        -14    1    6    6    0    0  0.22004996805E+03 -0.47107660029E+02 -0.86470948616E+02  0.24107746686E+03  0.00000000000E+00 0.  1.
         -5    1    5    5    0  502  0.65494760988E+02  0.15164907710E+02  0.13442373115E+02  0.68719178820E+02  0.47000000000E+01 0.  1.
</event>
<event>
12    1  0.9749377E-001  0.1785345E+03  0.7818608E-02  0.1169229E+00
         21   -1    0    0  503  502  0.00000000000E+00  0.00000000000E+00  0.52332903019E+02  0.52332903019E+02  0.00000000000E+00 0.  1.
         21   -1    0    0  501  503 -0.00000000000E+00 -0.00000000000E+00 -0.63597121024E+03  0.63597121024E+03  0.00000000000E+00 0.  1.
          6    2    1    2  501    0 -0.61834752892E+02 -0.11138297187E+02 -0.23736012519E+03  0.29765702312E+03  0.16826252123E+03 0.  0.
         24    2    3    3    0    0 -0.67470181608E+02  0.51138283299E+02 -0.16731066787E+03  0.20364028522E+03  0.79430200535E+02 0.  0.
         -6    2    1    2    0  502  0.61834752892E+02  0.11138297187E+02 -0.34627818204E+03  0.39064709015E+03  0.16955521624E+03 0.  0.
        -24    2    5    5    0    0 -0.16217905861E+02  0.51582860984E+02 -0.19448305937E+03  0.21517108168E+03  0.74505852085E+02 0.  0.
         14    1    4    4    0    0 -0.69449363616E+02  0.57815213076E+01 -0.11404128937E+03  0.13364900215E+03  0.00000000000E+00 0. -1.
        -13    1    4    4    0    0  0.19791820084E+01  0.45356761991E+02 -0.53269378497E+02  0.69991283066E+02  0.00000000000E+00 0.  1.
          5    1    3    3  501    0  0.56354287160E+01 -0.62276580486E+02 -0.70049457320E+02  0.94016737896E+02  0.47000000000E+01 0. -1.
         13    1    6    6    0    0  0.14787069293E+02  0.57760488498E+02 -0.11290017778E+03  0.12767686397E+03  0.00000000000E+00 0. -1.
        -14    1    6    6    0    0 -0.31004975154E+02 -0.61776275136E+01 -0.81582881586E+02  0.87494217717E+02  0.00000000000E+00 0.  1.
         -5    1    5    5    0  502  0.78052658752E+02 -0.40444563797E+02 -0.15179512267E+03  0.17547600846E+03  0.47000000000E+01 0.  1.
</event>
<event>
12    1  0.9749377E-001  0.2123170E+03  0.7818608E-02  0.1139744E+00
         21   -1    0    0  503  502  0.00000000000E+00  0.00000000000E+00  0.37160107869E+03  0.37160107869E+03  0.00000000000E+00 0. -1.
         21   -1    0    0  501  503 -0.00000000000E+00 -0.00000000000E+00 -0.18159155991E+03  0.18159155991E+03  0.00000000000E+00 0.  1.
          6    2    1    2  501    0  0.17464242788E+03 -0.93805267165E+00  0.31488160844E+01  0.24556254279E+03  0.17259834825E+03 0.  0.
         24    2    3    3    0    0  0.14282921685E+03 -0.10027983556E+02 -0.59963495596E+02  0.17414853068E+03  0.78938864278E+02 0.  0.
         -6    2    1    2    0  502 -0.17464242788E+03  0.93805267165E+00  0.18686070270E+03  0.30763009581E+03  0.17093418640E+03 0.  0.
        -24    2    5    5    0    0 -0.10785767243E+03  0.62399735864E+02  0.14890918450E+03  0.20914075733E+03  0.77710402208E+02 0.  0.
         12    1    4    4    0    0  0.56747959248E+02 -0.42283454015E+02 -0.34676811221E+02  0.78808011006E+02  0.00000000000E+00 0. -1.
        -11    1    4    4    0    0  0.86081257601E+02  0.32255470459E+02 -0.25286684375E+02  0.95340519672E+02  0.00000000000E+00 0.  1.
          5    1    3    3  501    0  0.31813211032E+02  0.90899308843E+01  0.63112311681E+02  0.71414012108E+02  0.47000000000E+01 0. -1.
         11    1    6    6    0    0 -0.63349928752E+02  0.67814718422E+02  0.62784751441E+02  0.11204452026E+03  0.00000000000E+00 0. -1.
        -12    1    6    6    0    0 -0.44507743681E+02 -0.54149825586E+01  0.86124433054E+02  0.97096237067E+02  0.00000000000E+00 0.  1.
         -5    1    5    5    0  502 -0.66784755447E+02 -0.61461683192E+02  0.37951518205E+02  0.98489338484E+02  0.47000000000E+01 0.  1.
</event>
<event>
12    1  0.9749377E-001  0.1008306E+04  0.7818608E-02  0.9299482E-01
         21   -1    0    0  501  502  0.00000000000E+00  0.00000000000E+00  0.23009817043E+04  0.23009817043E+04  0.00000000000E+00 0.  1.
         21   -1    0    0  502  503 -0.00000000000E+00 -0.00000000000E+00 -0.44961327585E+03  0.44961327585E+03  0.00000000000E+00 0. -1.
         -6    2    1    2    0  503  0.48079039810E+02 -0.10003758611E+04  0.86160206557E+03  0.13322501305E+04  0.17166488634E+03 0.  0.
        -24    2    3    3    0    0 -0.31324623294E+01 -0.57411248877E+03  0.42010547608E+03  0.71640566222E+03  0.84460048232E+02 0.  0.
          6    2    1    2  501    0 -0.48079039810E+02  0.10003758611E+04  0.98976636287E+03  0.14183448497E+04  0.17029739260E+03 0.  0.
         24    2    5    5    0    0 -0.60181857555E+02  0.99553386954E+03  0.98409002082E+03  0.14033704068E+04  0.79408993507E+02 0.  0.
         14    1    6    6    0    0 -0.52938716766E+02  0.39540574164E+03  0.35684269541E+03  0.53524285845E+03  0.00000000000E+00 0. -1.
        -13    1    6    6    0    0 -0.72431407886E+01  0.60012812790E+03  0.62724732541E+03  0.86812754835E+03  0.00000000000E+00 0.  1.
          5    1    5    5  501    0  0.12102817744E+02  0.48419915784E+01  0.56763420502E+01  0.14974442857E+02  0.47000000000E+01 0.  1.
         11    1    4    4    0    0 -0.87911468994E+01 -0.35868787039E+03  0.31119516822E+03  0.47494916081E+03  0.00000000000E+00 0. -1.
        -12    1    4    4    0    0  0.56586845700E+01 -0.21542461839E+03  0.10891030785E+03  0.24145650141E+03  0.00000000000E+00 0.  1.
         -5    1    3    3    0  503  0.51211502140E+02 -0.42626337234E+03  0.44149658949E+03  0.61584446826E+03  0.47000000000E+01 0.  1.
</event>
<event>
12    1  0.9749377E-001  0.8203402E+03  0.7818608E-02  0.9531033E-01
         21   -1    0    0  501  502  0.00000000000E+00  0.00000000000E+00  0.48669849139E+03  0.48669849139E+03  0.00000000000E+00 0. -1.
         21   -1    0    0  502  503 -0.00000000000E+00 -0.00000000000E+00 -0.14018023437E+04  0.14018023437E+04  0.00000000000E+00 0.  1.
         -6    2    1    2    0  503 -0.50405146556E+03  0.63152857254E+03 -0.49363142395E+03  0.96215405201E+03  0.17079876825E+03 0.  0.
        -24    2    3    3    0    0 -0.27957320639E+03  0.26021169192E+03 -0.19787935648E+03  0.43702731485E+03  0.77235560869E+02 0.  0.
          6    2    1    2  501    0  0.50405146556E+03 -0.63152857254E+03 -0.42147242840E+03  0.92634678312E+03  0.16608171730E+03 0.  0.
         24    2    5    5    0    0  0.51268932254E+03 -0.62768324729E+03 -0.41677081653E+03  0.91478848507E+03  0.79394323065E+02 0.  0.
         12    1    6    6    0    0  0.49596996631E+03 -0.62129695591E+03 -0.41505413240E+03  0.89680881336E+03  0.00000000000E+00 0. -1.
        -11    1    6    6    0    0  0.16719356230E+02 -0.63862913810E+01 -0.17166841279E+01  0.17979671708E+02  0.00000000000E+00 0.  1.
          5    1    5    5  501    0 -0.86378569799E+01 -0.38453252482E+01 -0.47016118740E+01  0.11558298044E+02  0.47000000000E+01 0. -1.
         11    1    4    4    0    0 -0.15055116783E+03  0.16212258255E+03 -0.74909352983E+02  0.23358252733E+03  0.00000000000E+00 0. -1.
        -12    1    4    4    0    0 -0.12902203856E+03  0.98089109368E+02 -0.12297000350E+03  0.20344478753E+03  0.00000000000E+00 0.  1.
         -5    1    3    3    0  503 -0.22447825917E+03  0.37131688062E+03 -0.29575206747E+03  0.52512673716E+03  0.47000000000E+01 0.  1.
</event>
<event>
12    1  0.9749377E-001  0.3495598E+03  0.7818608E-02  0.1062796E+00
         21   -1    0    0  503  502  0.00000000000E+00  0.00000000000E+00  0.61915941304E+03  0.61915941304E+03  0.00000000000E+00 0.  1.
         21   -1    0    0  501  503 -0.00000000000E+00 -0.00000000000E+00 -0.22283547977E+03  0.22283547977E+03  0.00000000000E+00 0. -1.
          6    2    1    2  501    0  0.31262844724E+03  0.10257082489E+03  0.19928740908E+03  0.42136306661E+03  0.17197105089E+03 0.  0.
         24    2    3    3    0    0  0.32635376577E+03  0.95719826348E+02  0.16920891238E+03  0.38727308989E+03  0.75363947151E+02 0.  0.
         -6    2    1    2    0  502 -0.31262844724E+03 -0.10257082489E+03  0.19703652419E+03  0.42063182619E+03  0.17277274437E+03 0.  0.
        -24    2    5    5    0    0 -0.85573562328E+02 -0.38421466725E+02  0.21712088286E+02  0.12664235573E+03  0.82266808696E+02 0.  0.
         12    1    4    4    0    0  0.15002957506E+03  0.73900874447E+02  0.10922872666E+03  0.19975266548E+03  0.00000000000E+00 0. -1.
        -11    1    4    4    0    0  0.17632419071E+03  0.21818951901E+02  0.59980185726E+02  0.18752042441E+03  0.00000000000E+00 0.  1.
          5    1    3    3  501    0 -0.13725318528E+02  0.68509985413E+01  0.30078496698E+02  0.34089976728E+02  0.47000000000E+01 0. -1.
         13    1    6    6    0    0 -0.82602116542E+02 -0.21994450829E+02  0.46076418966E+02  0.97107682030E+02  0.00000000000E+00 0. -1.
        -14    1    6    6    0    0 -0.29714457867E+01 -0.16427015896E+02 -0.24364330680E+02  0.29534673704E+02  0.00000000000E+00 0.  1.
         -5    1    5    5    0  502 -0.22705488492E+03 -0.64149358164E+02  0.17532443590E+03  0.29398947046E+03  0.47000000000E+01 0.  1.
</event>
<event>
12    1  0.9749377E-001  0.2576728E+03  0.7818608E-02  0.1108550E+00
         21   -1    0    0  503  502  0.00000000000E+00  0.00000000000E+00  0.12021898620E+04  0.12021898620E+04  0.00000000000E+00 0.  1.
         21   -1    0    0  501  503 -0.00000000000E+00 -0.00000000000E+00 -0.67194064580E+02  0.67194064580E+02  0.00000000000E+00 0.  1.
          6    2    1    2  501    0 -0.21884859997E+03  0.42676988918E+02  0.64137473952E+03  0.70124452725E+03  0.17511794716E+03 0.  0.
         24    2    3    3    0    0 -0.17450440248E+03  0.96012034532E+02  0.52476986995E+03  0.56548805209E+03  0.68725711264E+02 0.  0.
         -6    2    1    2    0  502  0.21884859997E+03 -0.42676988918E+02  0.49362105794E+03  0.56813939936E+03  0.17147767546E+03 0.  0.
        -24    2    5    5    0    0  0.19423743997E+03 -0.14283563379E+02  0.27235728344E+03  0.34365856786E+03  0.77398437641E+02 0.  0.
         12    1    4    4    0    0 -0.68198796139E+02  0.24635434031E+01  0.14763484346E+03  0.16264437231E+03  0.00000000000E+00 0. -1.
        -11    1    4    4    0    0 -0.10630560634E+03  0.93548491129E+02  0.37713502649E+03  0.40284367978E+03  0.00000000000E+00 0.  1.
          5    1    3    3  501    0 -0.44344197485E+02 -0.53335045613E+02  0.11660486957E+03  0.13575647516E+03  0.47000000000E+01 0. -1.
         11    1    6    6    0    0  0.12662515917E+03 -0.26584614891E+02  0.11977470443E+03  0.17631407347E+03  0.00000000000E+00 0. -1.
        -12    1    6    6    0    0  0.67612280804E+02  0.12301051512E+02  0.15258257901E+03  0.16734449438E+03  0.00000000000E+00 0.  1.
         -5    1    5    5    0  502  0.24611159996E+02 -0.28393425540E+02  0.22126377450E+03  0.22448083151E+03  0.47000000000E+01 0.  1.
</event>
<event>
12    1  0.9749377E-001  0.4090067E+03  0.7818608E-02  0.1040705E+00
         21   -1    0    0  503  502  0.00000000000E+00  0.00000000000E+00  0.15185824237E+04  0.15185824237E+04  0.00000000000E+00 0. -1.
         21   -1    0    0  501  503 -0.00000000000E+00 -0.00000000000E+00 -0.18642859263E+03  0.18642859263E+03  0.00000000000E+00 0.  1.
          6    2    1    2  501    0  0.16437649481E+03 -0.35234335526E+03  0.11786898871E+04  0.12529221187E+04  0.17128489025E+03 0.  0.
         24    2    3    3    0    0  0.44921782876E+02 -0.24394369568E+03  0.70575382726E+03  0.75321168149E+03  0.87822999255E+02 0.  0.
         -6    2    1    2    0  502 -0.16437649481E+03  0.35234335526E+03  0.15346394400E+03  0.45208889761E+03  0.17224319201E+03 0.  0.
        -24    2    5    5    0    0 -0.14261534327E+03  0.29646450153E+03  0.18088002037E+03  0.38598500019E+03  0.89646538140E+02 0.  0.
         14    1    4    4    0    0  0.24465325691E+02 -0.23632291520E+03  0.60201717748E+03  0.64720302410E+03  0.00000000000E+00 0. -1.
        -13    1    4    4    0    0  0.20456457185E+02 -0.76207804797E+01  0.10373664978E+03  0.10600865740E+03  0.00000000000E+00 0.  1.
          5    1    3    3  501    0  0.11945471194E+03 -0.10839965958E+03  0.47293605984E+03  0.49971043725E+03  0.47000000000E+01 0. -1.
         11    1    6    6    0    0 -0.19450943125E+02  0.41768547817E+01 -0.17752587670E+01  0.19973403515E+02  0.00000000000E+00 0. -1.
        -12    1    6    6    0    0 -0.12316440015E+03  0.29228764675E+03  0.18265527914E+03  0.36601159668E+03  0.00000000000E+00 0.  1.
         -5    1    5    5    0  502 -0.21761151540E+02  0.55878853731E+02 -0.27416076369E+02  0.66103897420E+02  0.47000000000E+01 0.  1.
</event>
<event>
12    1  0.9749377E-001  0.3665250E+03  0.7818608E-02  0.1056030E+00
         21   -1    0    0  503  502  0.00000000000E+00  0.00000000000E+00  0.17349865126E+03  0.17349865126E+03  0.00000000000E+00 0.  1.
         21   -1    0    0  501  503 -0.00000000000E+00 -0.00000000000E+00 -0.83303222146E+03  0.83303222146E+03  0.00000000000E+00 0. -1.
          6    2    1    2  501    0 -0.19662096221E+03 -0.27098092661E+03 -0.39280712029E+03  0.54491437287E+03  0.17476777349E+03 0.  0.
         24    2    3    3    0    0 -0.33517642766E+02 -0.15200297384E+03 -0.16331702999E+03  0.23922459941E+03  0.79546340221E+02 0.  0.
         -6    2    1    2    0  502  0.19662096221E+03  0.27098092661E+03 -0.26672644991E+03  0.46161649984E+03  0.17278983905E+03 0.  0.
        -24    2    5    5    0    0  0.21570583019E+03  0.20993666884E+03 -0.20729714173E+03  0.37418328954E+03  0.80241006354E+02 0.  0.
         12    1    4    4    0    0 -0.39107064847E+02 -0.10981373625E+03 -0.15798259735E+03  0.19633369618E+03  0.00000000000E+00 0. -1.
        -11    1    4    4    0    0  0.55894220812E+01 -0.42189237593E+02 -0.53344326391E+01  0.42890903225E+02  0.00000000000E+00 0.  1.
          5    1    3    3  501    0 -0.16310331944E+03 -0.11897795276E+03 -0.22949009030E+03  0.30568977346E+03  0.47000000000E+01 0. -1.
         13    1    6    6    0    0  0.26016625523E+02  0.15571246361E+01 -0.32256506871E+01  0.26262030825E+02  0.00000000000E+00 0. -1.
        -14    1    6    6    0    0  0.18968920467E+03  0.20837954421E+03 -0.20407149104E+03  0.34792125871E+03  0.00000000000E+00 0.  1.
         -5    1    5    5    0  502 -0.19084867982E+02  0.61044257767E+02 -0.59429308185E+02  0.87433210301E+02  0.47000000000E+01 0.  1.
</event>
<event>
12    1  0.9749377E-001  0.3408471E+03  0.7818608E-02  0.1066436E+00
         21   -1    0    0  503  502  0.00000000000E+00  0.00000000000E+00  0.60199704509E+03  0.60199704509E+03  0.00000000000E+00 0. -1.
         21   -1    0    0  501  503 -0.00000000000E+00 -0.00000000000E+00 -0.10513431461E+04  0.10513431461E+04  0.00000000000E+00 0.  1.
          6    2    1    2  501    0  0.20677601965E+03  0.23464632498E+03  0.51430909330E+03  0.62608960241E+03  0.17221825299E+03 0.  0.
         24    2    3    3    0    0  0.61450465580E+02  0.16005801181E+03  0.22229136210E+03  0.29145640252E+03  0.78349588677E+02 0.  0.
         -6    2    1    2    0  502 -0.20677601965E+03 -0.23464632498E+03 -0.96365519435E+03  0.10272505888E+04  0.16969743219E+03 0.  0.
        -24    2    5    5    0    0 -0.90339317755E+02 -0.51874539117E+02 -0.47296351538E+03  0.49081471654E+03  0.79702189097E+02 0.  0.
         14    1    4    4    0    0  0.87064514238E+01  0.82684996715E+01  0.66730971534E+02  0.67802602790E+02  0.00000000000E+00 0. -1.
        -13    1    4    4    0    0  0.52744014157E+02  0.15178951213E+03  0.15556039056E+03  0.22365379974E+03  0.00000000000E+00 0.  1.
          5    1    3    3  501    0  0.14532555407E+03  0.74588313176E+02  0.29201773120E+03  0.33463319988E+03  0.47000000000E+01 0. -1.
         13    1    6    6    0    0 -0.87065948902E+02 -0.69180768498E+02 -0.36980643847E+03  0.38616480953E+03  0.00000000000E+00 0. -1.
        -14    1    6    6    0    0 -0.32733688531E+01  0.17306229381E+02 -0.10315707691E+03  0.10464990700E+03  0.00000000000E+00 0.  1.
         -5    1    5    5    0  502 -0.11643670189E+03 -0.18277178587E+03 -0.49069167897E+03  0.53643587228E+03  0.47000000000E+01 0.  1.
</event>
<event>
12    1  0.9749377E-001  0.4897512E+03  0.7818608E-02  0.1016489E+00
         21   -1    0    0  503  502  0.00000000000E+00  0.00000000000E+00  0.51715386261E+03  0.51715386261E+03  0.00000000000E+00 0. -1.
         21   -1    0    0  501  503 -0.00000000000E+00 -0.00000000000E+00 -0.61649999896E+03  0.61649999896E+03  0.00000000000E+00 0.  1.
          6    2    1    2  501    0  0.30961431774E+03  0.35277003385E+03 -0.30904713972E+03  0.59053765572E+03  0.18143005739E+03 0.  0.
         24    2    3    3    0    0  0.11576081145E+03  0.66776024293E+02 -0.10851996462E+03  0.19103171915E+03  0.82806594617E+02 0.  0.
         -6    2    1    2    0  502 -0.30961431774E+03 -0.35277003385E+03  0.20970100338E+03  0.54311620585E+03  0.17519412009E+03 0.  0.
        -24    2    5    5    0    0 -0.30129911478E+03 -0.25644008479E+03  0.17755442743E+03  0.44111574491E+03  0.80714633482E+02 0.  0.
         14    1    4    4    0    0  0.11688692467E+03  0.58430641544E+02 -0.63606723575E+02  0.14533584663E+03  0.00000000000E+00 0. -1.
        -13    1    4    4    0    0 -0.11261132243E+01  0.83453827490E+01 -0.44913241049E+02  0.45695872524E+02  0.00000000000E+00 0.  1.
          5    1    3    3  501    0  0.19385350629E+03  0.28599400956E+03 -0.20052717510E+03  0.39950593657E+03  0.47000000000E+01 0. -1.
         13    1    6    6    0    0 -0.54719075381E+02 -0.70469580501E+02  0.10090537405E+02  0.89788406443E+02  0.00000000000E+00 0. -1.
        -14    1    6    6    0    0 -0.24658003940E+03 -0.18597050429E+03  0.16746389003E+03  0.35132733847E+03  0.00000000000E+00 0.  1.
         -5    1    5    5    0  502 -0.83152029587E+01 -0.96329949066E+02  0.32146575946E+02  0.10200046094E+03  0.47000000000E+01 0.  1.
</event>
<event>
12    1  0.9749377E-001  0.3136549E+03  0.7818608E-02  0.1078607E+00
         21   -1    0    0  503  502  0.00000000000E+00  0.00000000000E+00  0.13246418310E+03  0.13246418310E+03  0.00000000000E+00 0.  1.
         21   -1    0    0  501  503 -0.00000000000E+00 -0.00000000000E+00 -0.88472941377E+03  0.88472941377E+03  0.00000000000E+00 0. -1.
          6    2    1    2  501    0  0.28329555682E+03  0.75192367888E+02 -0.44494730771E+03  0.55899157005E+03  0.16906567968E+03 0.  0.
         24    2    3    3    0    0  0.97489937484E+02  0.35403136442E+02 -0.27312152534E+03  0.30276296001E+03  0.79450439703E+02 0.  0.
         -6    2    1    2    0  502 -0.28329555682E+03 -0.75192367888E+02 -0.30731792297E+03  0.45820202682E+03  0.17203059873E+03 0.  0.
        -24    2    5    5    0    0 -0.14079336578E+03 -0.10514972516E+03 -0.15369933968E+03  0.24648269176E+03  0.79063226405E+02 0.  0.
         14    1    4    4    0    0  0.84179082838E+02  0.48361439202E+02 -0.15291611301E+03  0.18113057281E+03  0.00000000000E+00 0. -1.
        -13    1    4    4    0    0  0.13310854646E+02 -0.12958302759E+02 -0.12020541233E+03  0.12163238720E+03  0.00000000000E+00 0.  1.
          5    1    3    3  501    0  0.18580561934E+03  0.39789231446E+02 -0.17182578237E+03  0.25622861004E+03  0.47000000000E+01 0. -1.
         11    1    6    6    0    0 -0.13344755607E+03 -0.97462214766E+02 -0.10308964021E+03  0.19476808631E+03  0.00000000000E+00 0. -1.
        -12    1    6    6    0    0 -0.73458097194E+01 -0.76875103958E+01 -0.50609699469E+02  0.51714605450E+02  0.00000000000E+00 0.  1.
         -5    1    5    5    0  502 -0.14250219104E+03  0.29957357274E+02 -0.15361858328E+03  0.21171933505E+03  0.47000000000E+01 0.  1.
</event>
<event>
12    1  0.9749377E-001  0.2813658E+03  0.7818608E-02  0.1094945E+00
         21   -1    0    0  501  502  0.00000000000E+00  0.00000000000E+00  0.18449307895E+03  0.18449307895E+03  0.00000000000E+00 0.  1.
         21   -1    0    0  502  503 -0.00000000000E+00 -0.00000000000E+00 -0.51058371931E+03  0.51058371931E+03  0.00000000000E+00 0. -1.
         -6    2    1    2    0  503 -0.48134469977E+02  0.24938235723E+03 -0.16043004562E+03  0.34620703764E+03  0.17208435744E+03 0.  0.
        -24    2    3    3    0    0 -0.67276706033E+02  0.13979847285E+03 -0.15887657290E+03  0.23485374314E+03  0.76450945484E+02 0.  0.
          6    2    1    2  501    0  0.48134469977E+02 -0.24938235723E+03 -0.16566059474E+03  0.34886976063E+03  0.17250562290E+03 0.  0.
         24    2    5    5    0    0 -0.14312484577E+02 -0.16885790721E+03 -0.48846084595E+02  0.19378420693E+03  0.80302794682E+02 0.  0.
         14    1    6    6    0    0  0.16940472535E+02 -0.10555277858E+03  0.17645093532E+01  0.10691810964E+03  0.00000000000E+00 0. -1.
        -13    1    6    6    0    0 -0.31252957112E+02 -0.63305128636E+02 -0.50610593949E+02  0.86866097297E+02  0.00000000000E+00 0.  1.
          5    1    5    5  501    0  0.62446954554E+02 -0.80524450020E+02 -0.11681451014E+03  0.15508555369E+03  0.47000000000E+01 0. -1.
         11    1    4    4    0    0 -0.78734905959E+01  0.10014609683E+03 -0.10561409312E+03  0.14575859916E+03  0.00000000000E+00 0. -1.
        -12    1    4    4    0    0 -0.59403215437E+02  0.39652376018E+02 -0.53262479781E+02  0.89095143978E+02  0.00000000000E+00 0.  1.
         -5    1    3    3    0  503  0.19142236056E+02  0.10958388439E+03 -0.15534727204E+01  0.11135329450E+03  0.47000000000E+01 0.  1.
</event>
<event>
12    1  0.9749377E-001  0.2085839E+03  0.7818608E-02  0.1142692E+00
         21   -1    0    0  501  502  0.00000000000E+00  0.00000000000E+00  0.66373939602E+02  0.66373939602E+02  0.00000000000E+00 0.  1.
         21   -1    0    0  502  503 -0.00000000000E+00 -0.00000000000E+00 -0.14292546435E+04  0.14292546435E+04  0.00000000000E+00 0. -1.
         -6    2    1    2    0  503 -0.63468148003E+02 -0.12728144664E+03 -0.16720466087E+03  0.27932179740E+03  0.17272664941E+03 0.  0.
        -24    2    3    3    0    0  0.34266878275E+02 -0.60946721651E+02 -0.80339160934E+02  0.13262436668E+03  0.79032398613E+02 0.  0.
          6    2    1    2  501    0  0.63468148003E+02  0.12728144664E+03 -0.11956760430E+04  0.12163067857E+04  0.17184942421E+03 0.  0.
         24    2    5    5    0    0 -0.17695078789E+02  0.70041542751E+02 -0.85871001641E+03  0.86497778167E+03  0.74731097759E+02 0.  0.
         14    1    6    6    0    0  0.10269870872E+02  0.71501384553E+02 -0.50203060246E+03  0.50720079264E+03  0.00000000000E+00 0. -1.
        -13    1    6    6    0    0 -0.27964949662E+02 -0.14598418018E+01 -0.35667941395E+03  0.35777698904E+03  0.00000000000E+00 0.  1.
          5    1    5    5  501    0  0.81163226792E+02  0.57239903890E+02 -0.33696602663E+03  0.35132900405E+03  0.47000000000E+01 0.  1.
         11    1    4    4    0    0 -0.17819848203E+02  0.16012469283E+01 -0.35357077335E+02  0.39626176947E+02  0.00000000000E+00 0. -1.
        -12    1    4    4    0    0  0.52086726478E+02 -0.62547968579E+02 -0.44982083599E+02  0.92998189732E+02  0.00000000000E+00 0.  1.
         -5    1    3    3    0  503 -0.97735026277E+02 -0.66334724991E+02 -0.86865499934E+02  0.14669743072E+03  0.47000000000E+01 0.  1.
</event>
<event>
12    1  0.9749377E-001  0.4403186E+03  0.7818608E-02  0.1030649E+00
         21   -1    0    0  503  502  0.00000000000E+00  0.00000000000E+00  0.12246315244E+04  0.12246315244E+04  0.00000000000E+00 0.  1.
         21   -1    0    0  501  503 -0.00000000000E+00 -0.00000000000E+00 -0.17682265706E+03  0.17682265706E+03  0.00000000000E+00 0. -1.
          6    2    1    2  501    0  0.41744180764E+03  0.42897270279E+02  0.36768523007E+03  0.58420458774E+03  0.17321874425E+03 0.  0.
         24    2    3    3    0    0  0.22724142462E+03  0.21889624708E+02  0.29045608289E+03  0.37779737360E+03  0.79046180661E+02 0.  0.
         -6    2    1    2    0  502 -0.41744180764E+03 -0.42897270279E+02  0.68012363728E+03  0.81724959373E+03  0.17097045912E+03 0.  0.
        -24    2    5    5    0    0 -0.42031734056E+03 -0.19868243112E+02  0.65570532007E+03  0.78323564075E+03  0.80294385282E+02 0.  0.
         12    1    4    4    0    0  0.86846503319E+02 -0.25552726660E+02  0.13916068793E+03  0.16601492114E+03  0.00000000000E+00 0. -1.
        -11    1    4    4    0    0  0.14039492130E+03  0.47442351367E+02  0.15129539497E+03  0.21178245246E+03  0.00000000000E+00 0.  1.
          5    1    3    3  501    0  0.19020038302E+03  0.21007645571E+02  0.77229147176E+02  0.20640721414E+03  0.47000000000E+01 0. -1.
         11    1    6    6    0    0 -0.70560632367E+02  0.23535185244E+02  0.90440463925E+02  0.11709904056E+03  0.00000000000E+00 0. -1.
        -12    1    6    6    0    0 -0.34975670820E+03 -0.43403428356E+02  0.56526485615E+03  0.66613660019E+03  0.00000000000E+00 0.  1.
         -5    1    5    5    0  502  0.28755329189E+01 -0.23029027167E+02  0.24418317207E+02  0.34013952976E+02  0.47000000000E+01 0.  1.
</event>
<event>
12    1  0.9749377E-001  0.2676231E+03  0.7818608E-02  0.1102648E+00
         21   -1    0    0  503  502  0.00000000000E+00  0.00000000000E+00  0.31053321558E+03  0.31053321558E+03  0.00000000000E+00 0.  1.
         21   -1    0    0  501  503 -0.00000000000E+00 -0.00000000000E+00 -0.40631636331E+03  0.40631636331E+03  0.00000000000E+00 0. -1.
          6    2    1    2  501    0  0.91624283324E+02  0.22624304129E+03 -0.24231249351E+03  0.38472373618E+03  0.17238354228E+03 0.  0.
         24    2    3    3    0    0  0.98642535457E+01  0.75987736861E+02 -0.37471634823E+02  0.11780946837E+03  0.81261970006E+02 0.  0.
         -6    2    1    2    0  502 -0.91624283324E+02 -0.22624304129E+03  0.14652934578E+03  0.33212584271E+03  0.17104327871E+03 0.  0.
        -24    2    5    5    0    0 -0.48068301556E+02 -0.17043634713E+03  0.16964994848E+03  0.25750571854E+03  0.78542854690E+02 0.  0.
         14    1    4    4    0    0  0.21547591923E+02  0.83887691404E+02 -0.10333218872E+02  0.87225104752E+02  0.00000000000E+00 0. -1.
        -13    1    4    4    0    0 -0.11683338377E+02 -0.78999545429E+01 -0.27138415951E+02  0.30584363615E+02  0.00000000000E+00 0.  1.
          5    1    3    3  501    0  0.81760029778E+02  0.15025530443E+03 -0.20484085868E+03  0.26691426782E+03  0.47000000000E+01 0. -1.
         13    1    6    6    0    0  0.20663124639E+02 -0.40224221600E+02  0.27972809553E+02  0.53173591165E+02  0.00000000000E+00 0. -1.
        -14    1    6    6    0    0 -0.68731426194E+02 -0.13021212553E+03  0.14167713893E+03  0.20433212738E+03  0.00000000000E+00 0.  1.
         -5    1    5    5    0  502 -0.43555981768E+02 -0.55806694158E+02 -0.23120602705E+02  0.74620124163E+02  0.47000000000E+01 0.  1.
</event>
<event>
12    1  0.9749377E-001  0.2332639E+03  0.7818608E-02  0.1124363E+00
         21   -1    0    0  503  502  0.00000000000E+00  0.00000000000E+00  0.75987236059E+03  0.75987236059E+03  0.00000000000E+00 0.  1.
         21   -1    0    0  501  503 -0.00000000000E+00 -0.00000000000E+00 -0.11133741262E+03  0.11133741262E+03  0.00000000000E+00 0. -1.
          6    2    1    2  501    0 -0.12450646060E+03  0.16666571299E+03  0.48640517818E+03  0.55661622902E+03  0.17306735807E+03 0.  0.
         24    2    3    3    0    0 -0.12178301584E+03  0.87869214308E+02  0.21889139590E+03  0.27768609608E+03  0.81510876474E+02 0.  0.
         -6    2    1    2    0  502  0.12450646060E+03 -0.16666571299E+03  0.16212976978E+03  0.31459354419E+03  0.17147512116E+03 0.  0.
        -24    2    5    5    0    0  0.10209556953E+03 -0.81931398618E+02  0.16723754800E+03  0.22667124059E+03  0.79216124963E+02 0.  0.
         14    1    4    4    0    0 -0.40744071733E+02  0.74350597609E+02  0.14068123765E+03  0.16425377126E+03  0.00000000000E+00 0. -1.
        -13    1    4    4    0    0 -0.81038944105E+02  0.13518616699E+02  0.78210158251E+02  0.11343232481E+03  0.00000000000E+00 0.  1.
          5    1    3    3  501    0 -0.27234447583E+01  0.78796498683E+02  0.26751378228E+03  0.27893013295E+03  0.47000000000E+01 0. -1.
         13    1    6    6    0    0  0.22196572858E+02 -0.69559531762E+01 -0.37788342782E+01  0.23565922850E+02  0.00000000000E+00 0. -1.
        -14    1    6    6    0    0  0.79898996667E+02 -0.74975445441E+02  0.17101638228E+03  0.20310531774E+03  0.00000000000E+00 0.  1.
         -5    1    5    5    0  502  0.22410891070E+02 -0.84734314373E+02 -0.51077782202E+01  0.87922303594E+02  0.47000000000E+01 0.  1.
</event>
<event>
12    1  0.9749377E-001  0.4746059E+03  0.7818608E-02  0.1020628E+00
         21   -1    0    0  501  502  0.00000000000E+00  0.00000000000E+00  0.40137093247E+03  0.40137093247E+03  0.00000000000E+00 0.  1.
         21   -1    0    0  502  503 -0.00000000000E+00 -0.00000000000E+00 -0.85491932661E+03  0.85491932661E+03  0.00000000000E+00 0. -1.
         -6    2    1    2    0  503 -0.44759217639E+03 -0.83771639893E+02 -0.57663461686E+03  0.75462888519E+03  0.17204891452E+03 0.  0.
        -24    2    3    3    0    0 -0.26573997443E+03 -0.11820860615E+03 -0.36408497105E+03  0.47275024120E+03  0.79648702650E+02 0.  0.
          6    2    1    2  501    0  0.44759217639E+03  0.83771639893E+02  0.12308622271E+03  0.50166137388E+03  0.17075559084E+03 0.  0.
         24    2    5    5    0    0  0.25789755376E+03  0.49588815383E+02  0.14014704842E+03  0.30810084815E+03  0.79465329576E+02 0.  0.
         14    1    6    6    0    0  0.19107131493E+00 -0.90739073183E+01  0.99703512893E+01  0.13482589036E+02  0.00000000000E+00 0. -1.
        -13    1    6    6    0    0  0.25770648245E+03  0.58662722701E+02  0.13017669713E+03  0.29461825912E+03  0.00000000000E+00 0.  1.
          5    1    5    5  501    0  0.18969462263E+03  0.34182824511E+02 -0.17060825705E+02  0.19356052573E+03  0.47000000000E+01 0. -1.
         13    1    4    4    0    0 -0.45134423724E+02  0.46554243844E+01 -0.85230912215E+02  0.96556188709E+02  0.00000000000E+00 0. -1.
        -14    1    4    4    0    0 -0.22060555071E+03 -0.12286403054E+03 -0.27885405883E+03  0.37619405249E+03  0.00000000000E+00 0.  1.
         -5    1    3    3    0  503 -0.18185220196E+03  0.34436966261E+02 -0.21254964581E+03  0.28187864399E+03  0.47000000000E+01 0.  1.
</event>
<event>
12    1  0.9749377E-001  0.6212697E+03  0.7818608E-02  0.9862235E-01
         21   -1    0    0  503  502  0.00000000000E+00  0.00000000000E+00  0.82011909893E+03  0.82011909893E+03  0.00000000000E+00 0.  1.
         21   -1    0    0  501  503 -0.00000000000E+00 -0.00000000000E+00 -0.48998179503E+03  0.48998179503E+03  0.00000000000E+00 0. -1.
          6    2    1    2  501    0  0.60300602818E+03  0.26042491756E+01  0.69138808719E+02  0.62994299058E+03  0.16859698804E+03 0.  0.
         24    2    3    3    0    0  0.39423734400E+03 -0.49597555324E+02  0.84575089229E+02  0.41414271106E+03  0.80487505265E+02 0.  0.
         -6    2    1    2    0  502 -0.60300602818E+03 -0.26042491756E+01  0.26099849518E+03  0.68015790338E+03  0.17570289385E+03 0.  0.
        -24    2    5    5    0    0 -0.51706429914E+03  0.51846344860E+02  0.21078330239E+03  0.56660393573E+03  0.81036328274E+02 0.  0.
         14    1    4    4    0    0  0.21603339730E+03 -0.63322758040E+01  0.80760177155E+02  0.23072219806E+03  0.00000000000E+00 0. -1.
        -13    1    4    4    0    0  0.17820394670E+03 -0.43265279520E+02  0.38149120740E+01  0.18342051299E+03  0.00000000000E+00 0.  1.
          5    1    3    3  501    0  0.20876868418E+03  0.52201804500E+02 -0.15436280510E+02  0.21580027953E+03  0.47000000000E+01 0. -1.
         13    1    6    6    0    0 -0.28512810800E+03  0.69030342944E+02  0.11792783212E+03  0.31618064426E+03  0.00000000000E+00 0. -1.
        -14    1    6    6    0    0 -0.23193619114E+03 -0.17183998084E+02  0.92855470269E+02  0.25042329147E+03  0.00000000000E+00 0.  1.
         -5    1    5    5    0  502 -0.85941729040E+02 -0.54450594035E+02  0.50215192791E+02  0.11355396765E+03  0.47000000000E+01 0.  1.
</event>
<event>
12    1  0.9749377E-001  0.2984802E+03  0.7818608E-02  0.1086003E+00
         21   -1    0    0  503  502  0.00000000000E+00  0.00000000000E+00  0.16834331367E+03  0.16834331367E+03  0.00000000000E+00 0. -1.
         21   -1    0    0  501  503 -0.00000000000E+00 -0.00000000000E+00 -0.10234433607E+04  0.10234433607E+04  0.00000000000E+00 0.  1.
          6    2    1    2  501    0 -0.70170810400E+02 -0.24111646412E+03 -0.22785759798E+02  0.30547898845E+03  0.17244456975E+03 0.  0.
         24    2    3    3    0    0 -0.62564063439E+02 -0.26237927201E+03 -0.27249040299E+02  0.28198472380E+03  0.77561136203E+02 0.  0.
         -6    2    1    2    0  502  0.70170810400E+02  0.24111646412E+03 -0.83231428727E+03  0.88630768596E+03  0.17243302902E+03 0.  0.
        -24    2    5    5    0    0  0.94387071582E+02  0.24165187238E+03 -0.80405590262E+03  0.84879315184E+03  0.81482349973E+02 0.  0.
         14    1    4    4    0    0  0.18010787235E+02 -0.44609142951E+02  0.67972549034E+00  0.48112639902E+02  0.00000000000E+00 0. -1.
        -13    1    4    4    0    0 -0.80574850674E+02 -0.21777012906E+03 -0.27928765789E+02  0.23387208390E+03  0.00000000000E+00 0.  1.
          5    1    3    3  501    0 -0.76067469612E+01  0.21262807887E+02  0.44632805010E+01  0.23494264649E+02  0.47000000000E+01 0. -1.
         11    1    6    6    0    0  0.65722980832E+02  0.74604876279E+02 -0.36046140822E+03  0.37392221730E+03  0.00000000000E+00 0. -1.
        -12    1    6    6    0    0  0.28664090751E+02  0.16704699610E+03 -0.44359449440E+03  0.47487093453E+03  0.00000000000E+00 0.  1.
         -5    1    5    5    0  502 -0.24216261182E+02 -0.53540825744E+00 -0.28258384645E+02  0.37514534122E+02  0.47000000000E+01 0.  1.
</event>
<event>
12    1  0.9749377E-001  0.6152341E+03  0.7818608E-02  0.9874295E-01
         21   -1    0    0  503  502  0.00000000000E+00  0.00000000000E+00  0.90834825904E+03  0.90834825904E+03  0.00000000000E+00 0. -1.
         21   -1    0    0  501  503 -0.00000000000E+00 -0.00000000000E+00 -0.44074691298E+03  0.44074691298E+03  0.00000000000E+00 0.  1.
          6    2    1    2  501    0 -0.42125268451E+03 -0.43697586928E+03  0.18257978046E+03  0.65699654581E+03  0.17293741766E+03 0.  0.
         24    2    3    3    0    0 -0.30718103546E+03 -0.25693960184E+03  0.17834811210E+03  0.44377038482E+03  0.68890912449E+02 0.  0.
         -6    2    1    2    0  502  0.42125268451E+03  0.43697586928E+03  0.28502156560E+03  0.69209862622E+03  0.17135192153E+03 0.  0.
        -24    2    5    5    0    0  0.18413884721E+03  0.21919706782E+03  0.70990045590E+02  0.30546939845E+03  0.79482685049E+02 0.  0.
         14    1    4    4    0    0 -0.20491288498E+03 -0.20747300397E+03  0.11316448635E+03  0.31279472307E+03  0.00000000000E+00 0. -1.
        -13    1    4    4    0    0 -0.10226815048E+03 -0.49466597871E+02  0.65183625746E+02  0.13097566175E+03  0.00000000000E+00 0.  1.
          5    1    3    3  501    0 -0.11407164906E+03 -0.18003626743E+03  0.42316683640E+01  0.21322616098E+03  0.47000000000E+01 0. -1.
         11    1    6    6    0    0  0.13434774336E+03  0.12480724940E+03  0.76311955390E+02  0.19861943557E+03  0.00000000000E+00 0. -1.
        -12    1    6    6    0    0  0.49791103845E+02  0.94389818420E+02 -0.53219098006E+01  0.10684996288E+03  0.00000000000E+00 0.  1.
         -5    1    5    5    0  502  0.23711383730E+03  0.21777880145E+03  0.21403152001E+03  0.38662922776E+03  0.47000000000E+01 0.  1.
</event>
<event>
12    1  0.9749377E-001  0.8170807E+03  0.7818608E-02  0.9535617E-01
         21   -1    0    0  503  502  0.00000000000E+00  0.00000000000E+00  0.98504381832E+03  0.98504381832E+03  0.00000000000E+00 0. -1.
         21   -1    0    0  501  503 -0.00000000000E+00 -0.00000000000E+00 -0.73620109447E+03  0.73620109447E+03  0.00000000000E+00 0.  1.
          6    2    1    2  501    0  0.88162758033E+02  0.80505457083E+03  0.32576349960E+03  0.88972020706E+03  0.17203097183E+03 0.  0.
         24    2    3    3    0    0  0.26938266419E+02  0.34457505145E+03  0.20483984683E+03  0.40968432721E+03  0.80151411941E+02 0.  0.
         -6    2    1    2    0  502 -0.88162758033E+02 -0.80505457083E+03 -0.76920775743E+02  0.83152470572E+03  0.17213656372E+03 0.  0.
        -24    2    5    5    0    0  0.14055574484E+02 -0.27208553712E+03 -0.43425492546E+02  0.28778892210E+03  0.81905992434E+02 0.  0.
         12    1    4    4    0    0  0.22270952504E+02  0.24332558750E+02  0.86738220065E+01  0.34107241591E+02  0.00000000000E+00 0. -1.
        -11    1    4    4    0    0  0.46673139151E+01  0.32024249270E+03  0.19616602483E+03  0.37557708562E+03  0.00000000000E+00 0.  1.
          5    1    3    3  501    0  0.61224491614E+02  0.46047951938E+03  0.12092365276E+03  0.48003587985E+03  0.47000000000E+01 0. -1.
         13    1    6    6    0    0 -0.38824118093E+01 -0.16624573168E+03  0.12472708763E+02  0.16675816288E+03  0.00000000000E+00 0. -1.
        -14    1    6    6    0    0  0.17937986293E+02 -0.10583980544E+03 -0.55898201309E+02  0.12103075922E+03  0.00000000000E+00 0.  1.
         -5    1    5    5    0  502 -0.10221833252E+03 -0.53296903371E+03 -0.33495283197E+02  0.54373578362E+03  0.47000000000E+01 0.  1.
</event>
<event>
12    1  0.9749377E-001  0.2233153E+03  0.7818608E-02  0.1131435E+00
         21   -1    0    0  503  502  0.00000000000E+00  0.00000000000E+00  0.15701849776E+03  0.15701849776E+03  0.00000000000E+00 0.  1.
         21   -1    0    0  501  503 -0.00000000000E+00 -0.00000000000E+00 -0.48371996003E+03  0.48371996003E+03  0.00000000000E+00 0. -1.
          6    2    1    2  501    0 -0.50718663823E+02 -0.19895791647E+03 -0.23361616213E+03  0.35652333270E+03  0.17428637401E+03 0.  0.
         24    2    3    3    0    0 -0.21676813327E+02 -0.16902742189E+03 -0.24619497534E+03  0.31271031948E+03  0.90197696432E+02 0.  0.
         -6    2    1    2    0  502  0.50718663823E+02  0.19895791647E+03 -0.93085300136E+02  0.28421512508E+03  0.17308012260E+03 0.  0.
        -24    2    5    5    0    0  0.14477037383E+02  0.11051033074E+03  0.17737810139E+02  0.13779011807E+03  0.79052950085E+02 0.  0.
         14    1    4    4    0    0 -0.27175661860E+02 -0.16402688666E+03 -0.17596769736E+03  0.24209082316E+03  0.00000000000E+00 0. -1.
        -13    1    4    4    0    0  0.54988485325E+01 -0.50005352260E+01 -0.70227277982E+02  0.70619496320E+02  0.00000000000E+00 0.  1.
          5    1    3    3  501    0 -0.29041850495E+02 -0.29930494576E+02  0.12578813205E+02  0.43813013220E+02  0.47000000000E+01 0. -1.
         13    1    6    6    0    0  0.44895403521E+02  0.47855870573E+02  0.18362218009E+02  0.68139215257E+02  0.00000000000E+00 0. -1.
        -14    1    6    6    0    0 -0.30418366138E+02  0.62654460164E+02 -0.62440787026E+00  0.69650902809E+02  0.00000000000E+00 0.  1.
         -5    1    5    5    0  502  0.36241626440E+02  0.88447585729E+02 -0.11082311027E+03  0.14642500701E+03  0.47000000000E+01 0.  1.
</event>
<event>
12    1  0.9749377E-001  0.5138211E+03  0.7818608E-02  0.1010233E+00
         21   -1    0    0  501  502  0.00000000000E+00  0.00000000000E+00  0.12443715929E+04  0.12443715929E+04  0.00000000000E+00 0. -1.
         21   -1    0    0  502  503 -0.00000000000E+00 -0.00000000000E+00 -0.24992133876E+03  0.24992133876E+03  0.00000000000E+00 0.  1.
         -6    2    1    2    0  503 -0.43999243526E+02 -0.50000745479E+03  0.26625263344E+03  0.59348047505E+03  0.17142118066E+03 0.  0.
        -24    2    3    3    0    0 -0.56569438079E+02 -0.48538158124E+03  0.21751069092E+03  0.54085165283E+03  0.80088881654E+02 0.  0.
          6    2    1    2  501    0  0.43999243526E+02  0.50000745479E+03  0.72819762067E+03  0.90081245658E+03  0.17102022951E+03 0.  0.
         24    2    5    5    0    0 -0.29328958175E+02  0.23876445177E+03  0.28549538405E+03  0.38155116195E+03  0.78771972517E+02 0.  0.
         12    1    6    6    0    0 -0.81533596497E+00  0.11126077179E+03  0.76315560302E+02  0.13492104675E+03  0.00000000000E+00 0. -1.
        -11    1    6    6    0    0 -0.28513622210E+02  0.12750367998E+03  0.20917982375E+03  0.24663011520E+03  0.00000000000E+00 0.  1.
          5    1    5    5  501    0  0.73328201701E+02  0.26124300302E+03  0.44270223662E+03  0.51926129463E+03  0.47000000000E+01 0. -1.
         13    1    4    4    0    0 -0.38039667563E+02 -0.46647313112E+03  0.21205815533E+03  0.51382181698E+03  0.00000000000E+00 0. -1.
        -14    1    4    4    0    0 -0.18529770516E+02 -0.18908450129E+02  0.54525355945E+01  0.27029835850E+02  0.00000000000E+00 0.  1.
         -5    1    3    3    0  503  0.12570194553E+02 -0.14625873543E+02  0.48741942521E+02  0.52628822224E+02  0.47000000000E+01 0.  1.
</event>
<event>
12    1  0.9749377E-001  0.3472027E+03  0.7818608E-02  0.1063769E+00
         21   -1    0    0  503  502  0.00000000000E+00  0.00000000000E+00  0.35064731835E+03  0.35064731835E+03  0.00000000000E+00 0.  1.
         21   -1    0    0  501  503 -0.00000000000E+00 -0.00000000000E+00 -0.39674220638E+03  0.39674220638E+03  0.00000000000E+00 0. -1.
          6    2    1    2  501    0  0.29855857855E+03 -0.10704083593E+03 -0.11824948774E+03  0.37949084400E+03  0.17156746179E+03 0.  0.
         24    2    3    3    0    0  0.11567121659E+03 -0.20752044584E+02 -0.10474275135E+03  0.17676426802E+03  0.80399532267E+02 0.  0.
         -6    2    1    2    0  502 -0.29855857855E+03  0.10704083593E+03  0.72154599707E+02  0.36789868073E+03  0.17189586280E+03 0.  0.
        -24    2    5    5    0    0 -0.24485466536E+03  0.13707249686E+03  0.86842339952E+02  0.30446500936E+03  0.80091656078E+02 0.  0.
         14    1    4    4    0    0 -0.14722541373E+01  0.18291267036E+02 -0.85764381820E+01  0.20255697320E+02  0.00000000000E+00 0. -1.
        -13    1    4    4    0    0  0.11714347072E+03 -0.39043311620E+02 -0.96166313168E+02  0.15650857070E+03  0.00000000000E+00 0.  1.
          5    1    3    3  501    0  0.18288736196E+03 -0.86288791341E+02 -0.13506736394E+02  0.20272657597E+03  0.47000000000E+01 0. -1.
         11    1    6    6    0    0 -0.80109661706E+02  0.10412277141E+02  0.45054978685E+02  0.92498240622E+02  0.00000000000E+00 0. -1.
        -12    1    6    6    0    0 -0.16474500365E+03  0.12666021972E+03  0.41787361267E+02  0.21196676874E+03  0.00000000000E+00 0.  1.
         -5    1    5    5    0  502 -0.53703913192E+02 -0.30031660934E+02 -0.14687740245E+02  0.63433671375E+02  0.47000000000E+01 0.  1.
</event>
<event>
12    1  0.9749377E-001  0.3382217E+03  0.7818608E-02  0.1067556E+00
         21   -1    0    0  501  502  0.00000000000E+00  0.00000000000E+00  0.42702148405E+03  0.42702148405E+03  0.00000000000E+00 0. -1.
         21   -1    0    0  502  503 -0.00000000000E+00 -0.00000000000E+00 -0.44799973504E+03  0.44799973504E+03  0.00000000000E+00 0.  1.
         -6    2    1    2    0  503 -0.31589478397E+03  0.90972722456E+02 -0.24200451462E+03  0.44314627341E+03  0.17247284936E+03 0.  0.
        -24    2    3    3    0    0 -0.24381418601E+03  0.99848150475E+02 -0.11804937658E+03  0.29940570129E+03  0.79329113230E+02 0.  0.
          6    2    1    2  501    0  0.31589478397E+03 -0.90972722456E+02  0.22102626363E+03  0.43187494568E+03  0.17204013692E+03 0.  0.
         24    2    5    5    0    0  0.28397441724E+03 -0.65953011380E+02  0.12378835743E+03  0.32641312245E+03  0.78934781410E+02 0.  0.
         12    1    6    6    0    0  0.94895939785E+02 -0.55169678442E+02  0.67409487828E+02  0.12881370989E+03  0.00000000000E+00 0. -1.
        -11    1    6    6    0    0  0.18907847745E+03 -0.10783332939E+02  0.56378869599E+02  0.19759941256E+03  0.00000000000E+00 0.  1.
          5    1    5    5  501    0  0.31920366736E+02 -0.25019711075E+02  0.97237906206E+02  0.10546182323E+03  0.47000000000E+01 0. -1.
         13    1    4    4    0    0 -0.12078410615E+03  0.43684757041E+02 -0.14872863516E+02  0.12929949870E+03  0.00000000000E+00 0. -1.
        -14    1    4    4    0    0 -0.12303007986E+03  0.56163393433E+02 -0.10317651307E+03  0.17010620259E+03  0.00000000000E+00 0.  1.
         -5    1    3    3    0  503 -0.72080597969E+02 -0.88754280187E+01 -0.12395513804E+03  0.14374057211E+03  0.47000000000E+01 0.  1.
</event>
<event>
12    1  0.9749377E-001  0.2368780E+03  0.7818608E-02  0.1121890E+00
         21   -1    0    0  501  502  0.00000000000E+00  0.00000000000E+00  0.31486191770E+03  0.31486191770E+03  0.00000000000E+00 0. -1.
         21   -1    0    0  502  503 -0.00000000000E+00 -0.00000000000E+00 -0.26273927553E+03  0.26273927553E+03  0.00000000000E+00 0. -1.
         -6    2    1    2    0  503 -0.21264218990E+03  0.15032578706E+01  0.11578095924E+03  0.29702987119E+03  0.17205392511E+03 0.  0.
        -24    2    3    3    0    0 -0.71895344282E+02  0.52935959510E+02  0.23329824568E+02  0.12089270972E+03  0.78100001341E+02 0.  0.
          6    2    1    2  501    0  0.21264218990E+03 -0.15032578706E+01 -0.63658317072E+02  0.28057132204E+03  0.17160689005E+03 0.  0.
         24    2    5    5    0    0  0.15429626977E+03  0.16049272951E+02  0.21232552699E+02  0.17597262461E+03  0.80315784824E+02 0.  0.
         14    1    6    6    0    0  0.69009226692E+02 -0.30363597453E+02 -0.44831830078E+01  0.75526951142E+02  0.00000000000E+00 0. -1.
        -13    1    6    6    0    0  0.85287043073E+02  0.46412870404E+02  0.25715735706E+02  0.10044567347E+03  0.00000000000E+00 0.  1.
          5    1    5    5  501    0  0.58345920137E+02 -0.17552530822E+02 -0.84890869771E+02  0.10459869744E+03  0.47000000000E+01 0. -1.
         11    1    4    4    0    0 -0.64000961269E+02  0.51627616442E+02  0.47824045635E+02  0.95124514000E+02  0.00000000000E+00 0. -1.
        -12    1    4    4    0    0 -0.78943830129E+01  0.13083430681E+01 -0.24494221067E+02  0.25768195716E+02  0.00000000000E+00 0.  1.
         -5    1    3    3    0  503 -0.14074684562E+03 -0.51432701639E+02  0.92451134672E+02  0.17613716147E+03  0.47000000000E+01 0.  1.
</event>
<event>
12    1  0.9749377E-001  0.4075247E+03  0.7818608E-02  0.1041205E+00
         21   -1    0    0  503  502  0.00000000000E+00  0.00000000000E+00  0.44292435262E+03  0.44292435262E+03  0.00000000000E+00 0.  1.
         21   -1    0    0  501  503 -0.00000000000E+00 -0.00000000000E+00 -0.10711445301E+04  0.10711445301E+04  0.00000000000E+00 0. -1.
          6    2    1    2  501    0 -0.38258235819E+03 -0.53247468424E+02 -0.91222442281E+03  0.10054143216E+04  0.17175566001E+03 0.  0.
         24    2    3    3    0    0 -0.14833739238E+03 -0.65943066612E+02 -0.49100258688E+03  0.52325064885E+03  0.79719703891E+02 0.  0.
         -6    2    1    2    0  502  0.38258235819E+03  0.53247468424E+02  0.28400424529E+03  0.50865456119E+03  0.16990143493E+03 0.  0.
        -24    2    5    5    0    0  0.29486949862E+03  0.75267478911E+02  0.15109392394E+03  0.34782648493E+03  0.74435711643E+02 0.  0.
         12    1    4    4    0    0 -0.15523245272E+03 -0.50542947440E+02 -0.45716290955E+03  0.48543756528E+03  0.00000000000E+00 0. -1.
        -11    1    4    4    0    0  0.68950603403E+01 -0.15400119173E+02 -0.33839677326E+02  0.37813083571E+02  0.00000000000E+00 0.  1.
          5    1    3    3  501    0 -0.23424496581E+03  0.12695598189E+02 -0.42122183593E+03  0.48216367271E+03  0.47000000000E+01 0. -1.
         13    1    6    6    0    0  0.32753171720E+02 -0.97452834229E+01  0.34679860185E+02  0.48687097974E+02  0.00000000000E+00 0. -1.
        -14    1    6    6    0    0  0.26211632690E+03  0.85012762334E+02  0.11641406376E+03  0.29913938695E+03  0.00000000000E+00 0.  1.
         -5    1    5    5    0  502  0.87712859573E+02 -0.22020010487E+02  0.13291032134E+03  0.16082807627E+03  0.47000000000E+01 0.  1.
</event>
<event>
12    1  0.9749377E-001  0.7163658E+03  0.7818608E-02  0.9689647E-01
         21   -1    0    0  503  502  0.00000000000E+00  0.00000000000E+00  0.47425024134E+03  0.47425024134E+03  0.00000000000E+00 0. -1.
         21   -1    0    0  501  503 -0.00000000000E+00 -0.00000000000E+00 -0.11283906563E+04  0.11283906563E+04  0.00000000000E+00 0.  1.
          6    2    1    2  501    0  0.67452726977E+03 -0.22398664013E+03 -0.34647183484E+03  0.80921190993E+03  0.17211661805E+03 0.  0.
         24    2    3    3    0    0  0.60578811938E+03 -0.17728178362E+03 -0.35042972548E+03  0.72588022738E+03  0.75452207479E+02 0.  0.
         -6    2    1    2    0  502 -0.67452726977E+03  0.22398664013E+03 -0.30766858012E+03  0.79342898771E+03  0.17237328891E+03 0.  0.
        -24    2    5    5    0    0 -0.55984021422E+03  0.20976602863E+03 -0.30935308026E+03  0.67775585322E+03  0.78935518543E+02 0.  0.
         12    1    4    4    0    0  0.35277991177E+03 -0.13880521599E+03 -0.19282228476E+03  0.42532456740E+03  0.00000000000E+00 0. -1.
        -11    1    4    4    0    0  0.25300820762E+03 -0.38476567635E+02 -0.15760744072E+03  0.30055565999E+03  0.00000000000E+00 0.  1.
          5    1    3    3  501    0  0.68739150385E+02 -0.46704856506E+02  0.39578906409E+01  0.83331682541E+02  0.47000000000E+01 0. -1.
         11    1    6    6    0    0 -0.89140352347E+02  0.46939201783E+02 -0.23351459234E+02  0.10341461081E+03  0.00000000000E+00 0. -1.
        -12    1    6    6    0    0 -0.47069986187E+03  0.16282682684E+03 -0.28600162102E+03  0.57434124241E+03  0.00000000000E+00 0.  1.
         -5    1    5    5    0  502 -0.11468705555E+03  0.14220611503E+02  0.16845001386E+01  0.11567313449E+03  0.47000000000E+01 0.  1.
</event>
<event>
12    1  0.9749377E-001  0.4709482E+03  0.7818608E-02  0.1021653E+00
         21   -1    0    0  501  502  0.00000000000E+00  0.00000000000E+00  0.12428032273E+04  0.12428032273E+04  0.00000000000E+00 0.  1.
         21   -1    0    0  502  503 -0.00000000000E+00 -0.00000000000E+00 -0.30446090111E+03  0.30446090111E+03  0.00000000000E+00 0. -1.
         -6    2    1    2    0  503 -0.34173586946E+02 -0.44979432235E+03 -0.99311223343E+01  0.48254853517E+03  0.17108972831E+03 0.  0.
        -24    2    3    3    0    0 -0.62223055431E+02 -0.43481458645E+03 -0.24597850079E+02  0.44721628258E+03  0.80386043310E+02 0.  0.
          6    2    1    2  501    0  0.34173586946E+02  0.44979432235E+03  0.94827344848E+03  0.10647155932E+04  0.17582376072E+03 0.  0.
         24    2    5    5    0    0 -0.13536774588E+02  0.17632913323E+03  0.51142157201E+03  0.54710460004E+03  0.80599079240E+02 0.  0.
         12    1    6    6    0    0  0.22151643564E+02  0.10448356810E+03  0.36304877618E+03  0.37843351490E+03  0.00000000000E+00 0. -1.
        -11    1    6    6    0    0 -0.35688418152E+02  0.71845565125E+02  0.14837279584E+03  0.16867108514E+03  0.00000000000E+00 0.  1.
          5    1    5    5  501    0  0.47710361534E+02  0.27346518912E+03  0.43685187646E+03  0.51761099315E+03  0.47000000000E+01 0. -1.
         11    1    4    4    0    0  0.80264562049E+01 -0.19580796585E+03  0.70384082726E+01  0.19609875747E+03  0.00000000000E+00 0. -1.
        -12    1    4    4    0    0 -0.70249511636E+02 -0.23900662060E+03 -0.31636258352E+02  0.25111752511E+03  0.00000000000E+00 0.  1.
         -5    1    3    3    0  503  0.28049468485E+02 -0.14979735905E+02  0.14666727745E+02  0.35332252586E+02  0.47000000000E+01 0.  1.
</event>
<event>
12    1  0.9749377E-001  0.3711968E+03  0.7818608E-02  0.1054236E+00
         21   -1    0    0  503  502  0.00000000000E+00  0.00000000000E+00  0.16626782819E+03  0.16626782819E+03  0.00000000000E+00 0.  1.
         21   -1    0    0  501  503 -0.00000000000E+00 -0.00000000000E+00 -0.90979427570E+03  0.90979427570E+03  0.00000000000E+00 0. -1.
          6    2    1    2  501    0  0.32338377875E+03  0.11885357282E+03 -0.30301564513E+03  0.49078809600E+03  0.17421605509E+03 0.  0.
         24    2    3    3    0    0  0.32453206109E+03  0.14120586052E+03 -0.28851813095E+03  0.46371022247E+03  0.80773168883E+02 0.  0.
         -6    2    1    2    0  502 -0.32338377875E+03 -0.11885357282E+03 -0.44051080237E+03  0.58527400789E+03  0.17260549578E+03 0.  0.
        -24    2    5    5    0    0 -0.76712653398E+02 -0.35334650707E+02 -0.85562157513E+02  0.14500967261E+03  0.81077454448E+02 0.  0.
         14    1    4    4    0    0  0.11600491298E+03  0.88448201357E+02 -0.14103950338E+03  0.20290974761E+03  0.00000000000E+00 0. -1.
        -13    1    4    4    0    0  0.20852714810E+03  0.52757659166E+02 -0.14747862757E+03  0.26080047486E+03  0.00000000000E+00 0.  1.
          5    1    3    3  501    0 -0.11482823376E+01 -0.22352287701E+02 -0.14497514181E+02  0.27077873536E+02  0.47000000000E+01 0. -1.
         11    1    6    6    0    0 -0.18191678190E+02 -0.35127268310E+02 -0.76046040209E+02  0.85719673154E+02  0.00000000000E+00 0. -1.
        -12    1    6    6    0    0 -0.58520975207E+02 -0.20738239671E+00 -0.95161173048E+01  0.59289999454E+02  0.00000000000E+00 0.  1.
         -5    1    5    5    0  502 -0.24667112535E+03 -0.83518922114E+02 -0.35494864486E+03  0.44026433528E+03  0.47000000000E+01 0.  1.
</event>
<event>
12    1  0.9749377E-001  0.4214072E+03  0.7818608E-02  0.1036609E+00
         21   -1    0    0  501  502  0.00000000000E+00  0.00000000000E+00  0.13377408994E+04  0.13377408994E+04  0.00000000000E+00 0. -1.
         21   -1    0    0  502  503 -0.00000000000E+00 -0.00000000000E+00 -0.14368394593E+03  0.14368394593E+03  0.00000000000E+00 0.  1.
         -6    2    1    2    0  503  0.20283858487E+03 -0.34135467722E+03  0.47986370264E+03  0.64673313044E+03  0.17414953841E+03 0.  0.
        -24    2    3    3    0    0  0.21402629230E+03 -0.29101699951E+03  0.36231713750E+03  0.51828729917E+03  0.82763932686E+02 0.  0.
          6    2    1    2  501    0 -0.20283858487E+03  0.34135467722E+03  0.71419325078E+03  0.83469171484E+03  0.17021090503E+03 0.  0.
         24    2    5    5    0    0 -0.59471850070E+02  0.79226467607E+02  0.28450120365E+03  0.31131559360E+03  0.78503056103E+02 0.  0.
         14    1    6    6    0    0  0.84374913054E+01  0.49353639306E+02  0.14355623119E+03  0.15203737858E+03  0.00000000000E+00 0. -1.
        -13    1    6    6    0    0 -0.67909341375E+02  0.29872828301E+02  0.14094497246E+03  0.15927821502E+03  0.00000000000E+00 0.  1.
          5    1    5    5  501    0 -0.14336673480E+03  0.26212820961E+03  0.42969204713E+03  0.52337612125E+03  0.47000000000E+01 0. -1.
         13    1    4    4    0    0  0.45193226418E+02 -0.21770616214E+02  0.72617933000E+02  0.88259569666E+02  0.00000000000E+00 0. -1.
        -14    1    4    4    0    0  0.16883306588E+03 -0.26924638330E+03  0.28969920450E+03  0.43002772951E+03  0.00000000000E+00 0.  1.
         -5    1    3    3    0  503 -0.11187707434E+02 -0.50337677705E+02  0.11754656514E+03  0.12844583127E+03  0.47000000000E+01 0.  1.
</event>
<event>
12    1  0.9749377E-001  0.1942815E+03  0.7818608E-02  0.1154655E+00
         21   -1    0    0  501  502  0.00000000000E+00  0.00000000000E+00  0.36597987491E+02  0.36597987491E+02  0.00000000000E+00 0. -1.
         21   -1    0    0  502  503 -0.00000000000E+00 -0.00000000000E+00 -0.14203171419E+04  0.14203171419E+04  0.00000000000E+00 0.  1.
         -6    2    1    2    0  503 -0.12663238244E+03  0.71842113589E+02 -0.77445480461E+03  0.80648069228E+03  0.17156285457E+03 0.  0.
        -24    2    3    3    0    0 -0.66243545160E+01  0.48880691381E+02 -0.26383004300E+03  0.28141984738E+03  0.84602806386E+02 0.  0.
          6    2    1    2  501    0  0.12663238244E+03 -0.71842113589E+02 -0.60926434980E+03  0.65043443712E+03  0.17511384719E+03 0.  0.
         24    2    5    5    0    0  0.85593926317E+02 -0.32709041763E+01 -0.18749041285E+03  0.22113092032E+03  0.80057541646E+02 0.  0.
         14    1    6    6    0    0  0.55323066150E+02 -0.30363234122E+02 -0.59075687555E+02  0.86443649245E+02  0.00000000000E+00 0. -1.
        -13    1    6    6    0    0  0.30270860166E+02  0.27092329945E+02 -0.12841472530E+03  0.13468727108E+03  0.00000000000E+00 0.  1.
          5    1    5    5  501    0  0.41038456121E+02 -0.68571209413E+02 -0.42177393695E+03  0.42930351679E+03  0.47000000000E+01 0. -1.
         11    1    4    4    0    0  0.17699129235E+02 -0.89014722337E+01 -0.15098470716E+02  0.24909018479E+02  0.00000000000E+00 0. -1.
        -12    1    4    4    0    0 -0.24323483751E+02  0.57782163615E+02 -0.24873157228E+03  0.25651082890E+03  0.00000000000E+00 0.  1.
         -5    1    3    3    0  503 -0.12000802792E+03  0.22961422208E+02 -0.51062476161E+03  0.52506084490E+03  0.47000000000E+01 0.  1.
</event>
<event>
12    1  0.9749377E-001  0.1669238E+04  0.7818608E-02  0.8779106E-01
         21   -1    0    0  503  502  0.00000000000E+00  0.00000000000E+00  0.90646005049E+03  0.90646005049E+03  0.00000000000E+00 0.  1.
         21   -1    0    0  501  503 -0.00000000000E+00 -0.00000000000E+00 -0.32410582977E+04  0.32410582977E+04  0.00000000000E+00 0. -1.
          6    2    1    2  501    0  0.91155069971E+03  0.13975005343E+04 -0.74089971927E+03  0.18337019259E+04  0.17204051182E+03 0.  0.
         24    2    3    3    0    0  0.87975559994E+03  0.13443817598E+04 -0.68469490228E+03  0.17499546632E+04  0.11046258259E+03 0.  0.
         -6    2    1    2    0  502 -0.91155069971E+03 -0.13975005343E+04 -0.15936985280E+04  0.23138164223E+04  0.17302894675E+03 0.  0.
        -24    2    5    5    0    0 -0.39129459820E+03 -0.57314920293E+03 -0.58622205634E+03  0.91194179893E+03  0.79812742671E+02 0.  0.
         12    1    4    4    0    0  0.16345828453E+03  0.27695868444E+03 -0.18314375335E+03  0.37008966219E+03  0.00000000000E+00 0. -1.
        -11    1    4    4    0    0  0.71629731541E+03  0.10674230754E+04 -0.50155114893E+03  0.13798650010E+04  0.00000000000E+00 0.  1.
          5    1    3    3  501    0  0.31795099769E+02  0.53118774476E+02 -0.56204816985E+02  0.83747262782E+02  0.47000000000E+01 0. -1.
         11    1    6    6    0    0 -0.36248024622E+03 -0.54230567451E+03 -0.57150712734E+03  0.86724147163E+03  0.00000000000E+00 0. -1.
        -12    1    6    6    0    0 -0.28814351979E+02 -0.30843528419E+02 -0.14714928995E+02  0.44700327299E+02  0.00000000000E+00 0.  1.
         -5    1    5    5    0  502 -0.52025610151E+03 -0.82435133137E+03 -0.10074764716E+04  0.14018746233E+04  0.47000000000E+01 0.  1.
</event>
<event>
12    1  0.9749377E-001  0.2053648E+03  0.7818608E-02  0.1145290E+00
         21   -1    0    0  503  502  0.00000000000E+00  0.00000000000E+00  0.77707888539E+03  0.77707888539E+03  0.00000000000E+00 0. -1.
         21   -1    0    0  501  503 -0.00000000000E+00 -0.00000000000E+00 -0.99171242725E+02  0.99171242725E+02  0.00000000000E+00 0.  1.
          6    2    1    2  501    0  0.82189658612E+02  0.92554297418E+02  0.62076188640E+03  0.65601405511E+03  0.17230114026E+03 0.  0.
         24    2    3    3    0    0  0.33376877838E+02  0.12040527837E+03  0.49493598075E+03  0.51812782214E+03  0.88788332610E+02 0.  0.
         -6    2    1    2    0  502 -0.82189658612E+02 -0.92554297418E+02  0.57145756258E+02  0.22023607300E+03  0.17296488788E+03 0.  0.
        -24    2    5    5    0    0 -0.11986232631E+03 -0.44434419229E+02  0.51511714856E+02  0.15868459056E+03  0.78650795488E+02 0.  0.
         14    1    4    4    0    0 -0.25387156035E+02  0.61406094789E+02  0.27612431356E+03  0.28400678286E+03  0.00000000000E+00 0. -1.
        -13    1    4    4    0    0  0.58764033873E+02  0.58999183584E+02  0.21881166718E+03  0.23412103929E+03  0.00000000000E+00 0.  1.
          5    1    3    3  501    0  0.48812780774E+02 -0.27850980954E+02  0.12582590566E+03  0.13788623296E+03  0.47000000000E+01 0. -1.
         11    1    6    6    0    0 -0.12159849223E+03 -0.54396031639E+02  0.59405447646E+02  0.14585653493E+03  0.00000000000E+00 0. -1.
        -12    1    6    6    0    0  0.17361659155E+01  0.99616124101E+01 -0.78937327897E+01  0.12828055630E+02  0.00000000000E+00 0.  1.
         -5    1    5    5    0  502  0.37672667702E+02 -0.48119878189E+02  0.56340414017E+01  0.61551482446E+02  0.47000000000E+01 0.  1.
</event>
<event>
12    1  0.9749377E-001  0.2699900E+03  0.7818608E-02  0.1101285E+00
         21   -1    0    0  501  502  0.00000000000E+00  0.00000000000E+00  0.17511842986E+03  0.17511842986E+03  0.00000000000E+00 0.  1.
         21   -1    0    0  502  503 -0.00000000000E+00 -0.00000000000E+00 -0.72744724624E+03  0.72744724624E+03  0.00000000000E+00 0. -1.
         -6    2    1    2    0  503  0.11763293775E+03 -0.21522671894E+03 -0.51675511284E+03  0.59717668038E+03  0.17153452236E+03 0.  0.
        -24    2    3    3    0    0  0.38282937098E+02 -0.14941156119E+03 -0.42485294630E+03  0.45898783927E+03  0.79877485756E+02 0.  0.
          6    2    1    2  501    0 -0.11763293775E+03  0.21522671894E+03 -0.35573703538E+02  0.30538899572E+03  0.17842898232E+03 0.  0.
         24    2    5    5    0    0 -0.30272893815E+02  0.17544093344E+03 -0.41611190662E+02  0.20909139837E+03  0.10144827478E+03 0.  0.
         12    1    6    6    0    0 -0.13711527096E+02  0.11052257738E+03 -0.74965817293E+02  0.13425021358E+03  0.00000000000E+00 0. -1.
        -11    1    6    6    0    0 -0.16561366719E+02  0.64918356065E+02  0.33354626631E+02  0.74841184781E+02  0.00000000000E+00 0.  1.
          5    1    5    5  501    0 -0.87360043938E+02  0.39785785500E+02  0.60374871239E+01  0.96297597350E+02  0.47000000000E+01 0. -1.
         11    1    4    4    0    0  0.16705262703E+02 -0.13573247167E+03 -0.27672826482E+03  0.30867604737E+03  0.00000000000E+00 0. -1.
        -12    1    4    4    0    0  0.21577674395E+02 -0.13679089517E+02 -0.14812468148E+03  0.15031179190E+03  0.00000000000E+00 0.  1.
         -5    1    3    3    0  503  0.79350000655E+02 -0.65815157752E+02 -0.91902166538E+02  0.13818884111E+03  0.47000000000E+01 0.  1.
</event>
<event>
12    1  0.9749377E-001  0.9367437E+03  0.7818608E-02  0.9380781E-01
         21   -1    0    0  501  502  0.00000000000E+00  0.00000000000E+00  0.50493658279E+03  0.50493658279E+03  0.00000000000E+00 0.  1.
         21   -1    0    0  502  503 -0.00000000000E+00 -0.00000000000E+00 -0.19800500980E+04  0.19800500980E+04  0.00000000000E+00 0. -1.
         -6    2    1    2    0  503  0.91869683260E+03 -0.10085094078E+03 -0.31434876426E+03  0.99116284376E+03  0.17150467858E+03 0.  0.
        -24    2    3    3    0    0  0.19176855971E+03 -0.28768937180E+02 -0.61449176091E+02  0.21811638922E+03  0.78714203089E+02 0.  0.
          6    2    1    2  501    0 -0.91869683260E+03  0.10085094078E+03 -0.11607647510E+04  0.14938238371E+04  0.17308976448E+03 0.  0.
         24    2    5    5    0    0 -0.80752326064E+03  0.39853110466E+02 -0.10244205061E+04  0.13075655714E+04  0.81291225690E+02 0.  0.
         14    1    6    6    0    0 -0.31129245121E+03  0.36965813782E+02 -0.34397921234E+03  0.46539355398E+03  0.00000000000E+00 0. -1.
        -13    1    6    6    0    0 -0.49623080944E+03  0.28872966838E+01 -0.68044129373E+03  0.84217201742E+03  0.00000000000E+00 0.  1.
          5    1    5    5  501    0 -0.11117357196E+03  0.60997830313E+02 -0.13634424490E+03  0.18625826565E+03  0.47000000000E+01 0. -1.
         13    1    4    4    0    0  0.16935122854E+03  0.68229366315E+00 -0.35827063014E+02  0.17310078734E+03  0.00000000000E+00 0. -1.
        -14    1    4    4    0    0  0.22417331166E+02 -0.29451230843E+02 -0.25622113077E+02  0.45015601887E+02  0.00000000000E+00 0.  1.
         -5    1    3    3    0  503  0.72692827290E+03 -0.72082003599E+02 -0.25289958817E+03  0.77304645454E+03  0.47000000000E+01 0.  1.
</event>
<event>
12    1  0.9749377E-001  0.1271633E+04  0.7818608E-02  0.9052368E-01
         21   -1    0    0  501  502  0.00000000000E+00  0.00000000000E+00  0.55125529607E+03  0.55125529607E+03  0.00000000000E+00 0.  1.
         21   -1    0    0  502  503 -0.00000000000E+00 -0.00000000000E+00 -0.31406644659E+04  0.31406644659E+04  0.00000000000E+00 0. -1.
         -6    2    1    2    0  503  0.12038381011E+04 -0.39845429169E+03 -0.17242009390E+04  0.21472020413E+04  0.17209221888E+03 0.  0.
        -24    2    3    3    0    0  0.76114390773E+03 -0.26458989439E+03 -0.98367497354E+03  0.12741048982E+04  0.79868501901E+02 0.  0.
          6    2    1    2  501    0 -0.12038381011E+04  0.39845429169E+03 -0.86520823089E+03  0.15447177208E+04  0.17197545704E+03 0.  0.
         24    2    5    5    0    0 -0.36979572270E+03  0.15666711179E+03 -0.23981846795E+03  0.47456718232E+03  0.80047814017E+02 0.  0.
         14    1    6    6    0    0 -0.35921146087E+03  0.15706461304E+03 -0.21398113940E+03  0.44664313977E+03  0.00000000000E+00 0. -1.
        -13    1    6    6    0    0 -0.10584261827E+02 -0.39750125408E+00 -0.25837328550E+02  0.27924042549E+02  0.00000000000E+00 0.  1.
          5    1    5    5  501    0 -0.83404237839E+03  0.24178717990E+03 -0.62538976294E+03  0.10701505384E+04  0.47000000000E+01 0. -1.
         13    1    4    4    0    0  0.50824784368E+02 -0.40188549391E+02 -0.74805237862E+02  0.98965154574E+02  0.00000000000E+00 0. -1.
        -14    1    4    4    0    0  0.71031912336E+03 -0.22440134500E+03 -0.90886973568E+03  0.11751397436E+04  0.00000000000E+00 0.  1.
         -5    1    3    3    0  503  0.44269419335E+03 -0.13386439730E+03 -0.74052596544E+03  0.87309714304E+03  0.47000000000E+01 0.  1.
</event>
<event>
12    1  0.9749377E-001  0.4707436E+03  0.7818608E-02  0.1021711E+00
         21   -1    0    0  501  502  0.00000000000E+00  0.00000000000E+00  0.14307663165E+04  0.14307663165E+04  0.00000000000E+00 0.  1.
         21   -1    0    0  502  503 -0.00000000000E+00 -0.00000000000E+00 -0.17790417478E+03  0.17790417478E+03  0.00000000000E+00 0. -1.
         -6    2    1    2    0  503  0.38694268298E+03  0.22140377082E+03  0.36987940909E+03  0.60429329036E+03  0.17209106270E+03 0.  0.
        -24    2    3    3    0    0  0.35000366603E+03  0.23995164012E+03  0.31230243519E+03  0.53326011253E+03  0.82183822997E+02 0.  0.
          6    2    1    2  501    0 -0.38694268298E+03 -0.22140377082E+03  0.88298273263E+03  0.10043772009E+04  0.17427216057E+03 0.  0.
         24    2    5    5    0    0 -0.80753931970E+02 -0.64935210575E+02  0.29423574105E+03  0.32255679077E+03  0.82039215388E+02 0.  0.
         14    1    6    6    0    0  0.42496935902E+01  0.12109669353E+02  0.64551988207E+02  0.65815371828E+02  0.00000000000E+00 0. -1.
        -13    1    6    6    0    0 -0.85003625560E+02 -0.77044879928E+02  0.22968375284E+03  0.25674141894E+03  0.00000000000E+00 0.  1.
          5    1    5    5  501    0 -0.30618875101E+03 -0.15646856024E+03  0.58874699158E+03  0.68182041014E+03  0.47000000000E+01 0. -1.
         13    1    4    4    0    0  0.26356963782E+03  0.14813516641E+03  0.25146145735E+03  0.39325036051E+03  0.00000000000E+00 0. -1.
        -14    1    4    4    0    0  0.86434028210E+02  0.91816473711E+02  0.60840977839E+02  0.14000975202E+03  0.00000000000E+00 0.  1.
         -5    1    3    3    0  503  0.36939016957E+02 -0.18547869303E+02  0.57576973900E+02  0.71033177832E+02  0.47000000000E+01 0.  1.
</event>
<event>
12    1  0.1262143E+000  0.1383007E+04  0.7818608E-02  0.8966212E-01
         21   -1    0    0  501  502  0.00000000000E+00  0.00000000000E+00  0.22295042544E+04  0.22295042544E+04  0.00000000000E+00 0. -1.
         21   -1    0    0  502  503 -0.00000000000E+00 -0.00000000000E+00 -0.87476026887E+03  0.87476026887E+03  0.00000000000E+00 0.  1.
         -6    2    1    2    0  503  0.74771920799E+03 -0.11540411933E+04  0.86952512361E+03  0.16360110744E+04  0.17193953902E+03 0.  0.
        -24    2    3    3    0    0  0.41011808086E+03 -0.73936995963E+03  0.49393732103E+03  0.98254719587E+03  0.80994676088E+02 0.  0.
          6    2    1    2  501    0 -0.74771920799E+03  0.11540411933E+04  0.48521886193E+03  0.14682534489E+04  0.17156851787E+03 0.  0.
         24    2    5    5    0    0 -0.19116566142E+03  0.28790580123E+03  0.98409665544E+02  0.36844173226E+03  0.81429646374E+02 0.  0.
         12    1    6    6    0    0 -0.75155240162E+02  0.17567245399E+03  0.31247395626E+02  0.19361177895E+03  0.00000000000E+00 0. -1.
        -11    1    6    6    0    0 -0.11601042126E+03  0.11223334724E+03  0.67162269918E+02  0.17482995331E+03  0.00000000000E+00 0.  1.
          5    1    5    5  501    0 -0.55655354657E+03  0.86613539209E+03  0.38680919638E+03  0.10998117166E+04  0.47000000000E+01 0. -1.
         13    1    4    4    0    0  0.32149330484E+02 -0.11469262608E+03  0.75287818445E+02  0.14091214828E+03  0.00000000000E+00 0. -1.
        -14    1    4    4    0    0  0.37796875037E+03 -0.62467733355E+03  0.41864950258E+03  0.84163504759E+03  0.00000000000E+00 0.  1.
         -5    1    3    3    0  503  0.33760112713E+03 -0.41467123369E+03  0.37558780259E+03  0.65346387853E+03  0.47000000000E+01 0.  1.
</event>
<event>
12    1  0.9749377E-001  0.2559637E+03  0.7818608E-02  0.1109593E+00
         21   -1    0    0  503  502  0.00000000000E+00  0.00000000000E+00  0.16951116660E+03  0.16951116660E+03  0.00000000000E+00 0. -1.
         21   -1    0    0  501  503 -0.00000000000E+00 -0.00000000000E+00 -0.60756262063E+03  0.60756262063E+03  0.00000000000E+00 0.  1.
          6    2    1    2  501    0 -0.40295048291E+02  0.23138038875E+03 -0.54138279367E+02  0.29506731448E+03  0.17021513319E+03 0.  0.
         24    2    3    3    0    0 -0.85034274752E+01  0.21527724457E+03 -0.87267050945E+02  0.24618353483E+03  0.81081405586E+02 0.  0.
         -6    2    1    2    0  502  0.40295048291E+02 -0.23138038875E+03 -0.38391317466E+03  0.48200647275E+03  0.17256980872E+03 0.  0.
        -24    2    5    5    0    0  0.46728730290E+02 -0.18581579198E+03 -0.18947726019E+03  0.28214417120E+03  0.83621877708E+02 0.  0.
         14    1    4    4    0    0 -0.97419535212E+01  0.22246202592E+03 -0.86365291954E+02  0.23883722970E+03  0.00000000000E+00 0. -1.
        -13    1    4    4    0    0  0.12385260460E+01 -0.71847813504E+01 -0.90175899118E+00  0.73463051324E+01  0.00000000000E+00 0.  1.
          5    1    3    3  501    0 -0.31791620816E+02  0.16103144180E+02  0.33128771578E+02  0.48883779650E+02  0.47000000000E+01 0. -1.
         13    1    6    6    0    0  0.34952752333E+02 -0.38600476305E+02 -0.90327997323E+02  0.10426331458E+03  0.00000000000E+00 0. -1.
        -14    1    6    6    0    0  0.11775977956E+02 -0.14721531568E+03 -0.99149262864E+02  0.17788085662E+03  0.00000000000E+00 0.  1.
         -5    1    5    5    0  502 -0.64336819985E+01 -0.45564596769E+02 -0.19443591448E+03  0.19986230155E+03  0.47000000000E+01 0.  1.
</event>
<event>
12    1  0.9749377E-001  0.1085364E+04  0.7818608E-02  0.9219575E-01
         21   -1    0    0  503  502  0.00000000000E+00  0.00000000000E+00  0.16718677367E+04  0.16718677367E+04  0.00000000000E+00 0. -1.
         21   -1    0    0  501  503 -0.00000000000E+00 -0.00000000000E+00 -0.89279704972E+03  0.89279704972E+03  0.00000000000E+00 0.  1.
          6    2    1    2  501    0  0.56394286188E+03  0.91320852896E+03 -0.19569653395E+03  0.11046333796E+04  0.17302138910E+03 0.  0.
         24    2    3    3    0    0  0.30841165753E+03  0.60524792976E+03 -0.16237396954E+03  0.70305099657E+03  0.80452413365E+02 0.  0.
         -6    2    1    2    0  502 -0.56394286188E+03 -0.91320852896E+03  0.97476722098E+03  0.14600314069E+04  0.17186973299E+03 0.  0.
        -24    2    5    5    0    0 -0.48697493751E+03 -0.67012699535E+03  0.74082583935E+03  0.11139629839E+04  0.76653933426E+02 0.  0.
         12    1    4    4    0    0  0.12625783870E+02  0.78243576312E+02 -0.27087581594E+02  0.83756819000E+02  0.00000000000E+00 0. -1.
        -11    1    4    4    0    0  0.29578587366E+03  0.52700435345E+03 -0.13528638794E+03  0.61929417757E+03  0.00000000000E+00 0.  1.
          5    1    3    3  501    0  0.25553120436E+03  0.30796059920E+03 -0.33322564418E+02  0.40158238303E+03  0.47000000000E+01 0. -1.
         13    1    6    6    0    0 -0.46205794790E+03 -0.65846440148E+03  0.71623419398E+03  0.10770628282E+04  0.00000000000E+00 0. -1.
        -14    1    6    6    0    0 -0.24916989607E+02 -0.11662593867E+02  0.24591645375E+02  0.36900155678E+02  0.00000000000E+00 0.  1.
         -5    1    5    5    0  502 -0.76967924377E+02 -0.24308153361E+03  0.23394138162E+03  0.34606842301E+03  0.47000000000E+01 0.  1.
</event>
<event>
12    1  0.9749377E-001  0.4409946E+03  0.7818608E-02  0.1030442E+00
         21   -1    0    0  501  502  0.00000000000E+00  0.00000000000E+00  0.13476834270E+03  0.13476834270E+03  0.00000000000E+00 0.  1.
         21   -1    0    0  502  503 -0.00000000000E+00 -0.00000000000E+00 -0.19040501116E+04  0.19040501116E+04  0.00000000000E+00 0. -1.
         -6    2    1    2    0  503 -0.17246292713E+03 -0.37896526173E+03 -0.41652164113E+03  0.61309731450E+03  0.17041099930E+03 0.  0.
        -24    2    3    3    0    0 -0.78868538317E+02 -0.92892762620E+02 -0.10460667791E+03  0.17961096103E+03  0.80425298102E+02 0.  0.
          6    2    1    2  501    0  0.17246292713E+03  0.37896526173E+03 -0.13527601278E+04  0.14257211398E+04  0.17135540366E+03 0.  0.
         24    2    5    5    0    0  0.14829950051E+03  0.36746725132E+03 -0.13255730021E+04  0.13872854112E+04  0.10194167765E+03 0.  0.
         14    1    6    6    0    0  0.14771015214E+03  0.24996186875E+03 -0.89146729327E+03  0.93755701685E+03  0.00000000000E+00 0. -1.
        -13    1    6    6    0    0  0.58934837572E+00  0.11750538257E+03 -0.43410570885E+03  0.44972839439E+03  0.00000000000E+00 0.  1.
          5    1    5    5  501    0  0.24163426623E+02  0.11498010405E+02 -0.27187125671E+02  0.38435728583E+02  0.47000000000E+01 0. -1.
         11    1    4    4    0    0 -0.78000932241E+02 -0.10666358198E+03 -0.93095873918E+02  0.16164190945E+03  0.00000000000E+00 0. -1.
        -12    1    4    4    0    0 -0.86760607556E+00  0.13770819356E+02 -0.11510803995E+02  0.17969051579E+02  0.00000000000E+00 0.  1.
         -5    1    3    3    0  503 -0.93594388817E+02 -0.28607249911E+03 -0.31191496322E+03  0.43348635347E+03  0.47000000000E+01 0.  1.
</event>
<event>
12    1  0.9749377E-001  0.4426720E+03  0.7818608E-02  0.1029930E+00
         21   -1    0    0  501  502  0.00000000000E+00  0.00000000000E+00  0.47557628659E+03  0.47557628659E+03  0.00000000000E+00 0. -1.
         21   -1    0    0  502  503 -0.00000000000E+00 -0.00000000000E+00 -0.59208461843E+03  0.59208461843E+03  0.00000000000E+00 0.  1.
         -6    2    1    2    0  503 -0.37909626451E+03 -0.18518722802E+03  0.21427869096E+03  0.50306598734E+03  0.17073881526E+03 0.  0.
        -24    2    3    3    0    0 -0.17351820397E+03 -0.14164709146E+03  0.70314325782E+02  0.24829960238E+03  0.80846289362E+02 0.  0.
          6    2    1    2  501    0  0.37909626451E+03  0.18518722802E+03 -0.33078702280E+03  0.56459491768E+03  0.17702847069E+03 0.  0.
         24    2    5    5    0    0  0.32779777539E+03  0.19452127297E+03 -0.33249482330E+03  0.51221490275E+03  0.80755135411E+02 0.  0.
         12    1    6    6    0    0  0.20772609715E+03  0.16261432896E+03 -0.24710213220E+03  0.36145956227E+03  0.00000000000E+00 0. -1.
        -11    1    6    6    0    0  0.12007167824E+03  0.31906944012E+02 -0.85392691106E+02  0.15075534049E+03  0.00000000000E+00 0.  1.
          5    1    5    5  501    0  0.51298489122E+02 -0.93340449541E+01  0.17078004999E+01  0.52380014929E+02  0.47000000000E+01 0. -1.
         13    1    4    4    0    0  0.96843201787E+00  0.60652854580E+01  0.10211999732E+02  0.11916815295E+02  0.00000000000E+00 0. -1.
        -14    1    4    4    0    0 -0.17448663599E+03 -0.14771237692E+03  0.60102326050E+02  0.23638278708E+03  0.00000000000E+00 0.  1.
         -5    1    3    3    0  503 -0.20557806054E+03 -0.43540136557E+02  0.14396436518E+03  0.25476638496E+03  0.47000000000E+01 0.  1.
</event>
<event>
12    1  0.9749377E-001  0.2739538E+03  0.7818608E-02  0.1099038E+00
         21   -1    0    0  501  502  0.00000000000E+00  0.00000000000E+00  0.84749358432E+02  0.84749358432E+02  0.00000000000E+00 0. -1.
         21   -1    0    0  502  503 -0.00000000000E+00 -0.00000000000E+00 -0.10018133782E+04  0.10018133782E+04  0.00000000000E+00 0.  1.
         -6    2    1    2    0  503  0.88069138169E+02 -0.20949170609E+03 -0.58608635455E+03  0.64976217603E+03  0.16447103817E+03 0.  0.
        -24    2    3    3    0    0  0.10461904530E+03 -0.89888010703E+02 -0.33661891393E+03  0.37257083903E+03  0.80447111688E+02 0.  0.
          6    2    1    2  501    0 -0.88069138169E+02  0.20949170609E+03 -0.33097766522E+03  0.43680056060E+03  0.17206268289E+03 0.  0.
         24    2    5    5    0    0 -0.52718276004E+02  0.22341093455E+03 -0.26108352640E+03  0.35710922470E+03  0.81674526647E+02 0.  0.
         14    1    6    6    0    0 -0.29080394507E+02  0.41710197178E+02 -0.10398455064E+03  0.11575057955E+03  0.00000000000E+00 0. -1.
        -13    1    6    6    0    0 -0.23637881497E+02  0.18170073737E+03 -0.15709897576E+03  0.24135864515E+03  0.00000000000E+00 0.  1.
          5    1    5    5  501    0 -0.35350862165E+02 -0.13919228457E+02 -0.69894138818E+02  0.79691335901E+02  0.47000000000E+01 0. -1.
         11    1    4    4    0    0  0.96421988526E+02 -0.10182354096E+03 -0.32514434875E+03  0.35409614639E+03  0.00000000000E+00 0. -1.
        -12    1    4    4    0    0  0.81970567711E+01  0.11935530260E+02 -0.11474565179E+02  0.18474692645E+02  0.00000000000E+00 0.  1.
         -5    1    3    3    0  503 -0.16549907128E+02 -0.11960369539E+03 -0.24946744062E+03  0.27719133700E+03  0.47000000000E+01 0.  1.
</event>
<event>
12    1  0.9749377E-001  0.6033473E+03  0.7818608E-02  0.9898486E-01
         21   -1    0    0  501  502  0.00000000000E+00  0.00000000000E+00  0.90669668905E+03  0.90669668905E+03  0.00000000000E+00 0. -1.
         21   -1    0    0  502  503 -0.00000000000E+00 -0.00000000000E+00 -0.44968222738E+03  0.44968222738E+03  0.00000000000E+00 0.  1.
         -6    2    1    2    0  503 -0.75147115964E+02 -0.58644588265E+03  0.48966880148E+02  0.61744109105E+03  0.17108443311E+03 0.  0.
        -24    2    3    3    0    0 -0.10690961432E+03 -0.44675404546E+03  0.82298368359E+00  0.46623728672E+03  0.79735108024E+02 0.  0.
          6    2    1    2  501    0  0.75147115964E+02  0.58644588265E+03  0.40804758152E+03  0.73893782537E+03  0.17309078156E+03 0.  0.
         24    2    5    5    0    0  0.33321905305E+02  0.18579999186E+03  0.62657742245E+02  0.20829415102E+03  0.61874666358E+02 0.  0.
         14    1    6    6    0    0  0.41806340161E+02  0.18103589179E+03  0.67168937985E+02  0.19756879922E+03  0.00000000000E+00 0. -1.
        -13    1    6    6    0    0 -0.84844348566E+01  0.47641000741E+01 -0.45111957394E+01  0.10725351805E+02  0.00000000000E+00 0.  1.
          5    1    5    5  501    0  0.41825210660E+02  0.40064589079E+03  0.34538983927E+03  0.53064367435E+03  0.47000000000E+01 0. -1.
         13    1    4    4    0    0 -0.11567668598E+03 -0.43610134646E+03  0.67225828934E+01  0.45123239376E+03  0.00000000000E+00 0. -1.
        -14    1    4    4    0    0  0.87670716648E+01 -0.10652699008E+02 -0.58995992098E+01  0.15004892954E+02  0.00000000000E+00 0.  1.
         -5    1    3    3    0  503  0.31762498354E+02 -0.13969183719E+03  0.48143896464E+02  0.15120380434E+03  0.47000000000E+01 0.  1.
</event>
<event>
12    1  0.9749377E-001  0.1936779E+03  0.7818608E-02  0.1155185E+00
         21   -1    0    0  503  502  0.00000000000E+00  0.00000000000E+00  0.19880154832E+03  0.19880154832E+03  0.00000000000E+00 0.  1.
         21   -1    0    0  501  503 -0.00000000000E+00 -0.00000000000E+00 -0.23314164447E+03  0.23314164447E+03  0.00000000000E+00 0.  1.
          6    2    1    2  501    0 -0.10424537860E+03  0.77244335051E+02 -0.11922428628E+02  0.21501591924E+03  0.17104360545E+03 0.  0.
         24    2    3    3    0    0  0.94162255808E+01  0.73303813595E+01 -0.23581822286E+01  0.81148499769E+02  0.80231653331E+02 0.  0.
         -6    2    1    2    0  502  0.10424537860E+03 -0.77244335051E+02 -0.22417667526E+02  0.21692727355E+03  0.17239809725E+03 0.  0.
        -24    2    5    5    0    0 -0.13702451762E+02 -0.25261985378E+02 -0.19493297717E+02  0.87913718820E+02  0.80764523223E+02 0.  0.
         14    1    4    4    0    0 -0.18827319375E+02 -0.20406433257E+01 -0.33244084217E+02  0.38259656500E+02  0.00000000000E+00 0. -1.
        -13    1    4    4    0    0  0.28243544956E+02  0.93710246852E+01  0.30885901988E+02  0.42888843269E+02  0.00000000000E+00 0.  1.
          5    1    3    3  501    0 -0.11366160418E+03  0.69913953691E+02 -0.95642463993E+01  0.13386741947E+03  0.47000000000E+01 0. -1.
         13    1    6    6    0    0  0.27739819672E+02 -0.20389682608E+02 -0.29118637781E+02  0.45090263012E+02  0.00000000000E+00 0. -1.
        -14    1    6    6    0    0 -0.41442271435E+02 -0.48723027702E+01  0.96253400644E+01  0.42823455808E+02  0.00000000000E+00 0.  1.
         -5    1    5    5    0  502  0.11794783037E+03 -0.51982349673E+02 -0.29243698088E+01  0.12901355473E+03  0.47000000000E+01 0.  1.
</event>
<event>
12    1  0.9749377E-001  0.3602623E+03  0.7818608E-02  0.1058480E+00
         21   -1    0    0  503  502  0.00000000000E+00  0.00000000000E+00  0.16784253161E+03  0.16784253161E+03  0.00000000000E+00 0.  1.
         21   -1    0    0  501  503 -0.00000000000E+00 -0.00000000000E+00 -0.91919865796E+03  0.91919865796E+03  0.00000000000E+00 0. -1.
          6    2    1    2  501    0 -0.21312202705E+03 -0.26734702223E+03 -0.26344280993E+03  0.46497168512E+03  0.17291941809E+03 0.  0.
         24    2    3    3    0    0 -0.10120777674E+03 -0.21320961119E+03 -0.22240772254E+03  0.33396929166E+03  0.79805641076E+02 0.  0.
         -6    2    1    2    0  502  0.21312202705E+03  0.26734702223E+03 -0.48791331643E+03  0.62206950445E+03  0.17892913486E+03 0.  0.
        -24    2    5    5    0    0  0.11612604393E+03  0.13818919392E+03 -0.37881408265E+03  0.42709592120E+03  0.79556931137E+02 0.  0.
         14    1    4    4    0    0  0.66630379663E+01 -0.20888248695E+02 -0.17129180680E+01  0.21992023481E+02  0.00000000000E+00 0. -1.
        -13    1    4    4    0    0 -0.10787081470E+03 -0.19232136250E+03 -0.22069480447E+03  0.31197726818E+03  0.00000000000E+00 0.  1.
          5    1    3    3  501    0 -0.11191425031E+03 -0.54137411039E+02 -0.41035087384E+02  0.13100239346E+03  0.47000000000E+01 0. -1.
         13    1    6    6    0    0  0.11713459596E+03  0.10036408904E+03 -0.25905300323E+03  0.30149945676E+03  0.00000000000E+00 0. -1.
        -14    1    6    6    0    0 -0.10085520305E+01  0.37825104880E+02 -0.11976107942E+03  0.12559646444E+03  0.00000000000E+00 0.  1.
         -5    1    5    5    0  502  0.96995983112E+02  0.12915782831E+03 -0.10909923378E+03  0.19497358325E+03  0.47000000000E+01 0.  1.
</event>
<event>
12    1  0.1019877E+000  0.6792664E+03  0.7818608E-02  0.9753361E-01
         21   -1    0    0  503  502  0.00000000000E+00  0.00000000000E+00  0.80869598488E+03  0.80869598488E+03  0.00000000000E+00 0.  1.
         21   -1    0    0  501  503 -0.00000000000E+00 -0.00000000000E+00 -0.63201066298E+03  0.63201066298E+03  0.00000000000E+00 0. -1.
          6    2    1    2  501    0  0.37553656412E+03  0.55325743639E+03  0.27621759723E+03  0.74380658678E+03  0.17271530218E+03 0.  0.
         24    2    3    3    0    0  0.10906833335E+03  0.11373216231E+03  0.74320532304E+02  0.19156361545E+03  0.79637749570E+02 0.  0.
         -6    2    1    2    0  502 -0.37553656412E+03 -0.55325743639E+03 -0.99532275338E+02  0.69690006108E+03  0.16923805539E+03 0.  0.
        -24    2    5    5    0    0 -0.28441698968E+03 -0.38685356443E+03 -0.89833816386E+01  0.48662829027E+03  0.78598265991E+02 0.  0.
         12    1    4    4    0    0  0.85327508162E+02  0.43427724569E+02  0.15752732970E+02  0.97030405061E+02  0.00000000000E+00 0. -1.
        -11    1    4    4    0    0  0.23740825193E+02  0.70304437743E+02  0.58567799334E+02  0.94533210387E+02  0.00000000000E+00 0.  1.
          5    1    3    3  501    0  0.26646823076E+03  0.43952527408E+03  0.20189706493E+03  0.55224297133E+03  0.47000000000E+01 0. -1.
         11    1    6    6    0    0 -0.46383316140E+02 -0.11182687084E+03 -0.20132148560E+02  0.12272719529E+03  0.00000000000E+00 0. -1.
        -12    1    6    6    0    0 -0.23803367354E+03 -0.27502669359E+03  0.11148766921E+02  0.36390109499E+03  0.00000000000E+00 0.  1.
         -5    1    5    5    0  502 -0.91119574433E+02 -0.16640387196E+03 -0.90548893699E+02  0.21027177081E+03  0.47000000000E+01 0.  1.
</event>
<event>
12    1  0.9749377E-001  0.1460555E+03  0.7818608E-02  0.1205405E+00
         21   -1    0    0  501  502  0.00000000000E+00  0.00000000000E+00  0.26634836080E+02  0.26634836080E+02  0.00000000000E+00 0.  1.
         21   -1    0    0  502  503 -0.00000000000E+00 -0.00000000000E+00 -0.14004696248E+04  0.14004696248E+04  0.00000000000E+00 0.  1.
         -6    2    1    2    0  503 -0.31953947961E+02  0.53669667459E+02 -0.45940248886E+03  0.49449970913E+03  0.17198205591E+03 0.  0.
        -24    2    3    3    0    0 -0.38915020437E+02  0.98559682810E+02 -0.29315138953E+03  0.32209005731E+03  0.81091787163E+02 0.  0.
          6    2    1    2  501    0  0.31953947961E+02 -0.53669667459E+02 -0.91443229987E+03  0.93260475177E+03  0.17223154177E+03 0.  0.
         24    2    5    5    0    0  0.18842588645E+02 -0.47853803759E+02 -0.91199576810E+03  0.91731558238E+03  0.84181749587E+02 0.  0.
         12    1    6    6    0    0  0.19765680481E+01 -0.70036774298E+02 -0.59972237204E+03  0.60380127533E+03  0.00000000000E+00 0. -1.
        -11    1    6    6    0    0  0.16866020597E+02  0.22182970539E+02 -0.31227339606E+03  0.31351430704E+03  0.00000000000E+00 0.  1.
          5    1    5    5  501    0  0.13111359316E+02 -0.58158637006E+01 -0.24365317761E+01  0.15289169395E+02  0.47000000000E+01 0. -1.
         13    1    4    4    0    0  0.23961304519E+02  0.13068154854E+02 -0.57995869658E+02  0.64097126947E+02  0.00000000000E+00 0. -1.
        -14    1    4    4    0    0 -0.62876324956E+02  0.85491527956E+02 -0.23515551987E+03  0.25799293037E+03  0.00000000000E+00 0.  1.
         -5    1    3    3    0  503  0.69610724761E+01 -0.44890015351E+02 -0.16625109933E+03  0.17240965181E+03  0.47000000000E+01 0.  1.
</event>
<event>
12    1  0.9749377E-001  0.1459818E+04  0.7818608E-02  0.8911622E-01
         21   -1    0    0  501  502  0.00000000000E+00  0.00000000000E+00  0.57625297173E+03  0.57625297173E+03  0.00000000000E+00 0.  1.
         21   -1    0    0  502  503 -0.00000000000E+00 -0.00000000000E+00 -0.37436206548E+04  0.37436206548E+04  0.00000000000E+00 0. -1.
         -6    2    1    2    0  503 -0.11952889249E+04 -0.82947797938E+03 -0.14305156622E+04  0.20476139869E+04  0.17204257358E+03 0.  0.
        -24    2    3    3    0    0 -0.72321861757E+03 -0.56023772954E+03 -0.83127318903E+03  0.12386304772E+04  0.79239270127E+02 0.  0.
          6    2    1    2  501    0  0.11952889249E+04  0.82947797938E+03 -0.17368520209E+04  0.22722596397E+04  0.17250969634E+03 0.  0.
         24    2    5    5    0    0  0.83825031221E+03  0.63136511949E+03 -0.13273908548E+04  0.16939813219E+04  0.79503067101E+02 0.  0.
         12    1    6    6    0    0  0.59757020015E+03  0.47969556358E+03 -0.10093019941E+04  0.12672365577E+04  0.00000000000E+00 0. -1.
        -11    1    6    6    0    0  0.24068011206E+03  0.15166955590E+03 -0.31808886073E+03  0.42674476429E+03  0.00000000000E+00 0.  1.
          5    1    5    5  501    0  0.35703861270E+03  0.19811285990E+03 -0.40946116607E+03  0.57827831771E+03  0.47000000000E+01 0. -1.
         13    1    4    4    0    0 -0.67732016533E+03 -0.54266298642E+03 -0.80012682260E+03  0.11804442619E+04  0.00000000000E+00 0. -1.
        -14    1    4    4    0    0 -0.45898452244E+02 -0.17574743126E+02 -0.31146366429E+02  0.58186215344E+02  0.00000000000E+00 0.  1.
         -5    1    3    3    0  503 -0.47207030734E+03 -0.26924024984E+03 -0.59924247320E+03  0.80898350966E+03  0.47000000000E+01 0.  1.
</event>
<event>
12    1  0.9749377E-001  0.2727343E+03  0.7818608E-02  0.1099725E+00
         21   -1    0    0  501  502  0.00000000000E+00  0.00000000000E+00  0.18983981263E+03  0.18983981263E+03  0.00000000000E+00 0. -1.
         21   -1    0    0  502  503 -0.00000000000E+00 -0.00000000000E+00 -0.46820912959E+03  0.46820912959E+03  0.00000000000E+00 0.  1.
         -6    2    1    2    0  503 -0.23880622582E+03 -0.35969666840E+02 -0.17169226355E+03  0.34221781096E+03  0.17120913044E+03 0.  0.
        -24    2    3    3    0    0 -0.83629542302E+02 -0.61233816067E+02 -0.11037039123E+03  0.17339677444E+03  0.84506434965E+02 0.  0.
          6    2    1    2  501    0  0.23880622582E+03  0.35969666840E+02 -0.10667705341E+03  0.31583113127E+03  0.17334093379E+03 0.  0.
         24    2    5    5    0    0  0.23229740237E+03 -0.13647487830E+02 -0.78850165544E+02  0.25837982572E+03  0.79965296608E+02 0.  0.
         14    1    6    6    0    0  0.22475005338E+03 -0.98529129092E+01 -0.91753213513E+02  0.24295744191E+03  0.00000000000E+00 0. -1.
        -13    1    6    6    0    0  0.75473489863E+01 -0.37945749211E+01  0.12903047970E+02  0.15422383813E+02  0.00000000000E+00 0.  1.
          5    1    5    5  501    0  0.65088234517E+01  0.49617154670E+02 -0.27826887871E+02  0.57451305546E+02  0.47000000000E+01 0. -1.
         13    1    4    4    0    0 -0.70813808579E+02 -0.57311769750E+02 -0.36206075350E+02  0.98031190596E+02  0.00000000000E+00 0. -1.
        -14    1    4    4    0    0 -0.12815733723E+02 -0.39220463165E+01 -0.74164315884E+02  0.75365583848E+02  0.00000000000E+00 0.  1.
         -5    1    3    3    0  503 -0.15517668352E+03  0.25264149227E+02 -0.61321872318E+02  0.16882103651E+03  0.47000000000E+01 0.  1.
</event>
<event>
12    1  0.9749377E-001  0.4628547E+03  0.7818608E-02  0.1023957E+00
         21   -1    0    0  501  502  0.00000000000E+00  0.00000000000E+00  0.20975181072E+04  0.20975181072E+04  0.00000000000E+00 0. -1.
         21   -1    0    0  502  503 -0.00000000000E+00 -0.00000000000E+00 -0.34383331920E+03  0.34383331920E+03  0.00000000000E+00 0.  1.
         -6    2    1    2    0  503 -0.10548577078E+03 -0.42471086409E+03  0.18929547393E+04  0.19505258924E+04  0.17253129051E+03 0.  0.
        -24    2    3    3    0    0  0.99362249107E+01 -0.14875431883E+03  0.59582483325E+03  0.61934508763E+03  0.79715304215E+02 0.  0.
          6    2    1    2  501    0  0.10548577078E+03  0.42471086409E+03 -0.13926995133E+03  0.49082553392E+03  0.17322534310E+03 0.  0.
         24    2    5    5    0    0  0.42251240084E+02  0.37317314981E+03 -0.14098477314E+03  0.40909565885E+03  0.80244531320E+02 0.  0.
         12    1    6    6    0    0  0.41863677713E+02  0.33428037446E+03 -0.97419738055E+02  0.35069437067E+03  0.00000000000E+00 0. -1.
        -11    1    6    6    0    0  0.38756237051E+00  0.38892775352E+02 -0.43565035081E+02  0.58401288177E+02  0.00000000000E+00 0.  1.
          5    1    5    5  501    0  0.63234530693E+02  0.51537714280E+02  0.17148218030E+01  0.81729875070E+02  0.47000000000E+01 0. -1.
         11    1    4    4    0    0  0.30009985212E+02 -0.14568622305E+03  0.52614231834E+03  0.54676394719E+03  0.00000000000E+00 0. -1.
        -12    1    4    4    0    0 -0.20073760301E+02 -0.30680957809E+01  0.69682514905E+02  0.72581140442E+02  0.00000000000E+00 0.  1.
         -5    1    3    3    0  503 -0.11542199569E+03 -0.27595654526E+03  0.12971299060E+04  0.13311808048E+04  0.47000000000E+01 0.  1.
</event>
<event>
12    1  0.9749377E-001  0.5967156E+03  0.7818608E-02  0.9912244E-01
         21   -1    0    0  503  502  0.00000000000E+00  0.00000000000E+00  0.33289154370E+03  0.33289154370E+03  0.00000000000E+00 0.  1.
         21   -1    0    0  501  503 -0.00000000000E+00 -0.00000000000E+00 -0.12400619690E+04  0.12400619690E+04  0.00000000000E+00 0. -1.
          6    2    1    2  501    0 -0.11098978628E+03 -0.57178066587E+03 -0.20127758358E+03  0.63985159922E+03  0.17217880489E+03 0.  0.
         24    2    3    3    0    0 -0.56548850856E+02 -0.15684715427E+03 -0.99575776965E+02  0.20915567172E+03  0.77665676576E+02 0.  0.
         -6    2    1    2    0  502  0.11098978628E+03  0.57178066587E+03 -0.70589284173E+03  0.93310191349E+03  0.18205113135E+03 0.  0.
        -24    2    5    5    0    0  0.75508691526E+02  0.22330350549E+03 -0.38049062654E+03  0.45497647907E+03  0.81636153484E+02 0.  0.
         14    1    4    4    0    0  0.19275215129E+02 -0.43073638241E+02 -0.26786469659E+02  0.54262207717E+02  0.00000000000E+00 0. -1.
        -13    1    4    4    0    0 -0.75824065985E+02 -0.11377351603E+03 -0.72789307306E+02  0.15489346400E+03  0.00000000000E+00 0.  1.
          5    1    3    3  501    0 -0.54440935424E+02 -0.41493351160E+03 -0.10170180662E+03  0.43069592750E+03  0.47000000000E+01 0. -1.
         11    1    6    6    0    0  0.50945760886E+02  0.20151756707E+03 -0.36163553425E+03  0.41711516398E+03  0.00000000000E+00 0. -1.
        -12    1    6    6    0    0  0.24562930640E+02  0.21785938424E+02 -0.18855092289E+02  0.37861315084E+02  0.00000000000E+00 0.  1.
         -5    1    5    5    0  502  0.35481094753E+02  0.34847716038E+03 -0.32540221519E+03  0.47812543443E+03  0.47000000000E+01 0.  1.
</event>
<event>
12    1  0.9749377E-001  0.1816526E+03  0.7818608E-02  0.1166213E+00
         21   -1    0    0  501  502  0.00000000000E+00  0.00000000000E+00  0.47514140136E+03  0.47514140136E+03  0.00000000000E+00 0. -1.
         21   -1    0    0  502  503 -0.00000000000E+00 -0.00000000000E+00 -0.16308976426E+03  0.16308976426E+03  0.00000000000E+00 0.  1.
         -6    2    1    2    0  503 -0.25900938675E+02 -0.14766074323E+03  0.34300801447E+03  0.40985949256E+03  0.16690042522E+03 0.  0.
        -24    2    3    3    0    0 -0.34183954369E+02 -0.15448545003E+02  0.92209401801E+02  0.12618589875E+03  0.77544225990E+02 0.  0.
          6    2    1    2  501    0  0.25900938675E+02  0.14766074323E+03 -0.30956377364E+02  0.22837167306E+03  0.16947203321E+03 0.  0.
         24    2    5    5    0    0 -0.10483873504E+02  0.12677096061E+03  0.31129947381E+02  0.15329145399E+03  0.79676898691E+02 0.  0.
         12    1    6    6    0    0 -0.38971875205E+02  0.51994189397E+02  0.33766885592E+02  0.73228446321E+02  0.00000000000E+00 0. -1.
        -11    1    6    6    0    0  0.28488001702E+02  0.74776771213E+02 -0.26369382102E+01  0.80063007669E+02  0.00000000000E+00 0.  1.
          5    1    5    5  501    0  0.36384812178E+02  0.20889782616E+02 -0.62086324745E+02  0.75080219068E+02  0.47000000000E+01 0. -1.
         13    1    4    4    0    0 -0.25036429813E+01  0.51641123353E+01  0.87965559166E+02  0.88152571624E+02  0.00000000000E+00 0. -1.
        -14    1    4    4    0    0 -0.31680311388E+02 -0.20612657338E+02  0.42438426348E+01  0.38033327128E+02  0.00000000000E+00 0.  1.
         -5    1    3    3    0  503  0.82830156942E+01 -0.13221219822E+03  0.25079861267E+03  0.28367359381E+03  0.47000000000E+01 0.  1.
</event>
<event>
12    1  0.9749377E-001  0.4200916E+03  0.7818608E-02  0.1037036E+00
         21   -1    0    0  503  502  0.00000000000E+00  0.00000000000E+00  0.60247403452E+03  0.60247403452E+03  0.00000000000E+00 0.  1.
         21   -1    0    0  501  503 -0.00000000000E+00 -0.00000000000E+00 -0.30016266949E+03  0.30016266949E+03  0.00000000000E+00 0. -1.
          6    2    1    2  501    0 -0.24875484586E+03  0.29906348335E+03  0.15673038409E+03  0.45327434536E+03  0.17197464479E+03 0.  0.
         24    2    3    3    0    0 -0.17643979786E+03  0.11782401548E+03  0.63312989163E+02  0.23688092920E+03  0.84205339079E+02 0.  0.
         -6    2    1    2    0  502  0.24875484586E+03 -0.29906348335E+03  0.14558098095E+03  0.44936235865E+03  0.17150733788E+03 0.  0.
        -24    2    5    5    0    0  0.45527307632E+02 -0.88764922994E+02  0.51502571237E+02  0.14211692914E+03  0.87136441340E+02 0.  0.
         12    1    4    4    0    0 -0.72137314814E+02  0.35126813416E+01  0.85302819615E+01  0.72724802022E+02  0.00000000000E+00 0. -1.
        -11    1    4    4    0    0 -0.10430248305E+03  0.11431133414E+03  0.54782707201E+02  0.16415612718E+03  0.00000000000E+00 0.  1.
          5    1    3    3  501    0 -0.72315047999E+02  0.18123946787E+03  0.93417394925E+02  0.21639341615E+03  0.47000000000E+01 0. -1.
         13    1    6    6    0    0  0.52899093838E+02 -0.20274625329E+02  0.92783580357E+00  0.56658939633E+02  0.00000000000E+00 0. -1.
        -14    1    6    6    0    0 -0.73717862059E+01 -0.68490297665E+02  0.50574735433E+02  0.85457989505E+02  0.00000000000E+00 0.  1.
         -5    1    5    5    0  502  0.20322753823E+03 -0.21029856035E+03  0.94078409711E+02  0.30724542951E+03  0.47000000000E+01 0.  1.
</event>
<event>
12    1  0.9749377E-001  0.2950368E+03  0.7818608E-02  0.1087748E+00
         21   -1    0    0  501  502  0.00000000000E+00  0.00000000000E+00  0.99296646731E+03  0.99296646731E+03  0.00000000000E+00 0.  1.
         21   -1    0    0  502  503 -0.00000000000E+00 -0.00000000000E+00 -0.21723569270E+03  0.21723569270E+03  0.00000000000E+00 0. -1.
         -6    2    1    2    0  503  0.28714707534E+02 -0.24913737148E+03  0.84722310181E+03  0.89777995509E+03  0.15914741346E+03 0.  0.
        -24    2    3    3    0    0 -0.22825783578E+02 -0.69147336134E+02  0.32319834262E+03  0.34129377081E+03  0.81987186974E+02 0.  0.
          6    2    1    2  501    0 -0.28714707534E+02  0.24913737148E+03 -0.71492327202E+02  0.31242220493E+03  0.17205382002E+03 0.  0.
         24    2    5    5    0    0 -0.72055570185E+02  0.22989789620E+03 -0.75855206882E+02  0.26457126446E+03  0.78733053379E+02 0.  0.
         14    1    6    6    0    0 -0.56310040924E+02  0.23048452789E+03 -0.67210959988E+02  0.24659937439E+03  0.00000000000E+00 0. -1.
        -13    1    6    6    0    0 -0.15745529261E+02 -0.58663168830E+00 -0.86442468945E+01  0.17971890073E+02  0.00000000000E+00 0.  1.
          5    1    5    5  501    0  0.43340862651E+02  0.19239475282E+02  0.43628796800E+01  0.47850940467E+02  0.47000000000E+01 0. -1.
         11    1    4    4    0    0 -0.90905627405E+01  0.14629434522E+02  0.19806191897E+02  0.26247741290E+02  0.00000000000E+00 0. -1.
        -12    1    4    4    0    0 -0.13735220838E+02 -0.83776770656E+02  0.30339215073E+03  0.31504602952E+03  0.00000000000E+00 0.  1.
         -5    1    3    3    0  503  0.51540491112E+02 -0.17999003535E+03  0.52402475919E+03  0.55648618428E+03  0.47000000000E+01 0.  1.
</event>
<event>
12    1  0.9749377E-001  0.3398627E+03  0.7818608E-02  0.1066854E+00
         21   -1    0    0  501  502  0.00000000000E+00  0.00000000000E+00  0.48398734754E+03  0.48398734754E+03  0.00000000000E+00 0.  1.
         21   -1    0    0  502  503 -0.00000000000E+00 -0.00000000000E+00 -0.31131981282E+03  0.31131981282E+03  0.00000000000E+00 0. -1.
         -6    2    1    2    0  503  0.13000570224E+03  0.29251758076E+03  0.22729587166E+03  0.42925774159E+03  0.17358219314E+03 0.  0.
        -24    2    3    3    0    0  0.79774477546E+02  0.20287894707E+03  0.22940176665E+03  0.32637535545E+03  0.79823979301E+02 0.  0.
          6    2    1    2  501    0 -0.13000570224E+03 -0.29251758076E+03 -0.54628336929E+02  0.36604941877E+03  0.16893757462E+03 0.  0.
         24    2    5    5    0    0  0.85738086910E+00 -0.11802579528E+03 -0.37127235906E+02  0.14718665753E+03  0.79716102863E+02 0.  0.
         12    1    6    6    0    0  0.33877007692E+02 -0.77755947583E+02 -0.28915429863E+01  0.84864598364E+02  0.00000000000E+00 0. -1.
        -11    1    6    6    0    0 -0.33019626823E+02 -0.40269847697E+02 -0.34235692920E+02  0.62322059167E+02  0.00000000000E+00 0.  1.
          5    1    5    5  501    0 -0.13086308311E+03 -0.17449178548E+03 -0.17501101023E+02  0.21886276124E+03  0.47000000000E+01 0. -1.
         11    1    4    4    0    0 -0.41773056117E+01  0.22079620431E+02  0.62409145484E+02  0.66331447749E+02  0.00000000000E+00 0. -1.
        -12    1    4    4    0    0  0.83951783158E+02  0.18079932664E+03  0.16699262117E+03  0.26004390770E+03  0.00000000000E+00 0.  1.
         -5    1    3    3    0  503  0.50231224694E+02  0.89638633690E+02 -0.21058949942E+01  0.10288238614E+03  0.47000000000E+01 0.  1.
</event>
<event>
12    1  0.9749377E-001  0.3415468E+03  0.7818608E-02  0.1066139E+00
         21   -1    0    0  503  502  0.00000000000E+00  0.00000000000E+00  0.26084034091E+03  0.26084034091E+03  0.00000000000E+00 0. -1.
         21   -1    0    0  501  503 -0.00000000000E+00 -0.00000000000E+00 -0.66699110072E+03  0.66699110072E+03  0.00000000000E+00 0.  1.
          6    2    1    2  501    0 -0.24141988705E+02  0.32918334087E+03 -0.41250562861E+03  0.55571741479E+03  0.17238458148E+03 0.  0.
         24    2    3    3    0    0 -0.25784180021E+02  0.30056809294E+03 -0.42224442537E+03  0.52508306529E+03  0.80099115290E+02 0.  0.
         -6    2    1    2    0  502  0.24141988705E+02 -0.32918334087E+03  0.63548688043E+01  0.37211402685E+03  0.17170893132E+03 0.  0.
        -24    2    5    5    0    0  0.70214067415E+02 -0.12881288708E+03  0.52939217063E+01  0.16645856060E+03  0.78470705682E+02 0.  0.
         12    1    4    4    0    0 -0.57984457661E+01  0.84385422890E+02 -0.18543429215E+03  0.20381461742E+03  0.00000000000E+00 0. -1.
        -11    1    4    4    0    0 -0.19985734255E+02  0.21618267005E+03 -0.23681013322E+03  0.32126844788E+03  0.00000000000E+00 0.  1.
          5    1    3    3  501    0  0.16421913158E+01  0.28615247933E+02  0.97387967564E+01  0.30634349493E+02  0.47000000000E+01 0. -1.
         13    1    6    6    0    0  0.54370010012E+02 -0.99490819032E+02  0.38182625665E+02  0.11963458515E+03  0.00000000000E+00 0. -1.
        -14    1    6    6    0    0  0.15844057403E+02 -0.29322068049E+02 -0.32888703958E+02  0.46823975458E+02  0.00000000000E+00 0.  1.
         -5    1    5    5    0  502 -0.46072078709E+02 -0.20037045379E+03  0.10609470981E+01  0.20565546625E+03  0.47000000000E+01 0.  1.
</event>
<event>
12    1  0.9749377E-001  0.4086064E+03  0.7818608E-02  0.1040840E+00
         21   -1    0    0  501  502  0.00000000000E+00  0.00000000000E+00  0.67625728543E+03  0.67625728543E+03  0.00000000000E+00 0.  1.
         21   -1    0    0  502  503 -0.00000000000E+00 -0.00000000000E+00 -0.33044761572E+03  0.33044761572E+03  0.00000000000E+00 0. -1.
         -6    2    1    2    0  503 -0.24065120379E+03 -0.29247030894E+03 -0.66000092306E+02  0.42147807782E+03  0.17273064117E+03 0.  0.
        -24    2    3    3    0    0 -0.11078976877E+03 -0.23678453519E+03 -0.22291637374E+02  0.27350032025E+03  0.77228356891E+02 0.  0.
          6    2    1    2  501    0  0.24065120379E+03  0.29247030894E+03  0.41180976202E+03  0.58522682333E+03  0.17161372659E+03 0.  0.
         24    2    5    5    0    0  0.25175173102E+03  0.30027244700E+03  0.40506082405E+03  0.56936072025E+03  0.80962226229E+02 0.  0.
         12    1    6    6    0    0  0.17122313986E+03  0.14513487682E+03  0.20899010770E+03  0.30668935620E+03  0.00000000000E+00 0. -1.
        -11    1    6    6    0    0  0.80528591166E+02  0.15513757018E+03  0.19607071635E+03  0.26267136404E+03  0.00000000000E+00 0.  1.
          5    1    5    5  501    0 -0.11100527236E+02 -0.78021380667E+01  0.67489379685E+01  0.15866103083E+02  0.47000000000E+01 0. -1.
         11    1    4    4    0    0 -0.67964010433E+02 -0.12106615079E+03 -0.49041328530E+02  0.14724527662E+03  0.00000000000E+00 0. -1.
        -12    1    4    4    0    0 -0.42825758336E+02 -0.11571838440E+03  0.26749691156E+02  0.12625504363E+03  0.00000000000E+00 0.  1.
         -5    1    3    3    0  503 -0.12986143502E+03 -0.55685773746E+02 -0.43708454932E+02  0.14797775757E+03  0.47000000000E+01 0.  1.
</event>
<event>
12    1  0.9749377E-001  0.2180647E+03  0.7818608E-02  0.1135334E+00
         21   -1    0    0  501  502  0.00000000000E+00  0.00000000000E+00  0.10908768091E+03  0.10908768091E+03  0.00000000000E+00 0. -1.
         21   -1    0    0  502  503 -0.00000000000E+00 -0.00000000000E+00 -0.62473609437E+03  0.62473609437E+03  0.00000000000E+00 0.  1.
         -6    2    1    2    0  503 -0.12671415751E+03  0.96491654040E+02 -0.10042781995E+03  0.25484469728E+03  0.17173513240E+03 0.  0.
        -24    2    3    3    0    0 -0.11986211117E+03  0.22585050432E+02 -0.22124363696E+02  0.14685091108E+03  0.78731775155E+02 0.  0.
          6    2    1    2  501    0  0.12671415751E+03 -0.96491654040E+02 -0.41522059350E+03  0.47897907800E+03  0.17789238004E+03 0.  0.
         24    2    5    5    0    0  0.63615828777E+02  0.12636941611E+02 -0.12313260247E+03  0.16081570175E+03  0.80581549840E+02 0.  0.
         14    1    6    6    0    0 -0.11305546260E+02  0.10686179756E+02 -0.62519896824E+02  0.64426293645E+02  0.00000000000E+00 0. -1.
        -13    1    6    6    0    0  0.74921375038E+02  0.19507618549E+01 -0.60612705645E+02  0.96389408106E+02  0.00000000000E+00 0.  1.
          5    1    5    5  501    0  0.63098328732E+02 -0.10912859565E+03 -0.29208799103E+03  0.31816337624E+03  0.47000000000E+01 0. -1.
         11    1    4    4    0    0 -0.10758448418E+02  0.33761572642E+02 -0.73076361715E+01  0.36179960559E+02  0.00000000000E+00 0. -1.
        -12    1    4    4    0    0 -0.10910366276E+03 -0.11176522211E+02 -0.14816727525E+02  0.11067095052E+03  0.00000000000E+00 0.  1.
         -5    1    3    3    0  503 -0.68520463352E+01  0.73906603608E+02 -0.78303456257E+02  0.10799378620E+03  0.47000000000E+01 0.  1.
</event>
<event>
12    1  0.9749377E-001  0.3150841E+03  0.7818608E-02  0.1077934E+00
         21   -1    0    0  503  502  0.00000000000E+00  0.00000000000E+00  0.64625257394E+02  0.64625257394E+02  0.00000000000E+00 0. -1.
         21   -1    0    0  501  503 -0.00000000000E+00 -0.00000000000E+00 -0.16348032128E+04  0.16348032128E+04  0.00000000000E+00 0.  1.
          6    2    1    2  501    0  0.20589977632E+03  0.18296779223E+03 -0.74913652680E+03  0.81649595102E+03  0.17201212563E+03 0.  0.
         24    2    3    3    0    0  0.17070287958E+03  0.20815547358E+03 -0.63292434396E+03  0.69239678796E+03  0.79698886554E+02 0.  0.
         -6    2    1    2    0  502 -0.20589977632E+03 -0.18296779223E+03 -0.82104142863E+03  0.88293251920E+03  0.17201417107E+03 0.  0.
        -24    2    5    5    0    0 -0.27989629434E+02 -0.90552007022E+02 -0.29089759354E+03  0.31612807884E+03  0.79576799223E+02 0.  0.
         14    1    4    4    0    0  0.15898396519E+03  0.19326482726E+03 -0.62215856160E+03  0.67060306472E+03  0.00000000000E+00 0. -1.
        -13    1    4    4    0    0  0.11718914390E+02  0.14890646329E+02 -0.10765782353E+02  0.21793723230E+02  0.00000000000E+00 0.  1.
          5    1    3    3  501    0  0.35196896740E+02 -0.25187681356E+02 -0.11621218284E+03  0.12409916306E+03  0.47000000000E+01 0. -1.
         13    1    6    6    0    0 -0.48842220112E+02 -0.43409477901E+02 -0.21234538939E+03  0.22217225217E+03  0.00000000000E+00 0. -1.
        -14    1    6    6    0    0  0.20852590678E+02 -0.47142529120E+02 -0.78552204144E+02  0.93955826673E+02  0.00000000000E+00 0.  1.
         -5    1    5    5    0  502 -0.17791014689E+03 -0.92415785207E+02 -0.53014383510E+03  0.56680444036E+03  0.47000000000E+01 0.  1.
</event>
<event>
12    1  0.9749377E-001  0.2153365E+03  0.7818608E-02  0.1137408E+00
         21   -1    0    0  501  502  0.00000000000E+00  0.00000000000E+00  0.59796719138E+03  0.59796719138E+03  0.00000000000E+00 0. -1.
         21   -1    0    0  502  503 -0.00000000000E+00 -0.00000000000E+00 -0.89861225709E+02  0.89861225709E+02  0.00000000000E+00 0.  1.
         -6    2    1    2    0  503 -0.10494479026E+03 -0.11334506653E+03  0.28773047675E+03  0.36858942737E+03  0.17090589694E+03 0.  0.
        -24    2    3    3    0    0  0.12560282368E+01 -0.93218876574E+02  0.14542546590E+03  0.18982566291E+03  0.78701204628E+02 0.  0.
          6    2    1    2  501    0  0.10494479026E+03  0.11334506653E+03  0.22037548893E+03  0.31923898972E+03  0.17171972319E+03 0.  0.
         24    2    5    5    0    0  0.12043710097E+03  0.12988907181E+03  0.22829542609E+03  0.29477409228E+03  0.58281194546E+02 0.  0.
         12    1    6    6    0    0  0.11810705574E+03  0.13463592076E+03  0.21138118921E+03  0.27705254903E+03  0.00000000000E+00 0. -1.
        -11    1    6    6    0    0  0.23300452349E+01 -0.47468489471E+01  0.16914236885E+02  0.17721543249E+02  0.00000000000E+00 0.  1.
          5    1    5    5  501    0 -0.15492310714E+02 -0.16544005287E+02 -0.79199371672E+01  0.24464897443E+02  0.47000000000E+01 0. -1.
         13    1    4    4    0    0  0.33791761817E+02 -0.37969015301E+02  0.96876460921E+02  0.10940099620E+03  0.00000000000E+00 0. -1.
        -14    1    4    4    0    0 -0.32535733580E+02 -0.55249861272E+02  0.48549004975E+02  0.80424666702E+02  0.00000000000E+00 0.  1.
         -5    1    3    3    0  503 -0.10620081850E+03 -0.20126189952E+02  0.14230501085E+03  0.17876376446E+03  0.47000000000E+01 0.  1.
</event>
<event>
12    1  0.9749377E-001  0.3743709E+03  0.7818608E-02  0.1053034E+00
         21   -1    0    0  501  502  0.00000000000E+00  0.00000000000E+00  0.41268148788E+03  0.41268148788E+03  0.00000000000E+00 0. -1.
         21   -1    0    0  502  503 -0.00000000000E+00 -0.00000000000E+00 -0.58087801964E+03  0.58087801964E+03  0.00000000000E+00 0.  1.
         -6    2    1    2    0  503 -0.12835917125E+03  0.33833708956E+03 -0.36976070689E+03  0.54508299646E+03  0.17159379260E+03 0.  0.
        -24    2    3    3    0    0 -0.24054675999E+02  0.19351503587E+03 -0.13390100272E+03  0.24927098688E+03  0.78612020862E+02 0.  0.
          6    2    1    2  501    0  0.12835917125E+03 -0.33833708956E+03  0.20156417513E+03  0.44847651106E+03  0.17191568068E+03 0.  0.
         24    2    5    5    0    0  0.47353937007E+02 -0.18751760698E+03  0.42484076843E+02  0.21473106839E+03  0.83061944761E+02 0.  0.
         14    1    6    6    0    0  0.15422293296E+02 -0.10486248383E+03  0.63644280442E+02  0.12363082981E+03  0.00000000000E+00 0. -1.
        -13    1    6    6    0    0  0.31931643711E+02 -0.82655123155E+02 -0.21160203599E+02  0.91100238584E+02  0.00000000000E+00 0.  1.
          5    1    5    5  501    0  0.81005234239E+02 -0.15081948257E+03  0.15908009829E+03  0.23374544267E+03  0.47000000000E+01 0. -1.
         11    1    4    4    0    0  0.20212610143E+02  0.79751146402E+02 -0.83440463867E+02  0.11717980189E+03  0.00000000000E+00 0. -1.
        -12    1    4    4    0    0 -0.44267286142E+02  0.11376388947E+03 -0.50460538853E+02  0.13209118498E+03  0.00000000000E+00 0.  1.
         -5    1    3    3    0  503 -0.10430449525E+03  0.14482205369E+03 -0.23585970417E+03  0.29581200958E+03  0.47000000000E+01 0.  1.
</event>
<event>
12    1  0.9749377E-001  0.2555026E+03  0.7818608E-02  0.1109876E+00
         21   -1    0    0  501  502  0.00000000000E+00  0.00000000000E+00  0.19290048676E+03  0.19290048676E+03  0.00000000000E+00 0. -1.
         21   -1    0    0  502  503 -0.00000000000E+00 -0.00000000000E+00 -0.43854568452E+03  0.43854568452E+03  0.00000000000E+00 0.  1.
         -6    2    1    2    0  503 -0.22765444590E+03  0.53052809377E+02 -0.14218146226E+03  0.32305168172E+03  0.17177215587E+03 0.  0.
        -24    2    3    3    0    0 -0.73931303150E+02  0.25348501903E+02  0.20320453513E+02  0.97602583477E+02  0.54817509395E+02 0.  0.
          6    2    1    2  501    0  0.22765444590E+03 -0.53052809377E+02 -0.10346373550E+03  0.30839448955E+03  0.17251454808E+03 0.  0.
         24    2    5    5    0    0  0.12388319957E+03 -0.48992440405E+02  0.82182330571E+01  0.15581693464E+03  0.80399449090E+02 0.  0.
         14    1    6    6    0    0  0.22628073731E+02 -0.49299133079E+02  0.55340474252E+01  0.54525773026E+02  0.00000000000E+00 0. -1.
        -13    1    6    6    0    0  0.10125512584E+03  0.30669267429E+00  0.26841856319E+01  0.10129116162E+03  0.00000000000E+00 0.  1.
          5    1    5    5  501    0  0.10377124633E+03 -0.40603689722E+01 -0.11168196856E+03  0.15257755491E+03  0.47000000000E+01 0. -1.
         13    1    4    4    0    0 -0.72358121043E+01 -0.15473307257E+02  0.60053673935E+01  0.18106480934E+02  0.00000000000E+00 0. -1.
        -14    1    4    4    0    0 -0.66695491046E+02  0.40821809160E+02  0.14315086119E+02  0.79496102543E+02  0.00000000000E+00 0.  1.
         -5    1    3    3    0  503 -0.15372314275E+03  0.27704307474E+02 -0.16250191577E+03  0.22544909825E+03  0.47000000000E+01 0.  1.
</event>
<event>
12    1  0.9749377E-001  0.1942560E+03  0.7818608E-02  0.1154678E+00
         21   -1    0    0  503  502  0.00000000000E+00  0.00000000000E+00  0.31375681856E+03  0.31375681856E+03  0.00000000000E+00 0. -1.
         21   -1    0    0  501  503 -0.00000000000E+00 -0.00000000000E+00 -0.42354484527E+03  0.42354484527E+03  0.00000000000E+00 0. -1.
          6    2    1    2  501    0 -0.11396528804E+03 -0.93340986425E+02  0.23389354350E+03  0.32576465343E+03  0.17238269376E+03 0.  0.
         24    2    3    3    0    0 -0.10021786928E+03 -0.12977777796E+03  0.17107574179E+03  0.25170523464E+03  0.84868856134E+02 0.  0.
         -6    2    1    2    0  502  0.11396528804E+03  0.93340986425E+02 -0.34368157022E+03  0.41153701040E+03  0.17188677260E+03 0.  0.
        -24    2    5    5    0    0  0.40929732654E+02  0.51603285842E+02 -0.29821210994E+03  0.31579887892E+03  0.80376161209E+02 0.  0.
         12    1    4    4    0    0  0.84814079522E+01 -0.45901647559E+02  0.34479757130E+02  0.58032311527E+02  0.00000000000E+00 0. -1.
        -11    1    4    4    0    0 -0.10869927723E+03 -0.83876130399E+02  0.13659598466E+03  0.19367292312E+03  0.00000000000E+00 0.  1.
          5    1    3    3  501    0 -0.13747418756E+02  0.36436791533E+02  0.62817801710E+02  0.74059418789E+02  0.47000000000E+01 0. -1.
         13    1    6    6    0    0  0.49786721694E+02  0.31046609366E+02 -0.28230719064E+03  0.28834000676E+03  0.00000000000E+00 0. -1.
        -14    1    6    6    0    0 -0.88569890398E+01  0.20556676477E+02 -0.15904919293E+02  0.27458872161E+02  0.00000000000E+00 0.  1.
         -5    1    5    5    0  502  0.73035555384E+02  0.41737700583E+02 -0.45469460285E+02  0.95738131477E+02  0.47000000000E+01 0.  1.
</event>
<event>
12    1  0.9749377E-001  0.7055931E+03  0.7818608E-02  0.9707715E-01
         21   -1    0    0  501  502  0.00000000000E+00  0.00000000000E+00  0.81955156163E+03  0.81955156163E+03  0.00000000000E+00 0.  1.
         21   -1    0    0  502  503 -0.00000000000E+00 -0.00000000000E+00 -0.67071958114E+03  0.67071958114E+03  0.00000000000E+00 0. -1.
         -6    2    1    2    0  503 -0.55854604016E+03  0.42472348978E+03  0.24319937399E+03  0.76153422943E+03  0.16859633847E+03 0.  0.
        -24    2    3    3    0    0 -0.30202494135E+03  0.27406433250E+03  0.83386765104E+02  0.42380147153E+03  0.79523651367E+02 0.  0.
          6    2    1    2  501    0  0.55854604016E+03 -0.42472348978E+03 -0.94367393497E+02  0.72873691333E+03  0.17259363298E+03 0.  0.
         24    2    5    5    0    0  0.13395863085E+03 -0.11605295147E+03  0.58531730437E+01  0.19430429707E+03  0.79414720934E+02 0.  0.
         14    1    6    6    0    0  0.22999077003E+02 -0.38732150777E+02 -0.30330083262E+02  0.54305165477E+02  0.00000000000E+00 0. -1.
        -13    1    6    6    0    0  0.11095955385E+03 -0.77320800689E+02  0.36183256306E+02  0.13999913159E+03  0.00000000000E+00 0.  1.
          5    1    5    5  501    0  0.42458740931E+03 -0.30867053831E+03 -0.10022056654E+03  0.53443261626E+03  0.47000000000E+01 0. -1.
         11    1    4    4    0    0 -0.20313632938E+03  0.17029235734E+03  0.90991038983E+02  0.28025564126E+03  0.00000000000E+00 0. -1.
        -12    1    4    4    0    0 -0.98888611975E+02  0.10377197515E+03 -0.76042738789E+01  0.14354583026E+03  0.00000000000E+00 0.  1.
         -5    1    3    3    0  503 -0.25652109881E+03  0.15065915728E+03  0.15981260888E+03  0.33773275791E+03  0.47000000000E+01 0.  1.
</event>
<event>
12    1  0.9749377E-001  0.1984821E+03  0.7818608E-02  0.1151026E+00
         21   -1    0    0  503  502  0.00000000000E+00  0.00000000000E+00  0.15965724394E+03  0.15965724394E+03  0.00000000000E+00 0.  1.
         21   -1    0    0  501  503 -0.00000000000E+00 -0.00000000000E+00 -0.31289254419E+03  0.31289254419E+03  0.00000000000E+00 0. -1.
          6    2    1    2  501    0 -0.12618945873E+03 -0.64494017543E+02 -0.57327507057E+02  0.23016958311E+03  0.17207073003E+03 0.  0.
         24    2    3    3    0    0 -0.10061293811E+02  0.14243309685E+02 -0.13299577771E+02  0.83044242186E+02  0.80095979221E+02 0.  0.
         -6    2    1    2    0  502  0.12618945873E+03  0.64494017543E+02 -0.95907793194E+02  0.24238020502E+03  0.17165838517E+03 0.  0.
        -24    2    5    5    0    0  0.71297141329E+02 -0.37350916422E+02 -0.14825484859E+02  0.10102254584E+03  0.59223191809E+02 0.  0.
         12    1    4    4    0    0 -0.24436516413E+02  0.81529457049E+01 -0.42634949365E+02  0.49813178633E+02  0.00000000000E+00 0. -1.
        -11    1    4    4    0    0  0.14375222603E+02  0.60903639800E+01  0.29335371594E+02  0.33231063553E+02  0.00000000000E+00 0.  1.
          5    1    3    3  501    0 -0.11612816492E+03 -0.78737327228E+02 -0.44027929286E+02  0.14712534093E+03  0.47000000000E+01 0. -1.
         13    1    6    6    0    0  0.18690695084E+02 -0.42628798089E+02 -0.18498577578E+01  0.46583027843E+02  0.00000000000E+00 0. -1.
        -14    1    6    6    0    0  0.52606446245E+02  0.52778816677E+01 -0.12975627102E+02  0.54439518000E+02  0.00000000000E+00 0.  1.
         -5    1    5    5    0  502  0.54892317400E+02  0.10184493396E+03 -0.81082308334E+02  0.14135765918E+03  0.47000000000E+01 0.  1.
</event>
<event>
12    1  0.9749377E-001  0.5842268E+03  0.7818608E-02  0.9938682E-01
         21   -1    0    0  501  502  0.00000000000E+00  0.00000000000E+00  0.55676745433E+03  0.55676745433E+03  0.00000000000E+00 0. -1.
         21   -1    0    0  502  503 -0.00000000000E+00 -0.00000000000E+00 -0.83066308226E+03  0.83066308226E+03  0.00000000000E+00 0.  1.
         -6    2    1    2    0  503 -0.47235437667E+03 -0.31329996657E+03 -0.47799929085E+03  0.76084102948E+03  0.17064648803E+03 0.  0.
        -24    2    3    3    0    0 -0.20187078775E+03 -0.18728744651E+03 -0.17731046802E+03  0.33719449607E+03  0.80204261423E+02 0.  0.
          6    2    1    2  501    0  0.47235437667E+03  0.31329996657E+03  0.20410366292E+03  0.62658950711E+03  0.17228052412E+03 0.  0.
         24    2    5    5    0    0  0.27576776689E+03  0.10493273235E+03  0.10852437915E+03  0.32456187770E+03  0.80648199059E+02 0.  0.
         12    1    6    6    0    0  0.19357638411E+03  0.56182698203E+02  0.36370417871E+02  0.20481972405E+03  0.00000000000E+00 0. -1.
        -11    1    6    6    0    0  0.82191382773E+02  0.48750034145E+02  0.72153961280E+02  0.11974215365E+03  0.00000000000E+00 0.  1.
          5    1    5    5  501    0  0.19658660978E+03  0.20836723422E+03  0.95579283773E+02  0.30202762941E+03  0.47000000000E+01 0. -1.
         13    1    4    4    0    0 -0.20292529217E+03 -0.15825994790E+03 -0.16466179344E+03  0.30551332464E+03  0.00000000000E+00 0. -1.
        -14    1    4    4    0    0  0.10545044264E+01 -0.29027498609E+02 -0.12648674574E+02  0.31681171436E+02  0.00000000000E+00 0.  1.
         -5    1    3    3    0  503 -0.27048358892E+03 -0.12601252006E+03 -0.30068882284E+03  0.42364653341E+03  0.47000000000E+01 0.  1.
</event>
<event>
12    1  0.9749377E-001  0.2076576E+03  0.7818608E-02  0.1143434E+00
         21   -1    0    0  501  502  0.00000000000E+00  0.00000000000E+00  0.40854555270E+03  0.40854555270E+03  0.00000000000E+00 0. -1.
         21   -1    0    0  502  503 -0.00000000000E+00 -0.00000000000E+00 -0.39028009420E+03  0.39028009420E+03  0.00000000000E+00 0.  1.
         -6    2    1    2    0  503  0.13995831620E+03 -0.13523532000E+03 -0.29385433541E+03  0.39231735091E+03  0.17229512858E+03 0.  0.
        -24    2    3    3    0    0  0.11862285469E+03 -0.13681978718E+03 -0.15362482710E+03  0.25038737713E+03  0.79386493235E+02 0.  0.
          6    2    1    2  501    0 -0.13995831620E+03  0.13523532000E+03  0.31211979390E+03  0.40650829599E+03  0.17307023694E+03 0.  0.
         24    2    5    5    0    0 -0.10579730074E+03  0.11058229689E+03  0.31975919730E+03  0.36343629801E+03  0.80115449354E+02 0.  0.
         12    1    6    6    0    0 -0.21957250546E+02  0.44190518808E+02  0.18461908783E+03  0.19109979172E+03  0.00000000000E+00 0. -1.
        -11    1    6    6    0    0 -0.83840050196E+02  0.66391778080E+02  0.13514010947E+03  0.17233650629E+03  0.00000000000E+00 0.  1.
          5    1    5    5  501    0 -0.34161015457E+02  0.24653023117E+02 -0.76394033983E+01  0.43071997982E+02  0.47000000000E+01 0. -1.
         11    1    4    4    0    0 -0.93010521321E+01 -0.34241524022E+01  0.22127101557E+00  0.99137960086E+01  0.00000000000E+00 0. -1.
        -12    1    4    4    0    0  0.12792390682E+03 -0.13339563478E+03 -0.15384609811E+03  0.24047358112E+03  0.00000000000E+00 0.  1.
         -5    1    3    3    0  503  0.21335461512E+02  0.15844671737E+01 -0.14022950831E+03  0.14192997378E+03  0.47000000000E+01 0.  1.
</event>
<event>
12    1  0.9749377E-001  0.2586040E+03  0.7818608E-02  0.1107985E+00
         21   -1    0    0  503  502  0.00000000000E+00  0.00000000000E+00  0.17096645308E+04  0.17096645308E+04  0.00000000000E+00 0. -1.
         21   -1    0    0  501  503 -0.00000000000E+00 -0.00000000000E+00 -0.68413404430E+02  0.68413404430E+02  0.00000000000E+00 0.  1.
          6    2    1    2  501    0 -0.51797429990E+02 -0.20326995778E+03  0.13616740495E+04  0.13884628134E+04  0.17225306256E+03 0.  0.
         24    2    3    3    0    0 -0.79735924758E+02 -0.12429330323E+03  0.66801692810E+03  0.68974959358E+03  0.87756724458E+02 0.  0.
         -6    2    1    2    0  502  0.51797429990E+02  0.20326995778E+03  0.27957707679E+03  0.38961512177E+03  0.17214805185E+03 0.  0.
        -24    2    5    5    0    0  0.49339707363E+02  0.22637517429E+03  0.23835706117E+03  0.34206440024E+03  0.80708357967E+02 0.  0.
         12    1    4    4    0    0 -0.37129416997E+02 -0.11473188192E+03  0.56728288133E+03  0.57995850351E+03  0.00000000000E+00 0. -1.
        -11    1    4    4    0    0 -0.42606507761E+02 -0.95614213102E+01  0.10073404676E+03  0.10979109007E+03  0.00000000000E+00 0.  1.
          5    1    3    3  501    0  0.27938494769E+02 -0.78976654551E+02  0.69365712144E+03  0.69871321984E+03  0.47000000000E+01 0. -1.
         11    1    6    6    0    0  0.61942713241E+01 -0.62198085566E+01  0.88802288065E+01  0.12486531919E+02  0.00000000000E+00 0. -1.
        -12    1    6    6    0    0  0.43145436039E+02  0.23259498285E+03  0.22947683236E+03  0.32957786832E+03  0.00000000000E+00 0.  1.
         -5    1    5    5    0  502  0.24577226270E+01 -0.23105216507E+02  0.41220015622E+02  0.47550721533E+02  0.47000000000E+01 0.  1.
</event>
<event>
12    1  0.9749377E-001  0.3970039E+03  0.7818608E-02  0.1044822E+00
         21   -1    0    0  503  502  0.00000000000E+00  0.00000000000E+00  0.24309496901E+03  0.24309496901E+03  0.00000000000E+00 0. -1.
         21   -1    0    0  501  503 -0.00000000000E+00 -0.00000000000E+00 -0.98034171511E+03  0.98034171511E+03  0.00000000000E+00 0.  1.
          6    2    1    2  501    0 -0.33136034680E+03 -0.19580691095E+03 -0.58631479077E+02  0.42451851376E+03  0.16922852118E+03 0.  0.
         24    2    3    3    0    0 -0.32377287137E+03 -0.18506773286E+03 -0.18371639452E+02  0.38190578777E+03  0.80222039476E+02 0.  0.
         -6    2    1    2    0  502  0.33136034680E+03  0.19580691095E+03 -0.67861526702E+03  0.79891817036E+03  0.17208002934E+03 0.  0.
        -24    2    5    5    0    0  0.15746839509E+03  0.13853216901E+03 -0.27652696277E+03  0.35708573454E+03  0.83997639077E+02 0.  0.
         14    1    4    4    0    0 -0.24550463977E+03 -0.16233887969E+03 -0.41380883921E+02  0.29721846773E+03  0.00000000000E+00 0. -1.
        -13    1    4    4    0    0 -0.78268231603E+02 -0.22728853163E+02  0.23009244469E+02  0.84687320039E+02  0.00000000000E+00 0.  1.
          5    1    3    3  501    0 -0.75874754300E+01 -0.10739178097E+02 -0.40259839626E+02  0.42612725990E+02  0.47000000000E+01 0. -1.
         11    1    6    6    0    0  0.13589582602E+02  0.50740395091E+02 -0.10036005953E+03  0.11327579617E+03  0.00000000000E+00 0. -1.
        -12    1    6    6    0    0  0.14387881249E+03  0.87791773915E+02 -0.17616690325E+03  0.24380993838E+03  0.00000000000E+00 0.  1.
         -5    1    5    5    0  502  0.17389195171E+03  0.57274741948E+02 -0.40208830424E+03  0.44183243582E+03  0.47000000000E+01 0.  1.
</event>
<event>
12    1  0.9749377E-001  0.2142996E+03  0.7818608E-02  0.1138206E+00
         21   -1    0    0  501  502  0.00000000000E+00  0.00000000000E+00  0.53911290033E+03  0.53911290033E+03  0.00000000000E+00 0.  1.
         21   -1    0    0  502  503 -0.00000000000E+00 -0.00000000000E+00 -0.11767221824E+03  0.11767221824E+03  0.00000000000E+00 0. -1.
         -6    2    1    2    0  503 -0.85732632510E+02 -0.16076628129E+03  0.24393466670E+03  0.34890381335E+03  0.17039327415E+03 0.  0.
        -24    2    3    3    0    0 -0.40698827774E+02 -0.10665225440E+03  0.62294224931E+02  0.15404049828E+03  0.82563955204E+02 0.  0.
          6    2    1    2  501    0  0.85732632510E+02  0.16076628129E+03  0.17750601538E+03  0.30788130522E+03  0.17345498300E+03 0.  0.
         24    2    5    5    0    0  0.11040431259E+03  0.12054333110E+03  0.18519906726E+03  0.25984121188E+03  0.80616090005E+02 0.  0.
         14    1    6    6    0    0  0.44625322700E+02  0.58759775606E+01  0.76216510589E+02  0.88514987571E+02  0.00000000000E+00 0. -1.
        -13    1    6    6    0    0  0.65778989890E+02  0.11466735354E+03  0.10898255667E+03  0.17132622431E+03  0.00000000000E+00 0.  1.
          5    1    5    5  501    0 -0.24671680079E+02  0.40222950192E+02 -0.76930518796E+01  0.48040093332E+02  0.47000000000E+01 0. -1.
         11    1    4    4    0    0 -0.56782747548E+02 -0.10188548149E+03  0.69507431187E+02  0.13578002337E+03  0.00000000000E+00 0. -1.
        -12    1    4    4    0    0  0.16083919774E+02 -0.47667729162E+01 -0.72132062553E+01  0.18260474907E+02  0.00000000000E+00 0.  1.
         -5    1    3    3    0  503 -0.45033804737E+02 -0.54114026889E+02  0.18164044177E+03  0.19486331507E+03  0.47000000000E+01 0.  1.
</event>
<event>
12    1  0.9749377E-001  0.1008382E+04  0.7818608E-02  0.9299399E-01
         21   -1    0    0  503  502  0.00000000000E+00  0.00000000000E+00  0.17306541128E+04  0.17306541128E+04  0.00000000000E+00 0.  1.
         21   -1    0    0  501  503 -0.00000000000E+00 -0.00000000000E+00 -0.65066982668E+03  0.65066982668E+03  0.00000000000E+00 0. -1.
          6    2    1    2  501    0 -0.93490765008E+03 -0.34455144873E+03  0.90229024471E+03  0.13553799353E+04  0.17366366434E+03 0.  0.
         24    2    3    3    0    0 -0.72425024190E+03 -0.32823081767E+03  0.68942401375E+03  0.10554182229E+04  0.79550436494E+02 0.  0.
         -6    2    1    2    0  502  0.93490765008E+03  0.34455144873E+03  0.17769404145E+03  0.10259440042E+04  0.16798188117E+03 0.  0.
        -24    2    5    5    0    0  0.84242292208E+03  0.26742073963E+03  0.13485178533E+03  0.89803731905E+03  0.84236516821E+02 0.  0.
         12    1    4    4    0    0 -0.46892612860E+03 -0.17172947419E+03  0.41758201961E+03  0.65096656556E+03  0.00000000000E+00 0. -1.
        -11    1    4    4    0    0 -0.25532411331E+03 -0.15650134348E+03  0.27184199414E+03  0.40445165734E+03  0.00000000000E+00 0.  1.
          5    1    3    3  501    0 -0.21065740818E+03 -0.16320631063E+02  0.21286623096E+03  0.29996171239E+03  0.47000000000E+01 0. -1.
         11    1    6    6    0    0  0.80907164797E+03  0.26912294072E+03  0.11849311941E+03  0.86085115329E+03  0.00000000000E+00 0. -1.
        -12    1    6    6    0    0  0.33351274114E+02 -0.17022010849E+01  0.16358665922E+02  0.37186165765E+02  0.00000000000E+00 0.  1.
         -5    1    5    5    0  502  0.92484728002E+02  0.77130709095E+02  0.42842256114E+02  0.12790668516E+03  0.47000000000E+01 0.  1.
</event>
<event>
12    1  0.9749377E-001  0.3943012E+03  0.7818608E-02  0.1045771E+00
         21   -1    0    0  503  502  0.00000000000E+00  0.00000000000E+00  0.45875260754E+03  0.45875260754E+03  0.00000000000E+00 0. -1.
         21   -1    0    0  501  503 -0.00000000000E+00 -0.00000000000E+00 -0.35980013366E+03  0.35980013366E+03  0.00000000000E+00 0.  1.
          6    2    1    2  501    0 -0.68941939824E+02  0.35238177395E+03  0.13131910831E+03  0.41917609791E+03  0.17186618973E+03 0.  0.
         24    2    3    3    0    0  0.24754285142E+02  0.11767310578E+03  0.35640882420E+02  0.14891038718E+03  0.80276375440E+02 0.  0.
         -6    2    1    2    0  502  0.68941939824E+02 -0.35238177395E+03 -0.32366634432E+02  0.39937664329E+03  0.17183770978E+03 0.  0.
        -24    2    5    5    0    0 -0.75444631440E+01 -0.10415271437E+03  0.21383779534E+02  0.13408617444E+03  0.81345739376E+02 0.  0.
         14    1    4    4    0    0 -0.57840530294E+01 -0.10853159536E+02  0.51487086588E+01  0.13332499474E+02  0.00000000000E+00 0. -1.
        -13    1    4    4    0    0  0.30538338172E+02  0.12852626532E+03  0.30492173761E+02  0.13557788771E+03  0.00000000000E+00 0.  1.
          5    1    3    3  501    0 -0.93696224966E+02  0.23470866817E+03  0.95678225889E+02  0.27026571073E+03  0.47000000000E+01 0. -1.
         11    1    6    6    0    0  0.35361744366E+02 -0.62725084132E+02  0.18645906383E+02  0.74381173484E+02  0.00000000000E+00 0. -1.
        -12    1    6    6    0    0 -0.42906207510E+02 -0.41427630237E+02  0.27378731508E+01  0.59705000957E+02  0.00000000000E+00 0.  1.
         -5    1    5    5    0  502  0.76486402968E+02 -0.24822905958E+03 -0.53750413967E+02  0.26529046885E+03  0.47000000000E+01 0.  1.
</event>
<event>
12    1  0.9749377E-001  0.1491213E+03  0.7818608E-02  0.1201557E+00
         21   -1    0    0  501  502  0.00000000000E+00  0.00000000000E+00  0.70499812607E+03  0.70499812607E+03  0.00000000000E+00 0. -1.
         21   -1    0    0  502  503 -0.00000000000E+00 -0.00000000000E+00 -0.67246456858E+02  0.67246456858E+02  0.00000000000E+00 0. -1.
         -6    2    1    2    0  503  0.35295981835E+02  0.93502293078E+02  0.47291369287E+03  0.51330697249E+03  0.17276632183E+03 0.  0.
        -24    2    3    3    0    0  0.66517961336E+02  0.78151089003E+02  0.20423429863E+03  0.24234354625E+03  0.80538896066E+02 0.  0.
          6    2    1    2  501    0 -0.35295981835E+02 -0.93502293078E+02  0.16483797635E+03  0.25893761045E+03  0.17288332052E+03 0.  0.
         24    2    5    5    0    0 -0.42729906052E+02 -0.42876648929E+02  0.18054957774E+03  0.20520527853E+03  0.76464399705E+02 0.  0.
         14    1    6    6    0    0 -0.48556991906E+00  0.18864710810E+02  0.63896636660E+02  0.66625019839E+02  0.00000000000E+00 0. -1.
        -13    1    6    6    0    0 -0.42244336133E+02 -0.61741359739E+02  0.11665294108E+03  0.13858025869E+03  0.00000000000E+00 0.  1.
          5    1    5    5  501    0  0.74339242171E+01 -0.50625644149E+02 -0.15711601387E+02  0.53732331914E+02  0.47000000000E+01 0. -1.
         11    1    4    4    0    0  0.31922201721E+02 -0.73510593062E+00  0.16838876738E+02  0.36098685755E+02  0.00000000000E+00 0. -1.
        -12    1    4    4    0    0  0.34595759616E+02  0.78886194934E+02  0.18739542190E+03  0.20624486050E+03  0.00000000000E+00 0.  1.
         -5    1    3    3    0  503 -0.31221979502E+02  0.15351204075E+02  0.26867939423E+03  0.27096342623E+03  0.47000000000E+01 0.  1.
</event>
<event>
12    1  0.9749377E-001  0.6767986E+03  0.7818608E-02  0.9757754E-01
         21   -1    0    0  503  502  0.00000000000E+00  0.00000000000E+00  0.85637453355E+03  0.85637453355E+03  0.00000000000E+00 0. -1.
         21   -1    0    0  501  503 -0.00000000000E+00 -0.00000000000E+00 -0.54792936211E+03  0.54792936211E+03  0.00000000000E+00 0.  1.
          6    2    1    2  501    0  0.42658234051E+03 -0.50095281877E+03  0.69715671960E+02  0.68357502074E+03  0.17172161830E+03 0.  0.
         24    2    3    3    0    0  0.40863906359E+03 -0.41483025513E+03  0.34466519392E+02  0.58868745616E+03  0.79340753809E+02 0.  0.
         -6    2    1    2    0  502 -0.42658234051E+03  0.50095281877E+03  0.23872949948E+03  0.72072887492E+03  0.17184911217E+03 0.  0.
        -24    2    5    5    0    0 -0.42472702432E+03  0.43776868533E+03  0.20148004268E+03  0.64720820470E+03  0.79055585444E+02 0.  0.
         12    1    4    4    0    0  0.94743832258E+02 -0.53001376451E+02  0.20195116151E+01  0.10858000775E+03  0.00000000000E+00 0. -1.
        -11    1    4    4    0    0  0.31389523133E+03 -0.36182887868E+03  0.32447007777E+02  0.48010744840E+03  0.00000000000E+00 0.  1.
          5    1    3    3  501    0  0.17943276914E+02 -0.86122563647E+02  0.35249152568E+02  0.94887564582E+02  0.47000000000E+01 0. -1.
         11    1    6    6    0    0 -0.31270076581E+03  0.36648472520E+03  0.14705471057E+03  0.50370418962E+03  0.00000000000E+00 0. -1.
        -12    1    6    6    0    0 -0.11202625851E+03  0.71283960127E+02  0.54425332115E+02  0.14350401508E+03  0.00000000000E+00 0.  1.
         -5    1    5    5    0  502 -0.18553161817E+01  0.63184133448E+02  0.37249456801E+02  0.73520670221E+02  0.47000000000E+01 0.  1.
</event>
<event>
12    1  0.9749377E-001  0.1184144E+04  0.7818608E-02  0.9126850E-01
         21   -1    0    0  503  502  0.00000000000E+00  0.00000000000E+00  0.17666534595E+04  0.17666534595E+04  0.00000000000E+00 0. -1.
         21   -1    0    0  501  503 -0.00000000000E+00 -0.00000000000E+00 -0.84622532425E+03  0.84622532425E+03  0.00000000000E+00 0.  1.
          6    2    1    2  501    0  0.10652320962E+02 -0.11812411033E+04  0.17740209008E+03  0.12068623768E+04  0.17205022240E+03 0.  0.
         24    2    3    3    0    0  0.52982234817E+01 -0.10311570975E+04  0.10345242248E+03  0.10393974000E+04  0.79570851182E+02 0.  0.
         -6    2    1    2    0  502 -0.10652320962E+02  0.11812411033E+04  0.74302604513E+03  0.14060164069E+04  0.17131963329E+03 0.  0.
        -24    2    5    5    0    0 -0.58593931954E+02  0.71205007640E+03  0.49764253896E+03  0.87434566964E+03  0.79898017997E+02 0.  0.
         14    1    4    4    0    0 -0.76336206646E+01 -0.12972049221E+03 -0.12035190616E+02  0.13050105010E+03  0.00000000000E+00 0. -1.
        -13    1    4    4    0    0  0.12931844146E+02 -0.90143660534E+03  0.11548761310E+03  0.90889634988E+03  0.00000000000E+00 0.  1.
          5    1    3    3  501    0  0.53540974807E+01 -0.15008400572E+03  0.73949667595E+02  0.16746497684E+03  0.47000000000E+01 0. -1.
         11    1    6    6    0    0 -0.36769842609E+02  0.57016234986E+03  0.43310396296E+03  0.71694920968E+03  0.00000000000E+00 0. -1.
        -12    1    6    6    0    0 -0.21824089345E+02  0.14188772654E+03  0.64538575999E+02  0.15739645997E+03  0.00000000000E+00 0.  1.
         -5    1    5    5    0  502  0.47941610991E+02  0.46919102686E+03  0.24538350617E+03  0.53167073726E+03  0.47000000000E+01 0.  1.
</event>
<event>
12    1  0.1649996E+000  0.8581467E+03  0.7818608E-02  0.9479467E-01
         21   -1    0    0  501  502  0.00000000000E+00  0.00000000000E+00  0.11174309559E+04  0.11174309559E+04  0.00000000000E+00 0.  1.
         21   -1    0    0  502  503 -0.00000000000E+00 -0.00000000000E+00 -0.68153544352E+03  0.68153544352E+03  0.00000000000E+00 0. -1.
         -6    2    1    2    0  503  0.85416247866E+03 -0.15135462400E+02  0.26808771734E+03  0.91160621311E+03  0.17126657994E+03 0.  0.
        -24    2    3    3    0    0  0.68642795379E+03 -0.38836590569E+02  0.15942113434E+03  0.71029269997E+03  0.80056261719E+02 0.  0.
          6    2    1    2  501    0 -0.85416247866E+03  0.15135462400E+02  0.16780779500E+03  0.88736018628E+03  0.17154014676E+03 0.  0.
         24    2    5    5    0    0 -0.82586823567E+03  0.92159417359E+01  0.13063376733E+03  0.84003573969E+03  0.80321768676E+02 0.  0.
         12    1    6    6    0    0 -0.77421908980E+03  0.16609706356E+02  0.14021181346E+03  0.78698820448E+03  0.00000000000E+00 0. -1.
        -11    1    6    6    0    0 -0.51649145863E+02 -0.73937646197E+01 -0.95780461345E+01  0.53047535206E+02  0.00000000000E+00 0.  1.
          5    1    5    5  501    0 -0.28294242997E+02  0.59195206643E+01  0.37174027671E+02  0.47324446589E+02  0.47000000000E+01 0. -1.
         13    1    4    4    0    0  0.37078172549E+02  0.13625849468E+02 -0.41922566371E+00  0.39504814940E+02  0.00000000000E+00 0. -1.
        -14    1    4    4    0    0  0.64934978124E+03 -0.52462440037E+02  0.15984036000E+03  0.67078788503E+03  0.00000000000E+00 0.  1.
         -5    1    3    3    0  503  0.16773452487E+03  0.23701128169E+02  0.10866658300E+03  0.20131351314E+03  0.47000000000E+01 0.  1.
</event>
<event>
12    1  0.9749377E-001  0.5582026E+03  0.7818608E-02  0.9996130E-01
         21   -1    0    0  503  502  0.00000000000E+00  0.00000000000E+00  0.37595379164E+03  0.37595379164E+03  0.00000000000E+00 0.  1.
         21   -1    0    0  501  503 -0.00000000000E+00 -0.00000000000E+00 -0.13333610971E+04  0.13333610971E+04  0.00000000000E+00 0. -1.
          6    2    1    2  501    0  0.46470609777E+03 -0.27168420414E+03  0.37193151469E+02  0.56543482881E+03  0.16902411374E+03 0.  0.
         24    2    3    3    0    0  0.46534424153E+03 -0.23539040771E+03  0.33973901546E+02  0.52869111564E+03  0.80038507046E+02 0.  0.
         -6    2    1    2    0  502 -0.46470609777E+03  0.27168420414E+03 -0.99460045696E+03  0.11438800600E+04  0.17166088235E+03 0.  0.
        -24    2    5    5    0    0 -0.29202995968E+03  0.98994891557E+02 -0.51174989931E+03  0.60276510141E+03  0.79726546011E+02 0.  0.
         14    1    4    4    0    0  0.17090335595E+03 -0.87276667198E+02 -0.26100352746E+02  0.19366569682E+03  0.00000000000E+00 0. -1.
        -13    1    4    4    0    0  0.29444088558E+03 -0.14811374051E+03  0.60074254292E+02  0.33502541883E+03  0.00000000000E+00 0.  1.
          5    1    3    3  501    0 -0.63814375580E+00 -0.36293796434E+02  0.32192499233E+01  0.36743713164E+02  0.47000000000E+01 0. -1.
         13    1    6    6    0    0 -0.18630084339E+03  0.92821616521E+02 -0.38435897933E+03  0.43709916693E+03  0.00000000000E+00 0. -1.
        -14    1    6    6    0    0 -0.10572911628E+03  0.61732750360E+01 -0.12739091998E+03  0.16566593448E+03  0.00000000000E+00 0.  1.
         -5    1    5    5    0  502 -0.17267613809E+03  0.17268931258E+03 -0.48285055766E+03  0.54111495856E+03  0.47000000000E+01 0.  1.
</event>
<event>
12    1  0.9749377E-001  0.4156268E+03  0.7818608E-02  0.1038499E+00
         21   -1    0    0  503  502  0.00000000000E+00  0.00000000000E+00  0.39209166888E+03  0.39209166888E+03  0.00000000000E+00 0. -1.
         21   -1    0    0  501  503 -0.00000000000E+00 -0.00000000000E+00 -0.46853723518E+03  0.46853723518E+03  0.00000000000E+00 0.  1.
          6    2    1    2  501    0 -0.21879217424E+03  0.32739910560E+03 -0.39515436582E+02  0.42900593155E+03  0.16560322980E+03 0.  0.
         24    2    3    3    0    0 -0.13188640260E+03  0.29734191152E+03 -0.25366520888E+02  0.33584837751E+03  0.79651972681E+02 0.  0.
         -6    2    1    2    0  502  0.21879217424E+03 -0.32739910560E+03 -0.36930129718E+02  0.43162297251E+03  0.17284202633E+03 0.  0.
        -24    2    5    5    0    0  0.33488792151E+02 -0.10711371093E+03  0.15642497524E+02  0.13896452030E+03  0.80446279616E+02 0.  0.
         12    1    4    4    0    0 -0.10394191676E+03  0.14184774212E+03 -0.92143555307E-01  0.17585423649E+03  0.00000000000E+00 0. -1.
        -11    1    4    4    0    0 -0.27944485847E+02  0.15549416941E+03 -0.25274377333E+02  0.15999414101E+03  0.00000000000E+00 0.  1.
          5    1    3    3  501    0 -0.86905771635E+02  0.30057194071E+02 -0.14148915694E+02  0.93157554038E+02  0.47000000000E+01 0. -1.
         11    1    6    6    0    0  0.40443614300E+02 -0.82780321520E+02  0.43020738202E+02  0.10168112649E+03  0.00000000000E+00 0. -1.
        -12    1    6    6    0    0 -0.69548221493E+01 -0.24333389414E+02 -0.27378240679E+02  0.37283393812E+02  0.00000000000E+00 0.  1.
         -5    1    5    5    0  502  0.18530338209E+03 -0.22028539466E+03 -0.52572627242E+02  0.29265845221E+03  0.47000000000E+01 0.  1.
</event>
<event>
12    1  0.9749377E-001  0.2966581E+03  0.7818608E-02  0.1086923E+00
         21   -1    0    0  503  502  0.00000000000E+00  0.00000000000E+00  0.67837377048E+02  0.67837377048E+02  0.00000000000E+00 0. -1.
         21   -1    0    0  501  503 -0.00000000000E+00 -0.00000000000E+00 -0.18187205504E+04  0.18187205504E+04  0.00000000000E+00 0.  1.
          6    2    1    2  501    0  0.87437238028E+02 -0.25839600318E+03 -0.12604849886E+04  0.13010543006E+04  0.17177346053E+03 0.  0.
         24    2    3    3    0    0  0.53835469074E+02 -0.13303165668E+03 -0.42382101090E+03  0.45437018021E+03  0.78945120022E+02 0.  0.
         -6    2    1    2    0  502 -0.87437238028E+02  0.25839600318E+03 -0.49039818480E+03  0.58550362683E+03  0.16706391687E+03 0.  0.
        -24    2    5    5    0    0 -0.53446720399E+02  0.50506685686E+02 -0.16086313547E+03  0.19436584758E+03  0.80583231087E+02 0.  0.
         12    1    4    4    0    0  0.69566326658E+02 -0.11547230971E+03 -0.30856738446E+03  0.33673009795E+03  0.00000000000E+00 0. -1.
        -11    1    4    4    0    0 -0.15730857583E+02 -0.17559346972E+02 -0.11525362644E+03  0.11764008226E+03  0.00000000000E+00 0.  1.
          5    1    3    3  501    0  0.33601768953E+02 -0.12536434650E+03 -0.83666397766E+03  0.84668412041E+03  0.47000000000E+01 0. -1.
         13    1    6    6    0    0  0.79105968880E+01 -0.67754129769E+01  0.24890567558E+01  0.10708835962E+02  0.00000000000E+00 0. -1.
        -14    1    6    6    0    0 -0.61357317287E+02  0.57282098663E+02 -0.16335219223E+03  0.18365701162E+03  0.00000000000E+00 0.  1.
         -5    1    5    5    0  502 -0.33990517629E+02  0.20788931750E+03 -0.32953504933E+03  0.39113777924E+03  0.47000000000E+01 0.  1.
</event>
<event>
12    1  0.9749377E-001  0.1085788E+04  0.7818608E-02  0.9219155E-01
         21   -1    0    0  503  502  0.00000000000E+00  0.00000000000E+00  0.48009272431E+03  0.48009272431E+03  0.00000000000E+00 0. -1.
         21   -1    0    0  501  503 -0.00000000000E+00 -0.00000000000E+00 -0.24934805676E+04  0.24934805676E+04  0.00000000000E+00 0.  1.
          6    2    1    2  501    0  0.37437321685E+03 -0.10096421639E+04 -0.11282286420E+04  0.15690530550E+04  0.17174113099E+03 0.  0.
         24    2    3    3    0    0  0.31340140396E+03 -0.70190796199E+03 -0.86073126838E+03  0.11567487549E+04  0.79461553035E+02 0.  0.
         -6    2    1    2    0  502 -0.37437321685E+03  0.10096421639E+04 -0.88515920127E+03  0.14045202369E+04  0.17215597470E+03 0.  0.
        -24    2    5    5    0    0 -0.27826976738E+03  0.88530449659E+03 -0.78473083609E+03  0.12179628059E+04  0.80204715634E+02 0.  0.
         14    1    4    4    0    0  0.12241652207E+03 -0.18844289341E+03 -0.23724101869E+03  0.32677183156E+03  0.00000000000E+00 0. -1.
        -13    1    4    4    0    0  0.19098488189E+03 -0.51346506859E+03 -0.62349024968E+03  0.82997692331E+03  0.00000000000E+00 0.  1.
          5    1    3    3  501    0  0.60971812886E+02 -0.30773420193E+03 -0.26749737364E+03  0.41230430013E+03  0.47000000000E+01 0. -1.
         11    1    6    6    0    0 -0.13837877293E+03  0.42410381750E+03 -0.42933740696E+03  0.61914726990E+03  0.00000000000E+00 0. -1.
        -12    1    6    6    0    0 -0.13989099445E+03  0.46120067909E+03 -0.35539342913E+03  0.59881553603E+03  0.00000000000E+00 0.  1.
         -5    1    5    5    0  502 -0.96103449473E+02  0.12433766733E+03 -0.10042836518E+03  0.18655743097E+03  0.47000000000E+01 0.  1.
</event>
<event>
12    1  0.9749377E-001  0.3550053E+03  0.7818608E-02  0.1060579E+00
         21   -1    0    0  503  502  0.00000000000E+00  0.00000000000E+00  0.95596195543E+03  0.95596195543E+03  0.00000000000E+00 0.  1.
         21   -1    0    0  501  503 -0.00000000000E+00 -0.00000000000E+00 -0.35757708449E+03  0.35757708449E+03  0.00000000000E+00 0. -1.
          6    2    1    2  501    0  0.18468931199E+03 -0.26876876648E+03  0.81000281293E+03  0.89010207757E+03  0.17271467726E+03 0.  0.
         24    2    3    3    0    0  0.42975813505E+02 -0.43325998204E+02  0.18378001717E+03  0.20959914786E+03  0.80203774251E+02 0.  0.
         -6    2    1    2    0  502 -0.18468931199E+03  0.26876876648E+03 -0.21161794198E+03  0.42343696235E+03  0.16783895828E+03 0.  0.
        -24    2    5    5    0    0 -0.55293201505E+02  0.16819947553E+03 -0.15880855781E+03  0.25119162352E+03  0.80800197974E+02 0.  0.
         14    1    4    4    0    0 -0.15199114052E+02 -0.14159073884E+02  0.81743211448E+01  0.22322902307E+02  0.00000000000E+00 0. -1.
        -13    1    4    4    0    0  0.58174927557E+02 -0.29166924319E+02  0.17560569603E+03  0.18727624555E+03  0.00000000000E+00 0.  1.
          5    1    3    3  501    0  0.14171349849E+03 -0.22544276828E+03  0.62622279576E+03  0.68050292971E+03  0.47000000000E+01 0. -1.
         11    1    6    6    0    0 -0.75729084314E+02  0.13816917677E+03 -0.13721089155E+03  0.20893167395E+03  0.00000000000E+00 0. -1.
        -12    1    6    6    0    0  0.20435882808E+02  0.30030298760E+02 -0.21597666256E+02  0.42259949568E+02  0.00000000000E+00 0.  1.
         -5    1    5    5    0  502 -0.12939611049E+03  0.10056929095E+03 -0.52809384175E+02  0.17224533883E+03  0.47000000000E+01 0.  1.
</event>
<event>
12    1  0.9749377E-001  0.5446550E+03  0.7818608E-02  0.1002739E+00
         21   -1    0    0  503  502  0.00000000000E+00  0.00000000000E+00  0.65327712184E+03  0.65327712184E+03  0.00000000000E+00 0. -1.
         21   -1    0    0  501  503 -0.00000000000E+00 -0.00000000000E+00 -0.69750557115E+03  0.69750557115E+03  0.00000000000E+00 0.  1.
          6    2    1    2  501    0 -0.23354875027E+03 -0.47501850398E+03  0.35987401487E+03  0.66282851533E+03  0.17217646843E+03 0.  0.
         24    2    3    3    0    0 -0.24636350191E+03 -0.37428640639E+03  0.29538655516E+03  0.54244622509E+03  0.78799752927E+02 0.  0.
         -6    2    1    2    0  502  0.23354875027E+03  0.47501850398E+03 -0.40410246419E+03  0.68795417766E+03  0.17261098203E+03 0.  0.
        -24    2    5    5    0    0  0.18235867605E+03  0.32815577935E+03 -0.35979414526E+03  0.52616913289E+03  0.80381759069E+02 0.  0.
         14    1    4    4    0    0 -0.79950055389E+02 -0.10196178138E+03  0.46266027907E+02  0.13758183586E+03  0.00000000000E+00 0. -1.
        -13    1    4    4    0    0 -0.16641344652E+03 -0.27232462501E+03  0.24912052726E+03  0.40486438923E+03  0.00000000000E+00 0.  1.
          5    1    3    3  501    0  0.12814751639E+02 -0.10073209759E+03  0.64487459709E+02  0.12038229024E+03  0.47000000000E+01 0. -1.
         13    1    6    6    0    0  0.35370431159E+02  0.17059926617E+02 -0.46138878001E+02  0.60587990227E+02  0.00000000000E+00 0. -1.
        -14    1    6    6    0    0  0.14698824490E+03  0.31109585273E+03 -0.31365526726E+03  0.46558114266E+03  0.00000000000E+00 0.  1.
         -5    1    5    5    0  502  0.51190074211E+02  0.14686272463E+03 -0.44308318930E+02  0.16178504477E+03  0.47000000000E+01 0.  1.
</event>
<event>
12    1  0.9749377E-001  0.2574924E+03  0.7818608E-02  0.1108659E+00
         21   -1    0    0  501  502  0.00000000000E+00  0.00000000000E+00  0.53370485297E+03  0.53370485297E+03  0.00000000000E+00 0.  1.
         21   -1    0    0  502  503 -0.00000000000E+00 -0.00000000000E+00 -0.18272648287E+03  0.18272648287E+03  0.00000000000E+00 0. -1.
         -6    2    1    2    0  503 -0.21637481219E+03 -0.81829014040E+02  0.35106984869E+02  0.28878947428E+03  0.16927141866E+03 0.  0.
        -24    2    3    3    0    0 -0.13643819778E+03 -0.76919699799E+02  0.84356819674E+02  0.19465340299E+03  0.79005393727E+02 0.  0.
          6    2    1    2  501    0  0.21637481219E+03  0.81829014040E+02  0.31587138524E+03  0.42764186156E+03  0.17201390309E+03 0.  0.
         24    2    5    5    0    0  0.15569793861E+03  0.11162688703E+03  0.28662035640E+03  0.35383597487E+03  0.79663406990E+02 0.  0.
         12    1    6    6    0    0  0.15336081123E+03  0.12217208932E+03  0.26482982473E+03  0.32951539250E+03  0.00000000000E+00 0. -1.
        -11    1    6    6    0    0  0.23371273731E+01 -0.10545202297E+02  0.21790531678E+02  0.24320582367E+02  0.00000000000E+00 0.  1.
          5    1    5    5  501    0  0.60676873585E+02 -0.29797872985E+02  0.29251028833E+02  0.73805886691E+02  0.47000000000E+01 0. -1.
         11    1    4    4    0    0 -0.33524804168E+02 -0.36487249040E+02 -0.84874363201E+01  0.50271944584E+02  0.00000000000E+00 0. -1.
        -12    1    4    4    0    0 -0.10291339362E+03 -0.40432450759E+02  0.92844255994E+02  0.14438145840E+03  0.00000000000E+00 0.  1.
         -5    1    3    3    0  503 -0.79936614408E+02 -0.49093142416E+01 -0.49249834805E+02  0.94136071288E+02  0.47000000000E+01 0.  1.
</event>
<event>
12    1  0.9749377E-001  0.3990504E+03  0.7818608E-02  0.1044109E+00
         21   -1    0    0  503  502  0.00000000000E+00  0.00000000000E+00  0.51142135286E+03  0.51142135286E+03  0.00000000000E+00 0. -1.
         21   -1    0    0  501  503 -0.00000000000E+00 -0.00000000000E+00 -0.38138209176E+03  0.38138209176E+03  0.00000000000E+00 0.  1.
          6    2    1    2  501    0 -0.27058409031E+03 -0.27839612577E+03  0.19072814976E+03  0.46516411769E+03  0.17111480503E+03 0.  0.
         24    2    3    3    0    0 -0.84597298091E+02 -0.74398383239E+02  0.11233595853E+03  0.17815611870E+03  0.80177383215E+02 0.  0.
         -6    2    1    2    0  502  0.27058409031E+03  0.27839612577E+03 -0.60688888657E+02  0.42763932693E+03  0.16873677712E+03 0.  0.
        -24    2    5    5    0    0  0.69392165402E+02  0.50072999647E+02 -0.31492387430E+02  0.12188752193E+03  0.80883988675E+02 0.  0.
         14    1    4    4    0    0 -0.92815746424E+02 -0.49723323923E+02  0.10963280102E+03  0.15200829841E+03  0.00000000000E+00 0. -1.
        -13    1    4    4    0    0  0.82184483329E+01 -0.24675059315E+02  0.27031575020E+01  0.26147820286E+02  0.00000000000E+00 0.  1.
          5    1    3    3  501    0 -0.18598679222E+03 -0.20399774253E+03  0.78392191240E+02  0.28700799899E+03  0.47000000000E+01 0. -1.
         13    1    6    6    0    0  0.69585260182E+02  0.50433126550E+02 -0.52611164430E+02  0.10076479202E+03  0.00000000000E+00 0. -1.
        -14    1    6    6    0    0 -0.19309477974E+00 -0.36012690256E+00  0.21118777000E+02  0.21122729913E+02  0.00000000000E+00 0.  1.
         -5    1    5    5    0  502  0.20119192491E+03  0.22832312613E+03 -0.29196501227E+02  0.30575180499E+03  0.47000000000E+01 0.  1.
</event>
<event>
12    1  0.9749377E-001  0.3543206E+03  0.7818608E-02  0.1060856E+00
         21   -1    0    0  503  502  0.00000000000E+00  0.00000000000E+00  0.50470157621E+03  0.50470157621E+03  0.00000000000E+00 0.  1.
         21   -1    0    0  501  503 -0.00000000000E+00 -0.00000000000E+00 -0.28192464281E+03  0.28192464281E+03  0.00000000000E+00 0. -1.
          6    2    1    2  501    0  0.10587396571E+03  0.30580438871E+03  0.17967408651E+02  0.36695360656E+03  0.17206539694E+03 0.  0.
         24    2    3    3    0    0  0.41084423649E+02  0.47822080776E+02  0.58927315722E+01  0.10064468107E+03  0.78228807138E+02 0.  0.
         -6    2    1    2    0  502 -0.10587396571E+03 -0.30580438871E+03  0.20480952474E+03  0.41967261246E+03  0.17161742178E+03 0.  0.
        -24    2    5    5    0    0 -0.11933396305E+03 -0.14178796357E+03  0.11325427206E+03  0.23129264130E+03  0.79531971093E+02 0.  0.
         12    1    4    4    0    0  0.49441229295E+02  0.55363319630E+02 -0.16087693677E+02  0.75949629377E+02  0.00000000000E+00 0. -1.
        -11    1    4    4    0    0 -0.83568056464E+01 -0.75412388541E+01  0.21980425249E+02  0.24695051694E+02  0.00000000000E+00 0.  1.
          5    1    3    3  501    0  0.64789542061E+02  0.25798230793E+03  0.12074677078E+02  0.26630892549E+03  0.47000000000E+01 0. -1.
         13    1    6    6    0    0 -0.94565629089E+02 -0.73263282484E+02  0.10271210943E+03  0.15767036560E+03  0.00000000000E+00 0. -1.
        -14    1    6    6    0    0 -0.24768333962E+02 -0.68524681085E+02  0.10542162631E+02  0.73622275692E+02  0.00000000000E+00 0.  1.
         -5    1    5    5    0  502  0.13459997341E+02 -0.16401642514E+03  0.91555252678E+02  0.18837997117E+03  0.47000000000E+01 0.  1.
</event>
<event>
12    1  0.9749377E-001  0.3306454E+03  0.7818608E-02  0.1070852E+00
         21   -1    0    0  503  502  0.00000000000E+00  0.00000000000E+00  0.14442642954E+04  0.14442642954E+04  0.00000000000E+00 0.  1.
         21   -1    0    0  501  503 -0.00000000000E+00 -0.00000000000E+00 -0.22951234787E+03  0.22951234787E+03  0.00000000000E+00 0. -1.
          6    2    1    2  501    0 -0.29452641140E+03 -0.89270210900E+02 -0.54357205417E+02  0.35650573499E+03  0.17154199407E+03 0.  0.
         24    2    3    3    0    0 -0.22022430782E+03 -0.59023546145E+02 -0.10203955291E+03  0.26306399063E+03  0.82511017781E+02 0.  0.
         -6    2    1    2    0  502  0.29452641140E+03  0.89270210900E+02  0.12691091530E+04  0.13172709083E+04  0.17277044356E+03 0.  0.
        -24    2    5    5    0    0  0.21334054009E+03  0.12584381055E+03  0.10090387323E+04  0.10423391211E+04  0.83431585582E+02 0.  0.
         14    1    4    4    0    0 -0.16767261698E+03 -0.72475502213E+01 -0.80975586190E+02  0.18634290710E+03  0.00000000000E+00 0. -1.
        -13    1    4    4    0    0 -0.52551690845E+02 -0.51775995924E+02 -0.21063966721E+02  0.76721083534E+02  0.00000000000E+00 0.  1.
          5    1    3    3  501    0 -0.74302103577E+02 -0.30246664755E+02  0.47682347493E+02  0.93441744350E+02  0.47000000000E+01 0. -1.
         11    1    6    6    0    0  0.11061499958E+03  0.44913855102E+02  0.63428933976E+03  0.64542691224E+03  0.00000000000E+00 0. -1.
        -12    1    6    6    0    0  0.10272554051E+03  0.80929955447E+02  0.37474939255E+03  0.39691220890E+03  0.00000000000E+00 0.  1.
         -5    1    5    5    0  502  0.81185871308E+02 -0.36573599649E+02  0.26007042067E+03  0.27493178718E+03  0.47000000000E+01 0.  1.
</event>
<event>
12    1  0.9749377E-001  0.3461734E+03  0.7818608E-02  0.1064197E+00
         21   -1    0    0  503  502  0.00000000000E+00  0.00000000000E+00  0.38202713297E+03  0.38202713297E+03  0.00000000000E+00 0. -1.
         21   -1    0    0  501  503 -0.00000000000E+00 -0.00000000000E+00 -0.57040159182E+03  0.57040159182E+03  0.00000000000E+00 0.  1.
          6    2    1    2  501    0 -0.31198743291E+03 -0.86182326039E+02 -0.38911015733E+03  0.53474170774E+03  0.17256427163E+03 0.  0.
         24    2    3    3    0    0 -0.29951766199E+03 -0.56865727744E+02 -0.28139772642E+03  0.42231832986E+03  0.78889482600E+02 0.  0.
         -6    2    1    2    0  502  0.31198743291E+03  0.86182326039E+02  0.20073569848E+03  0.41768701705E+03  0.17147615562E+03 0.  0.
        -24    2    5    5    0    0  0.30082490541E+03  0.10172699283E+03  0.14405294947E+03  0.35767649530E+03  0.79606647031E+02 0.  0.
         12    1    4    4    0    0 -0.10735311089E+03 -0.55844145519E+02 -0.13063168826E+03  0.17806711371E+03  0.00000000000E+00 0. -1.
        -11    1    4    4    0    0 -0.19216455109E+03 -0.10215822245E+01 -0.15076603816E+03  0.24425121615E+03  0.00000000000E+00 0.  1.
          5    1    3    3  501    0 -0.12469770925E+02 -0.29316598296E+02 -0.10771243091E+03  0.11242337788E+03  0.47000000000E+01 0. -1.
         13    1    6    6    0    0 -0.30771059587E+01 -0.43931155892E+01  0.11547530207E+01  0.54864834092E+01  0.00000000000E+00 0. -1.
        -14    1    6    6    0    0  0.30390201137E+03  0.10612010841E+03  0.14289819645E+03  0.35219001189E+03  0.00000000000E+00 0.  1.
         -5    1    5    5    0  502  0.11162527503E+02 -0.15544666786E+02  0.56682749007E+02  0.60010521750E+02  0.47000000000E+01 0.  1.
</event>
<event>
12    1  0.9749377E-001  0.2012044E+03  0.7818608E-02  0.1148727E+00
         21   -1    0    0  503  502  0.00000000000E+00  0.00000000000E+00  0.70080714462E+03  0.70080714462E+03  0.00000000000E+00 0. -1.
         21   -1    0    0  501  503 -0.00000000000E+00 -0.00000000000E+00 -0.86266672801E+02  0.86266672801E+02  0.00000000000E+00 0.  1.
          6    2    1    2  501    0  0.11612914015E+03 -0.13086332111E+03  0.30191505849E+03  0.38825722990E+03  0.17023450893E+03 0.  0.
         24    2    3    3    0    0  0.10482004401E+03 -0.41914329244E+02  0.11063348710E+03  0.17695046626E+03  0.79546504765E+02 0.  0.
         -6    2    1    2    0  502 -0.11612914015E+03  0.13086332111E+03  0.31262541333E+03  0.39881658751E+03  0.17523936605E+03 0.  0.
        -24    2    5    5    0    0 -0.80746941237E+02  0.88188421701E+02  0.90738363986E+02  0.17006126035E+03  0.79938196949E+02 0.  0.
         12    1    4    4    0    0  0.65798104799E+02 -0.31379871418E+02  0.16838456203E+02  0.74817247562E+02  0.00000000000E+00 0. -1.
        -11    1    4    4    0    0  0.39021939208E+02 -0.10534457826E+02  0.93795030892E+02  0.10213321870E+03  0.00000000000E+00 0.  1.
          5    1    3    3  501    0  0.11309096138E+02 -0.88948991864E+02  0.19128157139E+03  0.21130676365E+03  0.47000000000E+01 0. -1.
         11    1    6    6    0    0  0.16306580962E+02  0.11091361422E+02  0.97572579890E+01  0.22002885364E+02  0.00000000000E+00 0. -1.
        -12    1    6    6    0    0 -0.97053522199E+02  0.77097060279E+02  0.80981105997E+02  0.14805837499E+03  0.00000000000E+00 0.  1.
         -5    1    5    5    0  502 -0.35382198908E+02  0.42674899407E+02  0.22188704935E+03  0.22875532717E+03  0.47000000000E+01 0.  1.
</event>
<event>
12    1  0.9749377E-001  0.8596978E+03  0.7818608E-02  0.9477413E-01
         21   -1    0    0  501  502  0.00000000000E+00  0.00000000000E+00  0.28942962510E+03  0.28942962510E+03  0.00000000000E+00 0. -1.
         21   -1    0    0  502  503 -0.00000000000E+00 -0.00000000000E+00 -0.31881569791E+04  0.31881569791E+04  0.00000000000E+00 0.  1.
         -6    2    1    2    0  503  0.68374778922E+03 -0.50580897564E+03 -0.21943219060E+04  0.23596972011E+04  0.17253548756E+03 0.  0.
        -24    2    3    3    0    0  0.16124261491E+03 -0.14572358805E+03 -0.56004802580E+03  0.60654394221E+03  0.83709125258E+02 0.  0.
          6    2    1    2  501    0 -0.68374778922E+03  0.50580897564E+03 -0.70440544795E+03  0.11178894031E+04  0.17359701418E+03 0.  0.
         24    2    5    5    0    0 -0.43670524595E+03  0.40774123917E+03 -0.48859392045E+03  0.77548028445E+03  0.75374150190E+02 0.  0.
         12    1    6    6    0    0 -0.27138392947E+03  0.20595661168E+03 -0.29454632145E+03  0.45036085370E+03  0.00000000000E+00 0. -1.
        -11    1    6    6    0    0 -0.16532131648E+03  0.20178462749E+03 -0.19404759900E+03  0.32511943075E+03  0.00000000000E+00 0.  1.
          5    1    5    5  501    0 -0.24704254327E+03  0.98067736472E+02 -0.21581152750E+03  0.34240911864E+03  0.47000000000E+01 0. -1.
         11    1    4    4    0    0  0.12641811581E+03 -0.11772477516E+03 -0.51455009247E+03  0.54277293628E+03  0.00000000000E+00 0. -1.
        -12    1    4    4    0    0  0.34824499098E+02 -0.27998812886E+02 -0.45497933331E+02  0.63771005934E+02  0.00000000000E+00 0.  1.
         -5    1    3    3    0  503  0.52250517432E+03 -0.36008538759E+03 -0.16342738802E+04  0.17531532589E+04  0.47000000000E+01 0.  1.
</event>
<event>
12    1  0.9749377E-001  0.5248496E+03  0.7818608E-02  0.1007489E+00
         21   -1    0    0  503  502  0.00000000000E+00  0.00000000000E+00  0.28582395093E+03  0.28582395093E+03  0.00000000000E+00 0. -1.
         21   -1    0    0  501  503 -0.00000000000E+00 -0.00000000000E+00 -0.11677796561E+04  0.11677796561E+04  0.00000000000E+00 0.  1.
          6    2    1    2  501    0 -0.33852168751E+03 -0.37200650346E+03 -0.72554097280E+03  0.89940632367E+03  0.17186116581E+03 0.  0.
         24    2    3    3    0    0 -0.24526537549E+03 -0.34493535641E+03 -0.53482854299E+03  0.68534346464E+03  0.67220455246E+02 0.  0.
         -6    2    1    2    0  502  0.33852168751E+03  0.37200650346E+03 -0.15641473237E+03  0.55419728336E+03  0.17228838861E+03 0.  0.
        -24    2    5    5    0    0  0.35110713029E+03  0.33807091320E+03 -0.15473143996E+03  0.51766043718E+03  0.80388745567E+02 0.  0.
         14    1    4    4    0    0 -0.53285840444E+02 -0.12921396934E+03 -0.17551390746E+03  0.22436747174E+03  0.00000000000E+00 0. -1.
        -13    1    4    4    0    0 -0.19197953505E+03 -0.21572138707E+03 -0.35931463554E+03  0.46097599289E+03  0.00000000000E+00 0.  1.
          5    1    3    3  501    0 -0.93256312025E+02 -0.27071147048E+02 -0.19071242980E+03  0.21406285903E+03  0.47000000000E+01 0. -1.
         11    1    6    6    0    0  0.24689813205E+03  0.24087448311E+03 -0.70300848759E+02  0.35202473430E+03  0.00000000000E+00 0. -1.
        -12    1    6    6    0    0  0.10420899823E+03  0.97196430093E+02 -0.84430591205E+02  0.16563570288E+03  0.00000000000E+00 0.  1.
         -5    1    5    5    0  502 -0.12585442773E+02  0.33935590257E+02 -0.16832924100E+01  0.36536846186E+02  0.47000000000E+01 0.  1.
</event>
<event>
12    1  0.9749377E-001  0.6911394E+03  0.7818608E-02  0.9732506E-01
         21   -1    0    0  501  502  0.00000000000E+00  0.00000000000E+00  0.30985257851E+03  0.30985257851E+03  0.00000000000E+00 0.  1.
         21   -1    0    0  502  503 -0.00000000000E+00 -0.00000000000E+00 -0.16627415332E+04  0.16627415332E+04  0.00000000000E+00 0. -1.
         -6    2    1    2    0  503 -0.26918010155E+03 -0.62623998583E+03 -0.47932789282E+03  0.85094614397E+03  0.17239392152E+03 0.  0.
        -24    2    3    3    0    0 -0.24291241166E+03 -0.58312042224E+03 -0.48425839460E+03  0.79999824760E+03  0.80343866275E+02 0.  0.
          6    2    1    2  501    0  0.26918010155E+03  0.62623998583E+03 -0.87356106192E+03  0.11216479678E+04  0.17421477504E+03 0.  0.
         24    2    5    5    0    0  0.22782041740E+03  0.37271475052E+03 -0.58751610231E+03  0.73716197673E+03  0.86105642200E+02 0.  0.
         12    1    6    6    0    0  0.38762878759E+02  0.10273559969E+03 -0.20237135139E+03  0.23024189036E+03  0.00000000000E+00 0. -1.
        -11    1    6    6    0    0  0.18905753865E+03  0.26997915083E+03 -0.38514475092E+03  0.50692008637E+03  0.00000000000E+00 0.  1.
          5    1    5    5  501    0  0.41359684145E+02  0.25352523530E+03 -0.28604495961E+03  0.38448599106E+03  0.47000000000E+01 0. -1.
         13    1    4    4    0    0 -0.93812231009E+02 -0.14734028974E+03 -0.15843398948E+03  0.23582032290E+03  0.00000000000E+00 0. -1.
        -14    1    4    4    0    0 -0.14910018065E+03 -0.43578013250E+03 -0.32582440512E+03  0.56417792470E+03  0.00000000000E+00 0.  1.
         -5    1    3    3    0  503 -0.26267689893E+02 -0.43119563587E+02  0.49305017856E+01  0.50947896366E+02  0.47000000000E+01 0.  1.
</event>
<event>
12    1  0.9749377E-001  0.2536337E+03  0.7818608E-02  0.1111030E+00
         21   -1    0    0  501  502  0.00000000000E+00  0.00000000000E+00  0.36633419981E+03  0.36633419981E+03  0.00000000000E+00 0.  1.
         21   -1    0    0  502  503 -0.00000000000E+00 -0.00000000000E+00 -0.30401625262E+03  0.30401625262E+03  0.00000000000E+00 0. -1.
         -6    2    1    2    0  503  0.20276931288E+03 -0.78631711928E+02  0.21870504525E+03  0.35293142470E+03  0.17155277136E+03 0.  0.
        -24    2    3    3    0    0  0.77985560729E+02 -0.98914487534E+02  0.13340332828E+03  0.20035079453E+03  0.80487075645E+02 0.  0.
          6    2    1    2  501    0 -0.20276931288E+03  0.78631711928E+02 -0.15638709806E+03  0.31741902772E+03  0.17029261393E+03 0.  0.
         24    2    5    5    0    0 -0.82878832520E+02  0.56277457063E+01 -0.94699534456E+01  0.11417030388E+03  0.77747063403E+02 0.  0.
         14    1    6    6    0    0 -0.56604974969E+01  0.12718715965E+02  0.25541763695E+02  0.29089322102E+02  0.00000000000E+00 0. -1.
        -13    1    6    6    0    0 -0.77218335023E+02 -0.70909702591E+01 -0.35011717140E+02  0.85080981777E+02  0.00000000000E+00 0.  1.
          5    1    5    5  501    0 -0.11989048036E+03  0.73003966222E+02 -0.14691714461E+03  0.20324872385E+03  0.47000000000E+01 0. -1.
         11    1    4    4    0    0  0.33757112420E+02  0.66371402914E+01  0.38909727870E+02  0.51938051496E+02  0.00000000000E+00 0. -1.
        -12    1    4    4    0    0  0.44228448309E+02 -0.10555162783E+03  0.94493600411E+02  0.14841274303E+03  0.00000000000E+00 0.  1.
         -5    1    3    3    0  503  0.12478375215E+03  0.20282775606E+02  0.85301716964E+02  0.15258063017E+03  0.47000000000E+01 0.  1.
</event>
<event>
12    1  0.9749377E-001  0.3526994E+03  0.7818608E-02  0.1061513E+00
         21   -1    0    0  503  502  0.00000000000E+00  0.00000000000E+00  0.52250003619E+03  0.52250003619E+03  0.00000000000E+00 0. -1.
         21   -1    0    0  501  503 -0.00000000000E+00 -0.00000000000E+00 -0.30369244355E+03  0.30369244355E+03  0.00000000000E+00 0.  1.
          6    2    1    2  501    0  0.27277514681E+02  0.34886266439E+03  0.18854490872E+03  0.43353276844E+03  0.17306720456E+03 0.  0.
         24    2    3    3    0    0  0.19036870258E+02  0.12260813377E+03  0.15572123980E+02  0.14857541179E+03  0.80230948197E+02 0.  0.
         -6    2    1    2    0  502 -0.27277514681E+02 -0.34886266439E+03  0.30262683924E+02  0.39265971130E+03  0.17554656769E+03 0.  0.
        -24    2    5    5    0    0 -0.34697774593E+02 -0.22789040588E+03 -0.46613357602E+02  0.24905830690E+03  0.81971107555E+02 0.  0.
         12    1    4    4    0    0  0.89229844979E+01  0.11223580763E+03 -0.16111442981E+02  0.11373686633E+03  0.00000000000E+00 0. -1.
        -11    1    4    4    0    0  0.10113885760E+02  0.10372326135E+02  0.31683566961E+02  0.34838545463E+02  0.00000000000E+00 0.  1.
          5    1    3    3  501    0  0.82406444231E+01  0.22625453062E+03  0.17297278474E+03  0.28495735665E+03  0.47000000000E+01 0. -1.
         13    1    6    6    0    0 -0.99779362537E+01 -0.82452213961E+02 -0.57682299646E+02  0.10111960488E+03  0.00000000000E+00 0. -1.
        -14    1    6    6    0    0 -0.24719838340E+02 -0.14543819192E+03  0.11068942044E+02  0.14793870202E+03  0.00000000000E+00 0.  1.
         -5    1    5    5    0  502  0.74202599122E+01 -0.12097225851E+03  0.76876041526E+02  0.14360140440E+03  0.47000000000E+01 0.  1.
</event>
<event>
12    1  0.9749377E-001  0.3939012E+03  0.7818608E-02  0.1045912E+00
         21   -1    0    0  501  502  0.00000000000E+00  0.00000000000E+00  0.55237279742E+03  0.55237279742E+03  0.00000000000E+00 0. -1.
         21   -1    0    0  502  503 -0.00000000000E+00 -0.00000000000E+00 -0.33228203558E+03  0.33228203558E+03  0.00000000000E+00 0.  1.
         -6    2    1    2    0  503 -0.29446794469E+03  0.25315311077E+03  0.16606749729E+03  0.45603152797E+03  0.17201300215E+03 0.  0.
        -24    2    3    3    0    0 -0.27677664568E+03  0.24091020920E+03  0.19203268072E+03  0.42198521466E+03  0.80943995672E+02 0.  0.
          6    2    1    2  501    0  0.29446794469E+03 -0.25315311077E+03  0.54023264548E+02  0.42862330502E+03  0.17320957410E+03 0.  0.
         24    2    5    5    0    0  0.27492788524E+03 -0.22315222123E+03 -0.70084975816E+00  0.36305893983E+03  0.80181336240E+02 0.  0.
         14    1    6    6    0    0  0.11252295318E+03 -0.14134358705E+03 -0.10321989603E+02  0.18095847054E+03  0.00000000000E+00 0. -1.
        -13    1    6    6    0    0  0.16240493206E+03 -0.81808634183E+02  0.96211398447E+01  0.18210046929E+03  0.00000000000E+00 0.  1.
          5    1    5    5  501    0  0.19540059450E+02 -0.30000889533E+02  0.54724114307E+02  0.65564365190E+02  0.47000000000E+01 0. -1.
         11    1    4    4    0    0 -0.17050269881E+03  0.15659421588E+03  0.76551062984E+02  0.24382982589E+03  0.00000000000E+00 0. -1.
        -12    1    4    4    0    0 -0.10627394687E+03  0.84315993320E+02  0.11548161774E+03  0.17815538877E+03  0.00000000000E+00 0.  1.
         -5    1    3    3    0  503 -0.17691299007E+02  0.12242901568E+02 -0.25965183433E+02  0.34046313311E+02  0.47000000000E+01 0.  1.
</event>
<event>
12    1  0.9749377E-001  0.2031822E+03  0.7818608E-02  0.1147082E+00
         21   -1    0    0  503  502  0.00000000000E+00  0.00000000000E+00  0.98692259294E+02  0.98692259294E+02  0.00000000000E+00 0.  1.
         21   -1    0    0  501  503 -0.00000000000E+00 -0.00000000000E+00 -0.24636705832E+04  0.24636705832E+04  0.00000000000E+00 0. -1.
          6    2    1    2  501    0 -0.44495834112E+02 -0.15812114517E+03 -0.61291345573E+02  0.24613798303E+03  0.17275734962E+03 0.  0.
         24    2    3    3    0    0  0.60449086826E+01 -0.39002200448E+02  0.23208939664E+02  0.91522078685E+02  0.79245968009E+02 0.  0.
         -6    2    1    2    0  502  0.44495834112E+02  0.15812114517E+03 -0.23036869784E+04  0.23162248595E+04  0.17590261406E+03 0.  0.
        -24    2    5    5    0    0  0.64184583123E+02  0.24856585429E+02 -0.90757289689E+03  0.91361881779E+03  0.79203980348E+02 0.  0.
         12    1    4    4    0    0  0.25191524867E+02 -0.11363439645E+02 -0.21899865583E+02  0.35261094683E+02  0.00000000000E+00 0. -1.
        -11    1    4    4    0    0 -0.19146616184E+02 -0.27638760803E+02  0.45108805247E+02  0.56260984002E+02  0.00000000000E+00 0.  1.
          5    1    3    3  501    0 -0.50540742794E+02 -0.11911894472E+03 -0.84500285237E+02  0.15461590435E+03  0.47000000000E+01 0. -1.
         11    1    6    6    0    0 -0.17747083429E+01  0.13844444503E+02 -0.52906231150E+03  0.52924639600E+03  0.00000000000E+00 0. -1.
        -12    1    6    6    0    0  0.65959291465E+02  0.11012140927E+02 -0.37851058539E+03  0.38437242179E+03  0.00000000000E+00 0.  1.
         -5    1    5    5    0  502 -0.19688749011E+02  0.13326455974E+03 -0.13961140815E+04  0.14026060417E+04  0.47000000000E+01 0.  1.
</event>
<event>
12    1  0.1040689E+000  0.6762476E+03  0.7818608E-02  0.9758737E-01
         21   -1    0    0  503  502  0.00000000000E+00  0.00000000000E+00  0.55485701098E+03  0.55485701098E+03  0.00000000000E+00 0. -1.
         21   -1    0    0  501  503 -0.00000000000E+00 -0.00000000000E+00 -0.96698045651E+03  0.96698045651E+03  0.00000000000E+00 0.  1.
          6    2    1    2  501    0 -0.87116417356E+02  0.66089623099E+03 -0.46531741964E+03  0.83139115326E+03  0.17412021822E+03 0.  0.
         24    2    3    3    0    0 -0.99675694728E+02  0.64363926219E+03 -0.40881990926E+03  0.77081395376E+03  0.53044218865E+02 0.  0.
         -6    2    1    2    0  502  0.87116417356E+02 -0.66089623099E+03  0.53193974117E+02  0.69044631423E+03  0.17179469039E+03 0.  0.
        -24    2    5    5    0    0  0.11454881650E+03 -0.54039805826E+03  0.80343910183E+02  0.56383053646E+03  0.79361433987E+02 0.  0.
         12    1    4    4    0    0 -0.53185125864E+02  0.27835515785E+03 -0.14923728474E+03  0.32028427790E+03  0.00000000000E+00 0. -1.
        -11    1    4    4    0    0 -0.46490568864E+02  0.36528410433E+03 -0.25958262453E+03  0.45052967586E+03  0.00000000000E+00 0.  1.
          5    1    3    3  501    0  0.12559277372E+02  0.17256968803E+02 -0.56497510381E+02  0.60577199503E+02  0.47000000000E+01 0. -1.
         11    1    6    6    0    0  0.47798347785E+02 -0.35690345091E+03  0.25378794117E+02  0.36098315544E+03  0.00000000000E+00 0. -1.
        -12    1    6    6    0    0  0.66750468712E+02 -0.18349460735E+03  0.54965116066E+02  0.20284738101E+03  0.00000000000E+00 0.  1.
         -5    1    5    5    0  502 -0.27432399141E+02 -0.12049817273E+03 -0.27149936066E+02  0.12661577777E+03  0.47000000000E+01 0.  1.
</event>
<event>
12    1  0.9749377E-001  0.5156295E+03  0.7818608E-02  0.1009778E+00
         21   -1    0    0  501  502  0.00000000000E+00  0.00000000000E+00  0.24449124732E+03  0.24449124732E+03  0.00000000000E+00 0. -1.
         21   -1    0    0  502  503 -0.00000000000E+00 -0.00000000000E+00 -0.12242329155E+04  0.12242329155E+04  0.00000000000E+00 0.  1.
         -6    2    1    2    0  503  0.38999612000E+03  0.31149775975E+03 -0.28105698688E+03  0.59701767742E+03  0.16825352697E+03 0.  0.
        -24    2    3    3    0    0  0.77250689104E+02  0.90533632741E+02 -0.59095777098E+02  0.15438496442E+03  0.78602790948E+02 0.  0.
          6    2    1    2  501    0 -0.38999612000E+03 -0.31149775975E+03 -0.69868468132E+03  0.87170648542E+03  0.15028002153E+03 0.  0.
         24    2    5    5    0    0 -0.31261252744E+03 -0.23150819764E+03 -0.45646339147E+03  0.60509854537E+03  0.80391442106E+02 0.  0.
         12    1    6    6    0    0 -0.18296615090E+03 -0.86037459491E+02 -0.24148736973E+03  0.31495270526E+03  0.00000000000E+00 0. -1.
        -11    1    6    6    0    0 -0.12964637654E+03 -0.14547073815E+03 -0.21497602175E+03  0.29014584011E+03  0.00000000000E+00 0.  1.
          5    1    5    5  501    0 -0.77383592558E+02 -0.79989562101E+02 -0.24222128985E+03  0.26660794005E+03  0.47000000000E+01 0. -1.
         13    1    4    4    0    0  0.84326594058E+02  0.98194301717E+02 -0.45387734325E+02  0.13716100679E+03  0.00000000000E+00 0. -1.
        -14    1    4    4    0    0 -0.70759049539E+01 -0.76606689755E+01 -0.13708042772E+02  0.17223957638E+02  0.00000000000E+00 0.  1.
         -5    1    3    3    0  503  0.31274543090E+03  0.22096412700E+03 -0.22196120978E+03  0.44263271300E+03  0.47000000000E+01 0.  1.
</event>
<event>
12    1  0.9749377E-001  0.2613420E+03  0.7818608E-02  0.1106340E+00
         21   -1    0    0  501  502  0.00000000000E+00  0.00000000000E+00  0.46170244957E+03  0.46170244957E+03  0.00000000000E+00 0.  1.
         21   -1    0    0  502  503 -0.00000000000E+00 -0.00000000000E+00 -0.24183541254E+03  0.24183541254E+03  0.00000000000E+00 0. -1.
         -6    2    1    2    0  503 -0.10435553187E+03  0.18238549183E+03  0.31378585185E+03  0.41470680378E+03  0.17136402077E+03 0.  0.
        -24    2    3    3    0    0 -0.75190321385E+02  0.39514999262E+02  0.94450562628E+02  0.15128196393E+03  0.82160235112E+02 0.  0.
          6    2    1    2  501    0  0.10435553187E+03 -0.18238549183E+03 -0.93918814822E+02  0.28883105834E+03  0.17449381599E+03 0.  0.
         24    2    5    5    0    0  0.11827158612E+03 -0.71263445765E+02 -0.53847155843E+02  0.16979495650E+03  0.82850252100E+02 0.  0.
         12    1    6    6    0    0 -0.19016869195E+01 -0.16179073902E+02  0.13750726740E+02  0.21318098681E+02  0.00000000000E+00 0. -1.
        -11    1    6    6    0    0  0.12017327304E+03 -0.55084371863E+02 -0.67597882583E+02  0.14847685782E+03  0.00000000000E+00 0.  1.
          5    1    5    5  501    0 -0.13916054253E+02 -0.11112204607E+03 -0.40071658978E+02  0.11903610184E+03  0.47000000000E+01 0. -1.
         11    1    4    4    0    0  0.13439048366E+02  0.22139610549E+02  0.33409111656E+02  0.42272202662E+02  0.00000000000E+00 0. -1.
        -12    1    4    4    0    0 -0.88629369751E+02  0.17375388713E+02  0.61041450972E+02  0.10900976127E+03  0.00000000000E+00 0.  1.
         -5    1    3    3    0  503 -0.29165210485E+02  0.14287049257E+03  0.21933528922E+03  0.26342483984E+03  0.47000000000E+01 0.  1.
</event>
<event>
12    1  0.9749377E-001  0.3004936E+03  0.7818608E-02  0.1084994E+00
         21   -1    0    0  503  502  0.00000000000E+00  0.00000000000E+00  0.26521017178E+03  0.26521017178E+03  0.00000000000E+00 0.  1.
         21   -1    0    0  501  503 -0.00000000000E+00 -0.00000000000E+00 -0.10927452842E+04  0.10927452842E+04  0.00000000000E+00 0. -1.
          6    2    1    2  501    0  0.16745046272E+03  0.23607805831E+03  0.11688521472E+03  0.35718777042E+03  0.17363306955E+03 0.  0.
         24    2    3    3    0    0  0.15230613268E+03  0.23430151997E+03  0.14491280863E+03  0.32493652484E+03  0.80558443112E+02 0.  0.
         -6    2    1    2    0  502 -0.16745046272E+03 -0.23607805831E+03 -0.94442032712E+03  0.10007676856E+04  0.16072865046E+03 0.  0.
        -24    2    5    5    0    0 -0.17336561358E+03 -0.20072957281E+03 -0.71852387763E+03  0.77199749447E+03  0.96724202559E+02 0.  0.
         12    1    4    4    0    0  0.69917073115E+02  0.12887830456E+03  0.11857980675E+03  0.18857143227E+03  0.00000000000E+00 0. -1.
        -11    1    4    4    0    0  0.82389059568E+02  0.10542321542E+03  0.26333001883E+02  0.13636509258E+03  0.00000000000E+00 0.  1.
          5    1    3    3  501    0  0.15144330040E+02  0.17765383336E+01 -0.28027593915E+02  0.32251245580E+02  0.47000000000E+01 0. -1.
         13    1    6    6    0    0 -0.49073962956E+02 -0.30831410839E+02 -0.27515483147E+03  0.28119212474E+03  0.00000000000E+00 0. -1.
        -14    1    6    6    0    0 -0.12429165062E+03 -0.16989816197E+03 -0.44336904616E+03  0.49080536972E+03  0.00000000000E+00 0.  1.
         -5    1    5    5    0  502  0.59151508551E+01 -0.35348485494E+02 -0.22589644949E+03  0.22877019108E+03  0.47000000000E+01 0.  1.
</event>
<event>
12    1  0.9749377E-001  0.7797890E+03  0.7818608E-02  0.9589741E-01
         21   -1    0    0  503  502  0.00000000000E+00  0.00000000000E+00  0.41855544140E+03  0.41855544140E+03  0.00000000000E+00 0.  1.
         21   -1    0    0  501  503 -0.00000000000E+00 -0.00000000000E+00 -0.22240123090E+04  0.22240123090E+04  0.00000000000E+00 0. -1.
          6    2    1    2  501    0 -0.74465744611E+03  0.19352943882E+03 -0.14137190257E+03  0.80094568300E+03  0.17192910323E+03 0.  0.
         24    2    3    3    0    0 -0.23333228479E+03  0.72392898607E+02  0.16915396898E+00  0.25671830160E+03  0.78864255970E+02 0.  0.
         -6    2    1    2    0  502  0.74465744611E+03 -0.19352943882E+03 -0.16640849650E+04  0.18416220674E+04  0.17442681150E+03 0.  0.
        -24    2    5    5    0    0  0.53361434140E+03 -0.69460050018E+02 -0.11594791912E+04  0.12807464285E+04  0.79689745306E+02 0.  0.
         14    1    4    4    0    0 -0.28811933212E+02  0.23491495121E+02  0.25254777964E+02  0.44941980914E+02  0.00000000000E+00 0. -1.
        -13    1    4    4    0    0 -0.20452035158E+03  0.48901403487E+02 -0.25085623995E+02  0.21177632069E+03  0.00000000000E+00 0.  1.
          5    1    3    3  501    0 -0.51132516132E+03  0.12113654021E+03 -0.14154105654E+03  0.54422738139E+03  0.47000000000E+01 0. -1.
         13    1    6    6    0    0  0.46906152769E+03 -0.81519621508E+02 -0.10533055723E+04  0.11559051838E+04  0.00000000000E+00 0. -1.
        -14    1    6    6    0    0  0.64552813715E+02  0.12059571490E+02 -0.10617361890E+03  0.12484124468E+03  0.00000000000E+00 0.  1.
         -5    1    5    5    0  502  0.21104310471E+03 -0.12406938880E+03 -0.50460577382E+03  0.56087563885E+03  0.47000000000E+01 0.  1.
</event>
<event>
12    1  0.9749377E-001  0.1294244E+04  0.7818608E-02  0.9034142E-01
         21   -1    0    0  503  502  0.00000000000E+00  0.00000000000E+00  0.91495922797E+03  0.91495922797E+03  0.00000000000E+00 0. -1.
         21   -1    0    0  501  503 -0.00000000000E+00 -0.00000000000E+00 -0.19016837973E+04  0.19016837973E+04  0.00000000000E+00 0.  1.
          6    2    1    2  501    0  0.34183536234E+03 -0.12396825747E+04 -0.74747175510E+03  0.14972207869E+04  0.17114835386E+03 0.  0.
         24    2    3    3    0    0  0.72119330320E+02 -0.30987954985E+03 -0.16446341951E+03  0.36708751495E+03  0.80489092774E+02 0.  0.
         -6    2    1    2    0  502 -0.34183536234E+03  0.12396825747E+04 -0.23925281423E+03  0.13194222384E+04  0.17311508616E+03 0.  0.
        -24    2    5    5    0    0 -0.33939578572E+03  0.10988296673E+04 -0.18101171795E+03  0.11669112278E+04  0.79375275678E+02 0.  0.
         14    1    4    4    0    0  0.23847530622E+01 -0.18608095313E+03 -0.93455905590E+02  0.20824460246E+03  0.00000000000E+00 0. -1.
        -13    1    4    4    0    0  0.69734577258E+02 -0.12379859672E+03 -0.71007513922E+02  0.15884291249E+03  0.00000000000E+00 0.  1.
          5    1    3    3  501    0  0.26971603202E+03 -0.92980302486E+03 -0.58300833559E+03  0.11301332719E+04  0.47000000000E+01 0. -1.
         13    1    6    6    0    0 -0.86707657852E+02  0.36256364954E+03 -0.30136773352E+02  0.37400380079E+03  0.00000000000E+00 0. -1.
        -14    1    6    6    0    0 -0.25268812786E+03  0.73626601780E+03 -0.15087494460E+03  0.79290742703E+03  0.00000000000E+00 0.  1.
         -5    1    5    5    0  502 -0.24395766195E+01  0.14085290736E+03 -0.58241096282E+02  0.15251101056E+03  0.47000000000E+01 0.  1.
</event>
<event>
12    1  0.9749377E-001  0.3019017E+03  0.7818608E-02  0.1084294E+00
         21   -1    0    0  501  502  0.00000000000E+00  0.00000000000E+00  0.16705000543E+03  0.16705000543E+03  0.00000000000E+00 0.  1.
         21   -1    0    0  502  503 -0.00000000000E+00 -0.00000000000E+00 -0.62784000876E+03  0.62784000876E+03  0.00000000000E+00 0. -1.
         -6    2    1    2    0  503  0.14632122707E+03 -0.23139867224E+03 -0.20698126921E+03  0.38374824494E+03  0.17165728264E+03 0.  0.
        -24    2    3    3    0    0  0.74127727592E+02 -0.77921153475E+02 -0.15784592458E+03  0.20710277450E+03  0.80059959681E+02 0.  0.
          6    2    1    2  501    0 -0.14632122707E+03  0.23139867224E+03 -0.25380873413E+03  0.41114176926E+03  0.17223075772E+03 0.  0.
         24    2    5    5    0    0 -0.71092470832E+02  0.98915085555E+02 -0.48458237093E+02  0.15540326387E+03  0.83448427909E+02 0.  0.
         12    1    6    6    0    0 -0.14507370685E+02 -0.14734660049E+02 -0.59079641809E+01  0.21505302874E+02  0.00000000000E+00 0. -1.
        -11    1    6    6    0    0 -0.56585100147E+02  0.11364974560E+03 -0.42550272912E+02  0.13389796100E+03  0.00000000000E+00 0.  1.
          5    1    5    5  501    0 -0.75228756234E+02  0.13248358669E+03 -0.20535049703E+03  0.25573850539E+03  0.47000000000E+01 0. -1.
         11    1    4    4    0    0  0.40822197211E+02  0.82836349896E+01 -0.49973914633E+02  0.65057378809E+02  0.00000000000E+00 0. -1.
        -12    1    4    4    0    0  0.33305530381E+02 -0.86204788465E+02 -0.10787200994E+03  0.14204539569E+03  0.00000000000E+00 0.  1.
         -5    1    3    3    0  503  0.72193499474E+02 -0.15347751877E+03 -0.49135344630E+02  0.17664547043E+03  0.47000000000E+01 0.  1.
</event>
<event>
12    1  0.9749377E-001  0.3194937E+03  0.7818608E-02  0.1075883E+00
         21   -1    0    0  501  502  0.00000000000E+00  0.00000000000E+00  0.14608878639E+04  0.14608878639E+04  0.00000000000E+00 0.  1.
         21   -1    0    0  502  503 -0.00000000000E+00 -0.00000000000E+00 -0.78223010588E+02  0.78223010588E+02  0.00000000000E+00 0. -1.
         -6    2    1    2    0  503 -0.27959709341E+03 -0.49901993964E+02  0.83656508415E+03  0.89993134092E+03  0.17137833790E+03 0.  0.
        -24    2    3    3    0    0 -0.40249918380E+02 -0.11002195089E+02  0.25247447259E+03  0.26748830233E+03  0.77881501956E+02 0.  0.
          6    2    1    2  501    0  0.27959709341E+03  0.49901993964E+02  0.54609976913E+03  0.63917953354E+03  0.17222303739E+03 0.  0.
         24    2    5    5    0    0  0.47066757606E+02  0.33050836637E+02  0.14654871060E+03  0.17655932544E+03  0.79931429028E+02 0.  0.
         14    1    6    6    0    0  0.21663188558E+02 -0.13099363602E+02  0.53793640320E+01  0.25880970280E+02  0.00000000000E+00 0. -1.
        -13    1    6    6    0    0  0.25403569048E+02  0.46150200239E+02  0.14116934657E+03  0.15067835516E+03  0.00000000000E+00 0.  1.
          5    1    5    5  501    0  0.23253033580E+03  0.16851157327E+02  0.39955105853E+03  0.46262020810E+03  0.47000000000E+01 0. -1.
         11    1    4    4    0    0  0.67162834433E+01 -0.32808758429E+02  0.66744220145E+02  0.74674721397E+02  0.00000000000E+00 0. -1.
        -12    1    4    4    0    0 -0.46966201823E+02  0.21806563340E+02  0.18573025245E+03  0.19281358094E+03  0.00000000000E+00 0.  1.
         -5    1    3    3    0  503 -0.23934717503E+03 -0.38899798875E+02  0.58409061156E+03  0.63244303859E+03  0.47000000000E+01 0.  1.
</event>
<event>
12    1  0.9749377E-001  0.1267426E+03  0.7818608E-02  0.1232371E+00
         21   -1    0    0  501  502  0.00000000000E+00  0.00000000000E+00  0.26941799797E+03  0.26941799797E+03  0.00000000000E+00 0.  1.
         21   -1    0    0  502  503 -0.00000000000E+00 -0.00000000000E+00 -0.17563425195E+03  0.17563425195E+03  0.00000000000E+00 0.  1.
         -6    2    1    2    0  503 -0.20072136034E+02  0.23505886968E+02  0.17981497688E+03  0.25068258696E+03  0.17190961615E+03 0.  0.
        -24    2    3    3    0    0  0.42602707628E+02 -0.55731516264E+01  0.14310033412E+03  0.17230030894E+03  0.85811654916E+02 0.  0.
          6    2    1    2  501    0  0.20072136034E+02 -0.23505886968E+02 -0.86031230857E+02  0.19436966297E+03  0.17153068481E+03 0.  0.
         24    2    5    5    0    0 -0.85998393447E+00  0.16424448142E+02  0.15190229080E+02  0.83462227418E+02  0.80403347424E+02 0.  0.
         12    1    6    6    0    0 -0.21083235166E+02  0.17758177396E+02 -0.25787022692E+02  0.37746870186E+02  0.00000000000E+00 0. -1.
        -11    1    6    6    0    0  0.20223251232E+02 -0.13337292540E+01  0.40977251772E+02  0.45715357233E+02  0.00000000000E+00 0.  1.
          5    1    5    5  501    0  0.20932119969E+02 -0.39930335110E+02 -0.10122145994E+03  0.11090743555E+03  0.47000000000E+01 0. -1.
         11    1    4    4    0    0  0.45943014320E+02  0.30305679145E+02  0.58371292850E+02  0.80227193533E+02  0.00000000000E+00 0. -1.
        -12    1    4    4    0    0 -0.33403066913E+01 -0.35878830771E+02  0.84729041271E+02  0.92073115408E+02  0.00000000000E+00 0.  1.
         -5    1    3    3    0  503 -0.62674843663E+02  0.29079038595E+02  0.36714642760E+02  0.78382278014E+02  0.47000000000E+01 0.  1.
</event>
<event>
12    1  0.9749377E-001  0.1226051E+04  0.7818608E-02  0.9090355E-01
         21   -1    0    0  501  502  0.00000000000E+00  0.00000000000E+00  0.10782080798E+04  0.10782080798E+04  0.00000000000E+00 0.  1.
         21   -1    0    0  502  503 -0.00000000000E+00 -0.00000000000E+00 -0.14345446389E+04  0.14345446389E+04  0.00000000000E+00 0. -1.
         -6    2    1    2    0  503  0.86843929797E+03  0.85443591092E+03 -0.35927763855E+03  0.12817557186E+04  0.17195860089E+03 0.  0.
        -24    2    3    3    0    0  0.59495622574E+03  0.52448461107E+03 -0.28674879417E+03  0.84707954677E+03  0.79131977147E+02 0.  0.
          6    2    1    2  501    0 -0.86843929797E+03 -0.85443591092E+03  0.29410794966E+01  0.12309970001E+04  0.17634461750E+03 0.  0.
         24    2    5    5    0    0 -0.86384809850E+03 -0.81304721950E+03  0.63208252185E+01  0.11889539796E+04  0.79323983375E+02 0.  0.
         12    1    6    6    0    0 -0.57167862145E+03 -0.55254618955E+03 -0.31552491659E+02  0.79568793979E+03  0.00000000000E+00 0. -1.
        -11    1    6    6    0    0 -0.29216947706E+03 -0.26050102995E+03  0.37873316878E+02  0.39326603980E+03  0.00000000000E+00 0.  1.
          5    1    5    5  501    0 -0.45911994643E+01 -0.41388691417E+02 -0.33797457218E+01  0.42043020477E+02  0.47000000000E+01 0. -1.
         13    1    4    4    0    0  0.15282278236E+03  0.16850172254E+03 -0.55520489707E+02  0.23415840382E+03  0.00000000000E+00 0. -1.
        -14    1    4    4    0    0  0.44213344339E+03  0.35598288853E+03 -0.23122830447E+03  0.61292114295E+03  0.00000000000E+00 0.  1.
         -5    1    3    3    0  503  0.27348307223E+03  0.32995129985E+03 -0.72528844381E+02  0.43467617180E+03  0.47000000000E+01 0.  1.
</event>
<event>
12    1  0.9749377E-001  0.2133151E+03  0.7818608E-02  0.1138967E+00
         21   -1    0    0  501  502  0.00000000000E+00  0.00000000000E+00  0.56931258442E+03  0.56931258442E+03  0.00000000000E+00 0. -1.
         21   -1    0    0  502  503 -0.00000000000E+00 -0.00000000000E+00 -0.11451692091E+03  0.11451692091E+03  0.00000000000E+00 0.  1.
         -6    2    1    2    0  503 -0.18507098792E+03 -0.32435793786E+02  0.19577973550E+03  0.32039691633E+03  0.17035588593E+03 0.  0.
        -24    2    3    3    0    0 -0.16770677514E+03 -0.41748538075E+01  0.84318809818E+02  0.20401038546E+03  0.79797141886E+02 0.  0.
          6    2    1    2  501    0  0.18507098792E+03  0.32435793786E+02  0.25901592802E+03  0.36343258900E+03  0.17230973418E+03 0.  0.
         24    2    5    5    0    0  0.14339799580E+03  0.34280374334E+02  0.27216303900E+03  0.31944421240E+03  0.78954137140E+02 0.  0.
         14    1    6    6    0    0  0.13464312388E+03  0.38059234881E+01  0.20682967205E+03  0.24682335607E+03  0.00000000000E+00 0. -1.
        -13    1    6    6    0    0  0.87548719266E+01  0.30474450846E+02  0.65333366947E+02  0.72620856325E+02  0.00000000000E+00 0.  1.
          5    1    5    5  501    0  0.41672992117E+02 -0.18445805487E+01 -0.13147110978E+02  0.43988376607E+02  0.47000000000E+01 0. -1.
         13    1    4    4    0    0 -0.52948975057E+02 -0.37925276238E+02  0.19645230887E+02  0.68028344342E+02  0.00000000000E+00 0. -1.
        -14    1    4    4    0    0 -0.11475780008E+03  0.33750422430E+02  0.64673578931E+02  0.13598204112E+03  0.00000000000E+00 0.  1.
         -5    1    3    3    0  503 -0.17364212781E+02 -0.28260939978E+02  0.11146092568E+03  0.11638653087E+03  0.47000000000E+01 0.  1.
</event>
<event>
12    1  0.9749377E-001  0.2805410E+03  0.7818608E-02  0.1095394E+00
         21   -1    0    0  501  502  0.00000000000E+00  0.00000000000E+00  0.12863394473E+03  0.12863394473E+03  0.00000000000E+00 0.  1.
         21   -1    0    0  502  503 -0.00000000000E+00 -0.00000000000E+00 -0.14156559014E+04  0.14156559014E+04  0.00000000000E+00 0. -1.
         -6    2    1    2    0  503 -0.11821736882E+03  0.20225083667E+03 -0.78558040311E+02  0.30156377129E+03  0.17288318376E+03 0.  0.
        -24    2    3    3    0    0 -0.11327051824E+02  0.12841991865E+03 -0.39214924901E+02  0.16574582308E+03  0.96508496646E+02 0.  0.
          6    2    1    2  501    0  0.11821736882E+03 -0.20225083667E+03 -0.12084639164E+04  0.12427260749E+04  0.17059399967E+03 0.  0.
         24    2    5    5    0    0  0.11864715748E+03 -0.73468942874E+02 -0.61874082656E+03  0.63908680050E+03  0.78210578391E+02 0.  0.
         12    1    6    6    0    0  0.75572952887E+02 -0.63525949237E+02 -0.53849237105E+03  0.54746767130E+03  0.00000000000E+00 0. -1.
        -11    1    6    6    0    0  0.43074204595E+02 -0.99429936375E+01 -0.80248455510E+02  0.91619129202E+02  0.00000000000E+00 0.  1.
          5    1    5    5  501    0 -0.42978865888E+00 -0.12878189380E+03 -0.58972308982E+03  0.60363927437E+03  0.47000000000E+01 0. -1.
         11    1    4    4    0    0  0.41445045861E+02  0.58055984286E+02 -0.54726885762E+01  0.71541173167E+02  0.00000000000E+00 0. -1.
        -12    1    4    4    0    0 -0.52772097685E+02  0.70363934366E+02 -0.33742236325E+02  0.94204649916E+02  0.00000000000E+00 0.  1.
         -5    1    3    3    0  503 -0.10689031700E+03  0.73830918021E+02 -0.39343115410E+02  0.13581794820E+03  0.47000000000E+01 0.  1.
</event>
<event>
12    1  0.9749377E-001  0.9480255E+03  0.7818608E-02  0.9367461E-01
         21   -1    0    0  501  502  0.00000000000E+00  0.00000000000E+00  0.32215409931E+04  0.32215409931E+04  0.00000000000E+00 0.  1.
         21   -1    0    0  502  503 -0.00000000000E+00 -0.00000000000E+00 -0.28267093279E+03  0.28267093279E+03  0.00000000000E+00 0. -1.
         -6    2    1    2    0  503 -0.69096772900E+03 -0.62620587145E+03  0.16661294898E+04  0.19170567307E+04  0.17189774846E+03 0.  0.
        -24    2    3    3    0    0 -0.16049071488E+03 -0.13152611906E+03  0.38984970978E+03  0.44905601992E+03  0.81314963252E+02 0.  0.
          6    2    1    2  501    0  0.69096772900E+03  0.62620587145E+03  0.12727405705E+04  0.15871551952E+04  0.17211292186E+03 0.  0.
         24    2    5    5    0    0  0.27108854528E+03  0.32957900984E+03  0.58105342109E+03  0.72533199603E+03  0.79825454582E+02 0.  0.
         12    1    6    6    0    0  0.24146343395E+03  0.32376458233E+03  0.54376701215E+03  0.67735563643E+03  0.00000000000E+00 0. -1.
        -11    1    6    6    0    0  0.29625111333E+02  0.58144275086E+01  0.37286408936E+02  0.47976359596E+02  0.00000000000E+00 0.  1.
          5    1    5    5  501    0  0.41987918372E+03  0.29662686161E+03  0.69168714941E+03  0.86182319916E+03  0.47000000000E+01 0. -1.
         11    1    4    4    0    0 -0.72116661454E+02 -0.11002944394E+03  0.24286025968E+03  0.27620354292E+03  0.00000000000E+00 0. -1.
        -12    1    4    4    0    0 -0.88374053429E+02 -0.21496675117E+02  0.14698945011E+03  0.17285247699E+03  0.00000000000E+00 0.  1.
         -5    1    3    3    0  503 -0.53047701411E+03 -0.49467975239E+03  0.12762797800E+04  0.14680007108E+04  0.47000000000E+01 0.  1.
</event>
<event>
12    1  0.9749377E-001  0.1327861E+04  0.7818608E-02  0.9007758E-01
         21   -1    0    0  501  502  0.00000000000E+00  0.00000000000E+00  0.10807611144E+04  0.10807611144E+04  0.00000000000E+00 0.  1.
         21   -1    0    0  502  503 -0.00000000000E+00 -0.00000000000E+00 -0.18227829248E+04  0.18227829248E+04  0.00000000000E+00 0. -1.
         -6    2    1    2    0  503  0.11167672376E+04 -0.70228753638E+03  0.92023901508E+02  0.13333754699E+04  0.17042563903E+03 0.  0.
        -24    2    3    3    0    0  0.53522525570E+03 -0.25885273966E+03  0.42520830405E+02  0.60036923544E+03  0.71863639429E+02 0.  0.
          6    2    1    2  501    0 -0.11167672376E+04  0.70228753638E+03 -0.83404571189E+03  0.15701685693E+04  0.17152329235E+03 0.  0.
         24    2    5    5    0    0 -0.77045536740E+03  0.42963812204E+03 -0.61244492789E+03  0.10768141206E+04  0.79053599548E+02 0.  0.
         12    1    6    6    0    0 -0.70469800389E+03  0.36687161691E+03 -0.55796660719E+03  0.97083510172E+03  0.00000000000E+00 0. -1.
        -11    1    6    6    0    0 -0.65757363503E+02  0.62766505123E+02 -0.54478320698E+02  0.10597901890E+03  0.00000000000E+00 0.  1.
          5    1    5    5  501    0 -0.34631187025E+03  0.27264941434E+03 -0.22160078400E+03  0.49335444874E+03  0.47000000000E+01 0. -1.
         13    1    4    4    0    0  0.24443765199E+03 -0.15503381481E+03  0.34440791206E+02  0.29149857211E+03  0.00000000000E+00 0. -1.
        -14    1    4    4    0    0  0.29078760371E+03 -0.10381892485E+03  0.80800391988E+01  0.30887066332E+03  0.00000000000E+00 0.  1.
         -5    1    3    3    0  503  0.58154198194E+03 -0.44343479672E+03  0.49503071103E+02  0.73300623446E+03  0.47000000000E+01 0.  1.
</event>
<event>
12    1  0.9749377E-001  0.3296171E+03  0.7818608E-02  0.1071306E+00
         21   -1    0    0  503  502  0.00000000000E+00  0.00000000000E+00  0.55964494628E+02  0.55964494628E+02  0.00000000000E+00 0.  1.
         21   -1    0    0  501  503 -0.00000000000E+00 -0.00000000000E+00 -0.22873790417E+04  0.22873790417E+04  0.00000000000E+00 0. -1.
          6    2    1    2  501    0 -0.29019587029E+03  0.66983893174E+02 -0.77584465279E+03  0.84883643299E+03  0.17288111415E+03 0.  0.
         24    2    3    3    0    0 -0.27594642936E+03  0.93017636048E+02 -0.75262570817E+03  0.81086260353E+03  0.79082189556E+02 0.  0.
         -6    2    1    2    0  502  0.29019587029E+03 -0.66983893174E+02 -0.14555698942E+04  0.14945071033E+04  0.16176303566E+03 0.  0.
        -24    2    5    5    0    0  0.87018191752E+02 -0.47865189969E+02 -0.71762887068E+03  0.72885330547E+03  0.79829209929E+02 0.  0.
         12    1    4    4    0    0 -0.24546197345E+03  0.10256921164E+03 -0.70492344797E+03  0.75345145237E+03  0.00000000000E+00 0. -1.
        -11    1    4    4    0    0 -0.30484455913E+02 -0.95515755903E+01 -0.47702260208E+02  0.57411151160E+02  0.00000000000E+00 0.  1.
          5    1    3    3  501    0 -0.14249440928E+02 -0.26033742874E+02 -0.23218944617E+02  0.37973829461E+02  0.47000000000E+01 0. -1.
         13    1    6    6    0    0 -0.13668698542E+02  0.34128965755E+01 -0.97806752667E+02  0.98816203378E+02  0.00000000000E+00 0. -1.
        -14    1    6    6    0    0  0.10068689029E+03 -0.51278086544E+02 -0.61982211801E+03  0.63003710209E+03  0.00000000000E+00 0.  1.
         -5    1    5    5    0  502  0.20317767854E+03 -0.19118703206E+02 -0.73794102356E+03  0.76565379783E+03  0.47000000000E+01 0.  1.
</event>
<event>
12    1  0.9749377E-001  0.7802736E+03  0.7818608E-02  0.9589017E-01
         21   -1    0    0  503  502  0.00000000000E+00  0.00000000000E+00  0.61393919658E+03  0.61393919658E+03  0.00000000000E+00 0.  1.
         21   -1    0    0  501  503 -0.00000000000E+00 -0.00000000000E+00 -0.19092774132E+04  0.19092774132E+04  0.00000000000E+00 0. -1.
          6    2    1    2  501    0 -0.28484479246E+03 -0.71663393972E+03 -0.15100610148E+04  0.17032531888E+04  0.16151283996E+03 0.  0.
         24    2    3    3    0    0 -0.22365855313E+03 -0.63172939921E+03 -0.12086439605E+04  0.13841499649E+04  0.77108494559E+02 0.  0.
         -6    2    1    2    0  502  0.28484479246E+03  0.71663393972E+03  0.21472279818E+03  0.81996342095E+03  0.17757638436E+03 0.  0.
        -24    2    5    5    0    0  0.29813067308E+03  0.68166899128E+03  0.22411990656E+03  0.78111167852E+03  0.79694478512E+02 0.  0.
         12    1    4    4    0    0 -0.14588537972E+03 -0.30636643653E+03 -0.57668684348E+03  0.66911183885E+03  0.00000000000E+00 0. -1.
        -11    1    4    4    0    0 -0.77773173412E+02 -0.32536296268E+03 -0.63195711703E+03  0.71503812608E+03  0.00000000000E+00 0.  1.
          5    1    3    3  501    0 -0.61186239323E+02 -0.84904540511E+02 -0.30141705425E+03  0.31910322385E+03  0.47000000000E+01 0. -1.
         13    1    6    6    0    0  0.11063135707E+03  0.23147313598E+03  0.39106297997E+02  0.25951572667E+03  0.00000000000E+00 0. -1.
        -14    1    6    6    0    0  0.18749931601E+03  0.45019585530E+03  0.18501360856E+03  0.52159595185E+03  0.00000000000E+00 0.  1.
         -5    1    5    5    0  502 -0.13285880626E+02  0.34964948444E+02 -0.93971083748E+01  0.38851742425E+02  0.47000000000E+01 0.  1.
</event>
<event>
12    1  0.9749377E-001  0.2038822E+03  0.7818608E-02  0.1146504E+00
         21   -1    0    0  503  502  0.00000000000E+00  0.00000000000E+00  0.29117040794E+03  0.29117040794E+03  0.00000000000E+00 0. -1.
         21   -1    0    0  501  503 -0.00000000000E+00 -0.00000000000E+00 -0.21211640582E+03  0.21211640582E+03  0.00000000000E+00 0.  1.
          6    2    1    2  501    0 -0.15312373942E+03  0.58715480242E+01  0.13476331811E+03  0.26639049483E+03  0.17123489475E+03 0.  0.
         24    2    3    3    0    0 -0.17496876480E+02  0.22656162222E+01  0.10606471322E+02  0.82421309103E+02  0.79809155220E+02 0.  0.
         -6    2    1    2    0  502  0.15312373942E+03 -0.58715480242E+01 -0.55709315982E+02  0.23689631892E+03  0.17185745077E+03 0.  0.
        -24    2    5    5    0    0  0.69796415495E+02  0.34641355711E+02 -0.85454325554E+02  0.13947150753E+03  0.77963430628E+02 0.  0.
         14    1    4    4    0    0  0.14959379514E+02 -0.28791829808E+02 -0.85988426706E+01  0.33566241887E+02  0.00000000000E+00 0. -1.
        -13    1    4    4    0    0 -0.32456255994E+02  0.31057446031E+02  0.19205313993E+02  0.48855067216E+02  0.00000000000E+00 0.  1.
          5    1    3    3  501    0 -0.13562686294E+03  0.36059318021E+01  0.12415684679E+03  0.18396918573E+03  0.47000000000E+01 0. -1.
         11    1    6    6    0    0  0.73342239424E+02  0.66399901104E+01 -0.83269689507E+02  0.11116211019E+03  0.00000000000E+00 0. -1.
        -12    1    6    6    0    0 -0.35458239283E+01  0.28001365600E+02 -0.21846360470E+01  0.28309397335E+02  0.00000000000E+00 0.  1.
         -5    1    5    5    0  502  0.83327323921E+02 -0.40512903735E+02  0.29745009572E+02  0.97424811395E+02  0.47000000000E+01 0.  1.
</event>
<event>
12    1  0.9749377E-001  0.8552178E+03  0.7818608E-02  0.9483360E-01
         21   -1    0    0  503  502  0.00000000000E+00  0.00000000000E+00  0.11707558401E+04  0.11707558401E+04  0.00000000000E+00 0. -1.
         21   -1    0    0  501  503 -0.00000000000E+00 -0.00000000000E+00 -0.87001646891E+03  0.87001646891E+03  0.00000000000E+00 0.  1.
          6    2    1    2  501    0  0.40397725201E+03  0.74404371276E+03 -0.37692300971E+03  0.94238613113E+03  0.17094443031E+03 0.  0.
         24    2    3    3    0    0  0.41715739872E+03  0.71733868230E+03 -0.36538536339E+03  0.91010483311E+03  0.78671869425E+02 0.  0.
         -6    2    1    2    0  502 -0.40397725201E+03 -0.74404371276E+03  0.67766238094E+03  0.10983861779E+04  0.17443401812E+03 0.  0.
        -24    2    5    5    0    0 -0.26037872821E+03 -0.52500523903E+03  0.54708924847E+03  0.80569210226E+03  0.80034584585E+02 0.  0.
         14    1    4    4    0    0  0.13463720559E+03  0.17509076755E+03 -0.75356956850E+02  0.23337228832E+03  0.00000000000E+00 0. -1.
        -13    1    4    4    0    0  0.28252019314E+03  0.54224791475E+03 -0.29002840654E+03  0.67673254480E+03  0.00000000000E+00 0.  1.
          5    1    3    3  501    0 -0.13180146709E+02  0.26705030461E+02 -0.11537646315E+02  0.32281298017E+02  0.47000000000E+01 0. -1.
         13    1    6    6    0    0 -0.10145902234E+03 -0.20544029191E+03  0.16177411873E+03  0.28048264161E+03  0.00000000000E+00 0. -1.
        -14    1    6    6    0    0 -0.15891970587E+03 -0.31956494712E+03  0.38531512974E+03  0.52520946064E+03  0.00000000000E+00 0.  1.
         -5    1    5    5    0  502 -0.14359852380E+03 -0.21903847373E+03  0.13057313248E+03  0.29269407567E+03  0.47000000000E+01 0.  1.
</event>
<event>
12    1  0.9749377E-001  0.5098936E+03  0.7818608E-02  0.1011228E+00
         21   -1    0    0  501  502  0.00000000000E+00  0.00000000000E+00  0.77563074140E+03  0.77563074140E+03  0.00000000000E+00 0. -1.
         21   -1    0    0  502  503 -0.00000000000E+00 -0.00000000000E+00 -0.35494883459E+03  0.35494883459E+03  0.00000000000E+00 0.  1.
         -6    2    1    2    0  503 -0.42466701661E+03  0.25487727626E+03  0.18777294114E+03  0.55689147141E+03  0.17194456244E+03 0.  0.
        -24    2    3    3    0    0 -0.30531871177E+03  0.23440489078E+03  0.95630300675E+02  0.40465647994E+03  0.80228073471E+02 0.  0.
          6    2    1    2  501    0  0.42466701661E+03 -0.25487727626E+03  0.23290896568E+03  0.57368810458E+03  0.17195044080E+03 0.  0.
         24    2    5    5    0    0  0.34345744773E+03 -0.23288869673E+03  0.13313660983E+03  0.44309291057E+03  0.80036285854E+02 0.  0.
         12    1    6    6    0    0  0.40300710979E+02 -0.59848354713E+02  0.94849787942E+01  0.72773193485E+02  0.00000000000E+00 0. -1.
        -11    1    6    6    0    0  0.30315673675E+03 -0.17304034201E+03  0.12365163103E+03  0.37031971708E+03  0.00000000000E+00 0.  1.
          5    1    5    5  501    0  0.81209568879E+02 -0.21988579538E+02  0.99772355850E+02  0.13059519401E+03  0.47000000000E+01 0. -1.
         13    1    4    4    0    0 -0.19244377256E+03  0.97651781527E+02  0.48616291025E+02  0.22121035189E+03  0.00000000000E+00 0. -1.
        -14    1    4    4    0    0 -0.11287493921E+03  0.13675310925E+03  0.47014009650E+02  0.18344612805E+03  0.00000000000E+00 0.  1.
         -5    1    3    3    0  503 -0.11934830484E+03  0.20472385485E+02  0.92142640466E+02  0.15223499147E+03  0.47000000000E+01 0.  1.
</event>
<event>
12    1  0.9749377E-001  0.2416003E+03  0.7818608E-02  0.1118731E+00
         21   -1    0    0  501  502  0.00000000000E+00  0.00000000000E+00  0.81221654719E+02  0.81221654719E+02  0.00000000000E+00 0.  1.
         21   -1    0    0  502  503 -0.00000000000E+00 -0.00000000000E+00 -0.97224113617E+03  0.97224113617E+03  0.00000000000E+00 0. -1.
         -6    2    1    2    0  503 -0.16996853744E+03 -0.11077302900E+03 -0.27758259777E+03  0.38465990308E+03  0.17248528858E+03 0.  0.
        -24    2    3    3    0    0 -0.18202960013E+03 -0.11600784478E+03 -0.19707800295E+03  0.30295340201E+03  0.79677030363E+02 0.  0.
          6    2    1    2  501    0  0.16996853744E+03  0.11077302900E+03 -0.61343688368E+03  0.66880288781E+03  0.17272094492E+03 0.  0.
         24    2    5    5    0    0  0.87462704459E+02  0.12470475116E+03 -0.49375544166E+03  0.52269661511E+03  0.78843615146E+02 0.  0.
         12    1    6    6    0    0  0.89909934482E+02  0.12323051417E+03 -0.38810063167E+03  0.41700318493E+03  0.00000000000E+00 0. -1.
        -11    1    6    6    0    0 -0.24472300229E+01  0.14742369906E+01 -0.10565480999E+03  0.10569343018E+03  0.00000000000E+00 0.  1.
          5    1    5    5  501    0  0.82505832979E+02 -0.13931722158E+02 -0.11968144203E+03  0.14610627270E+03  0.47000000000E+01 0. -1.
         13    1    4    4    0    0 -0.95967061006E+02 -0.10663530217E+03 -0.11960647097E+03  0.18677920753E+03  0.00000000000E+00 0. -1.
        -14    1    4    4    0    0 -0.86062539124E+02 -0.93725426088E+01 -0.77471531974E+02  0.11617419447E+03  0.00000000000E+00 0.  1.
         -5    1    3    3    0  503  0.12061062692E+02  0.52348157771E+01 -0.80504594821E+02  0.81706501068E+02  0.47000000000E+01 0.  1.
</event>
<event>
12    1  0.9749377E-001  0.4301603E+03  0.7818608E-02  0.1033809E+00
         21   -1    0    0  501  502  0.00000000000E+00  0.00000000000E+00  0.85425579491E+02  0.85425579491E+02  0.00000000000E+00 0. -1.
         21   -1    0    0  502  503 -0.00000000000E+00 -0.00000000000E+00 -0.23598605756E+04  0.23598605756E+04  0.00000000000E+00 0.  1.
         -6    2    1    2    0  503  0.38455090220E+03  0.12630505699E+03 -0.89796163124E+03  0.10002409897E+04  0.17411083368E+03 0.  0.
        -24    2    3    3    0    0  0.14362167293E+03  0.10056201915E+03 -0.36854326190E+03  0.41799061627E+03  0.90289062280E+02 0.  0.
          6    2    1    2  501    0 -0.38455090220E+03 -0.12630505699E+03 -0.13764733649E+04  0.14450451654E+04  0.17217503347E+03 0.  0.
         24    2    5    5    0    0 -0.78051139493E+02 -0.55834077906E+02 -0.35851004837E+03  0.37959705916E+03  0.79718554350E+02 0.  0.
         14    1    6    6    0    0  0.14479103519E+02 -0.65876143606E+01 -0.89204086539E+02  0.90611313625E+02  0.00000000000E+00 0. -1.
        -13    1    6    6    0    0 -0.92530243012E+02 -0.49246463545E+02 -0.26930596184E+03  0.28898574554E+03  0.00000000000E+00 0.  1.
          5    1    5    5  501    0 -0.30649976270E+03 -0.70470979086E+02 -0.10179633165E+04  0.10654481063E+04  0.47000000000E+01 0. -1.
         13    1    4    4    0    0  0.51136583730E+02  0.78028848227E+01 -0.18766763266E+03  0.19466631850E+03  0.00000000000E+00 0. -1.
        -14    1    4    4    0    0  0.92485089198E+02  0.92759134323E+02 -0.18087562924E+03  0.22332429778E+03  0.00000000000E+00 0.  1.
         -5    1    3    3    0  503  0.24092922927E+03  0.25743037846E+02 -0.52941836934E+03  0.58225037338E+03  0.47000000000E+01 0.  1.
</event>
<event>
12    1  0.9749377E-001  0.2159911E+03  0.7818608E-02  0.1136908E+00
         21   -1    0    0  503  502  0.00000000000E+00  0.00000000000E+00  0.94903748631E+03  0.94903748631E+03  0.00000000000E+00 0.  1.
         21   -1    0    0  501  503 -0.00000000000E+00 -0.00000000000E+00 -0.19123190117E+03  0.19123190117E+03  0.00000000000E+00 0. -1.
          6    2    1    2  501    0  0.24321588560E+02  0.19343806706E+03 -0.71857378989E+02  0.27054184067E+03  0.17326159176E+03 0.  0.
         24    2    3    3    0    0  0.26526730214E+02  0.96587298843E+02  0.30435348377E+02  0.12957792321E+03  0.76363302958E+02 0.  0.
         -6    2    1    2    0  502 -0.24321588560E+02 -0.19343806706E+03  0.82966296413E+03  0.86972754681E+03  0.17342302669E+03 0.  0.
        -24    2    5    5    0    0  0.23035038001E+02 -0.30991096097E+02  0.19991397942E+03  0.21762514519E+03  0.76837774835E+02 0.  0.
         14    1    4    4    0    0  0.46355674479E+02  0.27131681959E+02  0.12163684260E+02  0.55072061312E+02  0.00000000000E+00 0. -1.
        -13    1    4    4    0    0 -0.19828944265E+02  0.69455616884E+02  0.18271664117E+02  0.74505861897E+02  0.00000000000E+00 0.  1.
          5    1    3    3  501    0 -0.22051416539E+01  0.96850768220E+02 -0.10229272737E+03  0.14096391746E+03  0.47000000000E+01 0. -1.
         13    1    6    6    0    0  0.23850838280E+02 -0.28549647163E+02  0.30267147476E+02  0.47958784973E+02  0.00000000000E+00 0. -1.
        -14    1    6    6    0    0 -0.81580027907E+00 -0.24414489337E+01  0.16964683194E+03  0.16966636022E+03  0.00000000000E+00 0.  1.
         -5    1    5    5    0  502 -0.47356626561E+02 -0.16244697097E+03  0.62974898471E+03  0.65210240162E+03  0.47000000000E+01 0.  1.
</event>
<event>
12    1  0.9749377E-001  0.4851457E+03  0.7818608E-02  0.1017731E+00
         21   -1    0    0  503  502  0.00000000000E+00  0.00000000000E+00  0.13723711159E+04  0.13723711159E+04  0.00000000000E+00 0.  1.
         21   -1    0    0  501  503 -0.00000000000E+00 -0.00000000000E+00 -0.50810559127E+03  0.50810559127E+03  0.00000000000E+00 0. -1.
          6    2    1    2  501    0  0.20436784888E+03 -0.43146914726E+03  0.11780132927E+04  0.12828860209E+04  0.17363577476E+03 0.  0.
         24    2    3    3    0    0  0.43426007353E+02 -0.13817000108E+03  0.28757552264E+03  0.33166145343E+03  0.79516483554E+02 0.  0.
         -6    2    1    2    0  502 -0.20436784888E+03  0.43146914726E+03 -0.31374776804E+03  0.59759068624E+03  0.17534287450E+03 0.  0.
        -24    2    5    5    0    0 -0.11545321705E+03  0.28056261099E+03 -0.11909393938E+03  0.33569223750E+03  0.80380892666E+02 0.  0.
         12    1    4    4    0    0  0.47222842046E+02 -0.13438275270E+03  0.20911223459E+03  0.25301511356E+03  0.00000000000E+00 0. -1.
        -11    1    4    4    0    0 -0.37968346936E+01 -0.37872483868E+01  0.78463288049E+02  0.78646339874E+02  0.00000000000E+00 0.  1.
          5    1    3    3  501    0  0.16094184152E+03 -0.29329914618E+03  0.89043777001E+03  0.95122456748E+03  0.47000000000E+01 0. -1.
         13    1    6    6    0    0 -0.63941906232E+02  0.65479921027E+02 -0.21855737583E+02  0.94094955739E+02  0.00000000000E+00 0. -1.
        -14    1    6    6    0    0 -0.51511310823E+02  0.21508268997E+03 -0.97238201801E+02  0.24159728176E+03  0.00000000000E+00 0.  1.
         -5    1    5    5    0  502 -0.88914631822E+02  0.15090653627E+03 -0.19465382865E+03  0.26189844874E+03  0.47000000000E+01 0.  1.
</event>
<event>
12    1  0.9749377E-001  0.2171957E+03  0.7818608E-02  0.1135991E+00
         21   -1    0    0  503  502  0.00000000000E+00  0.00000000000E+00  0.12292522360E+03  0.12292522360E+03  0.00000000000E+00 0.  1.
         21   -1    0    0  501  503 -0.00000000000E+00 -0.00000000000E+00 -0.50659949249E+03  0.50659949249E+03  0.00000000000E+00 0. -1.
          6    2    1    2  501    0 -0.11281887844E+03  0.13272311324E+03 -0.13041258223E+03  0.27675929176E+03  0.17101093490E+03 0.  0.
         24    2    3    3    0    0 -0.89084266416E+02  0.41155321163E+02 -0.14075694755E+02  0.12674478000E+03  0.78970545720E+02 0.  0.
         -6    2    1    2    0  502  0.11281887844E+03 -0.13272311324E+03 -0.25326168666E+03  0.35276542433E+03  0.17308506161E+03 0.  0.
        -24    2    5    5    0    0  0.13653105429E+03 -0.11182628315E+03 -0.25547582191E+03  0.32073517010E+03  0.80357372846E+02 0.  0.
         12    1    4    4    0    0 -0.81181147646E+02  0.61807307114E+02 -0.19727071094E+02  0.10392150538E+03  0.00000000000E+00 0. -1.
        -11    1    4    4    0    0 -0.79031187701E+01 -0.20651985950E+02  0.56513763398E+01  0.22823274623E+02  0.00000000000E+00 0.  1.
          5    1    3    3  501    0 -0.23734612022E+02  0.91567792072E+02 -0.11633688747E+03  0.15001451176E+03  0.47000000000E+01 0. -1.
         11    1    6    6    0    0  0.13870190347E+02 -0.37920107396E+02 -0.10740104368E+03  0.11474014514E+03  0.00000000000E+00 0. -1.
        -12    1    6    6    0    0  0.12266086394E+03 -0.73906175751E+02 -0.14807477823E+03  0.20599502495E+03  0.00000000000E+00 0.  1.
         -5    1    5    5    0  502 -0.23712175851E+02 -0.20896830089E+02  0.22141352465E+01  0.32030254233E+02  0.47000000000E+01 0.  1.
</event>
<event>
12    1  0.9749377E-001  0.7853418E+03  0.7818608E-02  0.9581480E-01
         21   -1    0    0  501  502  0.00000000000E+00  0.00000000000E+00  0.52634123171E+03  0.52634123171E+03  0.00000000000E+00 0.  1.
         21   -1    0    0  502  503 -0.00000000000E+00 -0.00000000000E+00 -0.11965723777E+04  0.11965723777E+04  0.00000000000E+00 0. -1.
         -6    2    1    2    0  503 -0.12503938012E+03  0.76377550474E+03 -0.29759965677E+03  0.84684638411E+03  0.17203306183E+03 0.  0.
        -24    2    3    3    0    0 -0.10811649414E+03  0.64467800473E+03 -0.30584783742E+03  0.72617857125E+03  0.80582328085E+02 0.  0.
          6    2    1    2  501    0  0.12503938012E+03 -0.76377550474E+03 -0.37263148919E+03  0.87606722527E+03  0.17219665570E+03 0.  0.
         24    2    5    5    0    0 -0.14965949497E+01 -0.21172870197E+03 -0.94381309921E+02  0.24502659448E+03  0.79365718724E+02 0.  0.
         14    1    6    6    0    0 -0.32635845953E+02 -0.17260690299E+03 -0.66919447352E+02  0.18797992934E+03  0.00000000000E+00 0. -1.
        -13    1    6    6    0    0  0.31139251003E+02 -0.39121798978E+02 -0.27461862569E+02  0.57046665144E+02  0.00000000000E+00 0.  1.
          5    1    5    5  501    0  0.12653597507E+03 -0.55204680277E+03 -0.27825017927E+03  0.63104063078E+03  0.47000000000E+01 0. -1.
         13    1    4    4    0    0 -0.23811381952E+02  0.32480599598E+02 -0.24794749482E+02  0.47294300530E+02  0.00000000000E+00 0. -1.
        -14    1    4    4    0    0 -0.84305112192E+02  0.61219740513E+03 -0.28105308794E+03  0.67888427072E+03  0.00000000000E+00 0.  1.
         -5    1    3    3    0  503 -0.16922885979E+02  0.11909750001E+03  0.82481806477E+01  0.12066781287E+03  0.47000000000E+01 0.  1.
</event>
<event>
12    1  0.9749377E-001  0.3170404E+03  0.7818608E-02  0.1077020E+00
         21   -1    0    0  501  502  0.00000000000E+00  0.00000000000E+00  0.17463026213E+03  0.17463026213E+03  0.00000000000E+00 0. -1.
         21   -1    0    0  502  503 -0.00000000000E+00 -0.00000000000E+00 -0.78981550485E+03  0.78981550485E+03  0.00000000000E+00 0.  1.
         -6    2    1    2    0  503  0.22911910379E+03 -0.19867303558E+03 -0.14014052085E+03  0.37611516678E+03  0.17279095552E+03 0.  0.
        -24    2    3    3    0    0  0.18089394423E+02  0.31096232112E+01 -0.23258298345E+02  0.61578485989E+02  0.53982085433E+02 0.  0.
          6    2    1    2  501    0 -0.22911910379E+03  0.19867303558E+03 -0.47504472186E+03  0.58833060020E+03  0.16881607911E+03 0.  0.
         24    2    5    5    0    0 -0.16270627812E+03  0.10303421423E+03 -0.19328808066E+03  0.28342677532E+03  0.76688151629E+02 0.  0.
         14    1    6    6    0    0 -0.11928395812E+03  0.89399159556E+02 -0.99630047385E+02  0.17929589715E+03  0.00000000000E+00 0. -1.
        -13    1    6    6    0    0 -0.43422319999E+02  0.13635054671E+02 -0.93658033276E+02  0.10413087816E+03  0.00000000000E+00 0.  1.
          5    1    5    5  501    0 -0.66412825671E+02  0.95638821357E+02 -0.28175664120E+03  0.30490382488E+03  0.47000000000E+01 0. -1.
         13    1    4    4    0    0 -0.63359266197E+01  0.14427183592E-01 -0.34094826842E+02  0.34678543678E+02  0.00000000000E+00 0. -1.
        -14    1    4    4    0    0  0.24425321042E+02  0.30951960276E+01  0.10836528497E+02  0.26899942311E+02  0.00000000000E+00 0.  1.
         -5    1    3    3    0  503  0.21102970937E+03 -0.20178265879E+03 -0.11688222250E+03  0.31453668079E+03  0.47000000000E+01 0.  1.
</event>
<event>
12    1  0.9749377E-001  0.1201180E+04  0.7818608E-02  0.9111824E-01
         21   -1    0    0  501  502  0.00000000000E+00  0.00000000000E+00  0.42251071789E+03  0.42251071789E+03  0.00000000000E+00 0. -1.
         21   -1    0    0  502  503 -0.00000000000E+00 -0.00000000000E+00 -0.35138818576E+04  0.35138818576E+04  0.00000000000E+00 0.  1.
         -6    2    1    2    0  503  0.73967342116E+03  0.93956063468E+03 -0.12832679923E+04  0.17624519778E+04  0.17195719751E+03 0.  0.
        -24    2    3    3    0    0  0.63766555589E+03  0.87432764217E+03 -0.11234290718E+04  0.15618740169E+04  0.79318209108E+02 0.  0.
          6    2    1    2  501    0 -0.73967342116E+03 -0.93956063468E+03 -0.18081031474E+04  0.21739405977E+04  0.16398101862E+03 0.  0.
         24    2    5    5    0    0 -0.62069381243E+03 -0.74420126263E+03 -0.15412682738E+04  0.18224518051E+04  0.82014401648E+02 0.  0.
         14    1    6    6    0    0 -0.25017876114E+03 -0.32778152928E+03 -0.58777774633E+03  0.71799221621E+03  0.00000000000E+00 0. -1.
        -13    1    6    6    0    0 -0.37051505129E+03 -0.41641973335E+03 -0.95349052744E+03  0.11044595889E+04  0.00000000000E+00 0.  1.
          5    1    5    5  501    0 -0.11897960872E+03 -0.19535937205E+03 -0.26683487366E+03  0.35148879262E+03  0.47000000000E+01 0. -1.
         13    1    4    4    0    0  0.43422759368E+03  0.62099348820E+03 -0.73766849269E+03  0.10575165817E+04  0.00000000000E+00 0. -1.
        -14    1    4    4    0    0  0.20343796221E+03  0.25333415398E+03 -0.38576057914E+03  0.50435743521E+03  0.00000000000E+00 0.  1.
         -5    1    3    3    0  503  0.10200786526E+03  0.65232992507E+02 -0.15983892049E+03  0.20057796088E+03  0.47000000000E+01 0.  1.
</event>
<event>
12    1  0.9749377E-001  0.3277775E+03  0.7818608E-02  0.1072125E+00
         21   -1    0    0  501  502  0.00000000000E+00  0.00000000000E+00  0.41523733141E+02  0.41523733141E+02  0.00000000000E+00 0.  1.
         21   -1    0    0  502  503 -0.00000000000E+00 -0.00000000000E+00 -0.30066273201E+04  0.30066273201E+04  0.00000000000E+00 0. -1.
         -6    2    1    2    0  503  0.24847696743E+03 -0.16799159518E+03 -0.11723161442E+04  0.12221346992E+04  0.17124865476E+03 0.  0.
        -24    2    3    3    0    0  0.67810966811E+02 -0.11302592166E+03 -0.57184045324E+03  0.59264715014E+03  0.82800690953E+02 0.  0.
          6    2    1    2  501    0 -0.24847696743E+03  0.16799159518E+03 -0.17927874427E+04  0.18260163540E+04  0.17403140734E+03 0.  0.
         24    2    5    5    0    0 -0.22592713751E+03  0.14686881917E+03 -0.17529492826E+04  0.17753820227E+04  0.80849352437E+02 0.  0.
         14    1    6    6    0    0 -0.21393815303E+03  0.10605368833E+03 -0.14813209361E+04  0.15004428126E+04  0.00000000000E+00 0. -1.
        -13    1    6    6    0    0 -0.11988984485E+02  0.40815130840E+02 -0.27162834648E+03  0.27493921013E+03  0.00000000000E+00 0.  1.
          5    1    5    5  501    0 -0.22549829918E+02  0.21122776013E+02 -0.39838160117E+02  0.50634331212E+02  0.47000000000E+01 0. -1.
         11    1    4    4    0    0  0.83274122922E+02 -0.71465478254E+02 -0.44300715612E+03  0.45639591859E+03  0.00000000000E+00 0. -1.
        -12    1    4    4    0    0 -0.15463156112E+02 -0.41560443402E+02 -0.12883329711E+03  0.13625123155E+03  0.00000000000E+00 0.  1.
         -5    1    3    3    0  503  0.18066600062E+03 -0.54965673522E+02 -0.60047569097E+03  0.62948754911E+03  0.47000000000E+01 0.  1.
</event>
<event>
12    1  0.9749377E-001  0.1556489E+03  0.7818608E-02  0.1193699E+00
         21   -1    0    0  503  502  0.00000000000E+00  0.00000000000E+00  0.61250416336E+02  0.61250416336E+02  0.00000000000E+00 0.  1.
         21   -1    0    0  501  503 -0.00000000000E+00 -0.00000000000E+00 -0.87065356951E+03  0.87065356951E+03  0.00000000000E+00 0.  1.
          6    2    1    2  501    0  0.29019239940E+00 -0.91012939373E+02 -0.15334948443E+03  0.24760314452E+03  0.17177838471E+03 0.  0.
         24    2    3    3    0    0  0.28367134405E+02  0.22285641809E+02 -0.84277927325E+02  0.11189075315E+03  0.64151597491E+02 0.  0.
         -6    2    1    2    0  502 -0.29019239940E+00  0.91012939373E+02 -0.65605366874E+03  0.68430084133E+03  0.17198193459E+03 0.  0.
        -24    2    5    5    0    0  0.16496392152E+02  0.10679637424E+03 -0.64378613727E+03  0.65777748246E+03  0.80827157475E+02 0.  0.
         12    1    4    4    0    0  0.65983025817E+01  0.31376580627E+01 -0.82523031384E+02  0.82845839992E+02  0.00000000000E+00 0. -1.
        -11    1    4    4    0    0  0.21768831823E+02  0.19147983746E+02 -0.17548959403E+01  0.29044913156E+02  0.00000000000E+00 0.  1.
          5    1    3    3  501    0 -0.28076942005E+02 -0.11329858118E+03 -0.69071557109E+02  0.13571239137E+03  0.47000000000E+01 0. -1.
         13    1    6    6    0    0 -0.57145560092E+01  0.11175882221E+03 -0.51809779529E+03  0.53004529616E+03  0.00000000000E+00 0. -1.
        -14    1    6    6    0    0  0.22210948162E+02 -0.49624479760E+01 -0.12568834199E+03  0.12773218631E+03  0.00000000000E+00 0.  1.
         -5    1    5    5    0  502 -0.16786584552E+02 -0.15783434864E+02 -0.12267531465E+02  0.26523358861E+02  0.47000000000E+01 0.  1.
</event>
<event>
12    1  0.9749377E-001  0.2703627E+03  0.7818608E-02  0.1101072E+00
         21   -1    0    0  501  502  0.00000000000E+00  0.00000000000E+00  0.61977978729E+03  0.61977978729E+03  0.00000000000E+00 0.  1.
         21   -1    0    0  502  503 -0.00000000000E+00 -0.00000000000E+00 -0.13252862863E+03  0.13252862863E+03  0.00000000000E+00 0. -1.
         -6    2    1    2    0  503 -0.14818323198E+03 -0.17217840456E+03  0.28150667281E+03  0.40068063412E+03  0.17232321517E+03 0.  0.
        -24    2    3    3    0    0 -0.10110919627E+03 -0.64496009329E+02  0.71850846437E+02  0.16028695988E+03  0.78400003737E+02 0.  0.
          6    2    1    2  501    0  0.14818323198E+03  0.17217840456E+03  0.20574448584E+03  0.35162778180E+03  0.17235901556E+03 0.  0.
         24    2    5    5    0    0  0.48632216263E+01  0.80771352934E+02  0.85865760958E+02  0.14356799920E+03  0.81799627819E+02 0.  0.
         12    1    6    6    0    0 -0.32529609330E+00  0.97455668815E+02  0.70277154660E+02  0.12015236855E+03  0.00000000000E+00 0. -1.
        -11    1    6    6    0    0  0.51885177196E+01 -0.16684315880E+02  0.15588606297E+02  0.23415630652E+02  0.00000000000E+00 0.  1.
          5    1    5    5  501    0  0.14332001035E+03  0.91407051621E+02  0.11987872489E+03  0.20805978260E+03  0.47000000000E+01 0. -1.
         11    1    4    4    0    0 -0.86406026047E+02 -0.16548498769E+02  0.65612838558E+02  0.10974925390E+03  0.00000000000E+00 0. -1.
        -12    1    4    4    0    0 -0.14703170220E+02 -0.47947510560E+02  0.62380078790E+01  0.50537705980E+02  0.00000000000E+00 0.  1.
         -5    1    3    3    0  503 -0.47074035711E+02 -0.10768239523E+03  0.20965582637E+03  0.24039367424E+03  0.47000000000E+01 0.  1.
</event>
<event>
12    1  0.9749377E-001  0.6393315E+03  0.7818608E-02  0.9827006E-01
         21   -1    0    0  501  502  0.00000000000E+00  0.00000000000E+00  0.54978422486E+03  0.54978422486E+03  0.00000000000E+00 0. -1.
         21   -1    0    0  502  503 -0.00000000000E+00 -0.00000000000E+00 -0.85246153451E+03  0.85246153451E+03  0.00000000000E+00 0.  1.
         -6    2    1    2    0  503  0.43123723121E+03  0.44755931758E+03 -0.38793891358E+03  0.75170715198E+03  0.16820270310E+03 0.  0.
        -24    2    3    3    0    0  0.36405218826E+03  0.29791247035E+03 -0.25757942127E+03  0.54212734351E+03  0.79177411883E+02 0.  0.
          6    2    1    2  501    0 -0.43123723121E+03 -0.44755931758E+03  0.85261603926E+02  0.65053860739E+03  0.17220930948E+03 0.  0.
         24    2    5    5    0    0 -0.40474616507E+03 -0.34626137103E+03  0.59272500335E+02  0.54255446936E+03  0.84473236745E+02 0.  0.
         12    1    6    6    0    0 -0.23415479972E+03 -0.15275450987E+03  0.89022844911E+01  0.27971710921E+03  0.00000000000E+00 0. -1.
        -11    1    6    6    0    0 -0.17059136535E+03 -0.19350686115E+03  0.50370215844E+02  0.26283736015E+03  0.00000000000E+00 0.  1.
          5    1    5    5  501    0 -0.26491066144E+02 -0.10129794655E+03  0.25989103591E+02  0.10798413803E+03  0.47000000000E+01 0. -1.
         11    1    4    4    0    0  0.19405340021E+03  0.13220417624E+03 -0.16652948499E+03  0.28786582938E+03  0.00000000000E+00 0. -1.
        -12    1    4    4    0    0  0.16999878805E+03  0.16570829411E+03 -0.91049936271E+02  0.25426151413E+03  0.00000000000E+00 0.  1.
         -5    1    3    3    0  503  0.67185042951E+02  0.14964684723E+03 -0.13035949231E+03  0.20957980847E+03  0.47000000000E+01 0.  1.
</event>
<event>
12    1  0.9749377E-001  0.1491038E+03  0.7818608E-02  0.1201579E+00
         21   -1    0    0  503  502  0.00000000000E+00  0.00000000000E+00  0.10689561301E+04  0.10689561301E+04  0.00000000000E+00 0. -1.
         21   -1    0    0  501  503 -0.00000000000E+00 -0.00000000000E+00 -0.33292597191E+02  0.33292597191E+02  0.00000000000E+00 0. -1.
          6    2    1    2  501    0  0.43606847227E+02 -0.91089295324E+01  0.33198690191E+03  0.37642164683E+03  0.17173649420E+03 0.  0.
         24    2    3    3    0    0  0.44722797174E+02 -0.69828384422E+02  0.23981373564E+03  0.26594051665E+03  0.79609036764E+02 0.  0.
         -6    2    1    2    0  502 -0.43606847227E+02  0.91089295324E+01  0.70367663099E+03  0.72582708045E+03  0.17227774085E+03 0.  0.
        -24    2    5    5    0    0 -0.22358858502E+02 -0.56585033207E+02  0.30017407477E+03  0.31643292240E+03  0.79520655693E+02 0.  0.
         14    1    4    4    0    0  0.26767388461E+01 -0.58484012557E+02  0.19438197017E+03  0.20300713037E+03  0.00000000000E+00 0. -1.
        -13    1    4    4    0    0  0.42046058328E+02 -0.11344371865E+02  0.45431765469E+02  0.62933386271E+02  0.00000000000E+00 0.  1.
          5    1    3    3  501    0 -0.11159499476E+01  0.60719454890E+02  0.92173166267E+02  0.11048113018E+03  0.47000000000E+01 0. -1.
         11    1    6    6    0    0 -0.26913558168E+02 -0.36195365949E+02  0.58558538913E+02  0.73915807572E+02  0.00000000000E+00 0. -1.
        -12    1    6    6    0    0  0.45546996660E+01 -0.20389667258E+02  0.24161553585E+03  0.24251711483E+03  0.00000000000E+00 0.  1.
         -5    1    5    5    0  502 -0.21247988725E+02  0.65693962739E+02  0.40350255622E+03  0.40939415805E+03  0.47000000000E+01 0.  1.
</event>
<event>
12    1  0.9749377E-001  0.6129072E+03  0.7818608E-02  0.9878984E-01
         21   -1    0    0  503  502  0.00000000000E+00  0.00000000000E+00  0.18603496402E+04  0.18603496402E+04  0.00000000000E+00 0. -1.
         21   -1    0    0  501  503 -0.00000000000E+00 -0.00000000000E+00 -0.22525429382E+03  0.22525429382E+03  0.00000000000E+00 0.  1.
          6    2    1    2  501    0  0.60288904833E+03  0.17331718860E+02  0.10794332712E+04  0.12483901452E+04  0.17183182077E+03 0.  0.
         24    2    3    3    0    0  0.12734397468E+03 -0.98063906124E-01  0.26258363229E+03  0.30302654481E+03  0.81599175278E+02 0.  0.
         -6    2    1    2    0  502 -0.60288904833E+03 -0.17331718860E+02  0.55566207524E+03  0.83721378885E+03  0.16849627092E+03 0.  0.
        -24    2    5    5    0    0 -0.13428143692E+03  0.22089525024E+01  0.12508704224E+03  0.20050986995E+03  0.80753055902E+02 0.  0.
         12    1    4    4    0    0  0.73566736035E+02 -0.33661243724E+02  0.19089330550E+03  0.20732920215E+03  0.00000000000E+00 0. -1.
        -11    1    4    4    0    0  0.53777238649E+02  0.33563179818E+02  0.71690326796E+02  0.95697342661E+02  0.00000000000E+00 0.  1.
          5    1    3    3  501    0  0.47554507365E+03  0.17429782766E+02  0.81684963887E+03  0.94536360038E+03  0.47000000000E+01 0. -1.
         13    1    6    6    0    0 -0.30857243010E+02 -0.10036111761E+02  0.81293815881E+02  0.87530437483E+02  0.00000000000E+00 0. -1.
        -14    1    6    6    0    0 -0.10342419391E+03  0.12245064263E+02  0.43793226358E+02  0.11297943247E+03  0.00000000000E+00 0.  1.
         -5    1    5    5    0  502 -0.46860761141E+03 -0.19540671362E+02  0.43057503300E+03  0.63670391890E+03  0.47000000000E+01 0.  1.
</event>
<event>
12    1  0.9749377E-001  0.7291769E+03  0.7818608E-02  0.9668597E-01
         21   -1    0    0  503  502  0.00000000000E+00  0.00000000000E+00  0.42288538164E+03  0.42288538164E+03  0.00000000000E+00 0. -1.
         21   -1    0    0  501  503 -0.00000000000E+00 -0.00000000000E+00 -0.16745353974E+04  0.16745353974E+04  0.00000000000E+00 0.  1.
          6    2    1    2  501    0  0.12473871353E+03 -0.70971262347E+03 -0.11230986539E+04  0.13454453690E+04  0.17210723454E+03 0.  0.
         24    2    3    3    0    0  0.14536267559E+03 -0.59874862902E+03 -0.89240354709E+03  0.10885783253E+04  0.94807442814E+02 0.  0.
         -6    2    1    2    0  502 -0.12473871353E+03  0.70971262347E+03 -0.12855136186E+03  0.75197540997E+03  0.17230731268E+03 0.  0.
        -24    2    5    5    0    0 -0.13512889083E+03  0.58705186015E+03 -0.15225447260E+03  0.62652603333E+03  0.80397402720E+02 0.  0.
         14    1    4    4    0    0  0.70980171810E+02 -0.25216352520E+03 -0.46088864980E+03  0.53013486561E+03  0.00000000000E+00 0. -1.
        -13    1    4    4    0    0  0.74382503777E+02 -0.34658510383E+03 -0.43151489730E+03  0.55844345967E+03  0.00000000000E+00 0.  1.
          5    1    3    3  501    0 -0.20623962063E+02 -0.11096399445E+03 -0.23069510677E+03  0.25686704374E+03  0.47000000000E+01 0. -1.
         11    1    6    6    0    0 -0.18266033152E+02  0.21532208936E+03 -0.78686360273E+02  0.22997563659E+03  0.00000000000E+00 0. -1.
        -12    1    6    6    0    0 -0.11686285768E+03  0.37172977080E+03 -0.73568112326E+02  0.39655039674E+03  0.00000000000E+00 0.  1.
         -5    1    5    5    0  502  0.10390177304E+02  0.12266076332E+03  0.23703110741E+02  0.12544937665E+03  0.47000000000E+01 0.  1.
</event>
<event>
12    1  0.9749377E-001  0.3206739E+03  0.7818608E-02  0.1075340E+00
         21   -1    0    0  503  502  0.00000000000E+00  0.00000000000E+00  0.37248626953E+03  0.37248626953E+03  0.00000000000E+00 0.  1.
         21   -1    0    0  501  503 -0.00000000000E+00 -0.00000000000E+00 -0.31473403944E+03  0.31473403944E+03  0.00000000000E+00 0. -1.
          6    2    1    2  501    0 -0.68831273744E+02 -0.28563319525E+03  0.74701633156E+02  0.34592602364E+03  0.16661456526E+03 0.  0.
         24    2    3    3    0    0 -0.83314673519E+02 -0.16705121067E+03  0.91229374978E+02  0.22523338846E+03  0.86947332381E+02 0.  0.
         -6    2    1    2    0  502  0.68831273744E+02  0.28563319525E+03 -0.16949403066E+02  0.34129428533E+03  0.17283066991E+03 0.  0.
        -24    2    5    5    0    0  0.56330148914E+01  0.25390277746E+03  0.75177891308E+01  0.26631713662E+03  0.79811959283E+02 0.  0.
         14    1    4    4    0    0 -0.38546576115E+02 -0.24652467708E+02  0.55159667864E+02  0.71667089052E+02  0.00000000000E+00 0. -1.
        -13    1    4    4    0    0 -0.44768097404E+02 -0.14239874296E+03  0.36069707113E+02  0.15356629941E+03  0.00000000000E+00 0.  1.
          5    1    3    3  501    0  0.14483399775E+02 -0.11858198458E+03 -0.16527741822E+02  0.12069263518E+03  0.47000000000E+01 0. -1.
         13    1    6    6    0    0 -0.12958093779E+02  0.12221676358E+03  0.40307400478E+02  0.12934270767E+03  0.00000000000E+00 0. -1.
        -14    1    6    6    0    0  0.18591108670E+02  0.13168601388E+03 -0.32789611347E+02  0.13697442895E+03  0.00000000000E+00 0.  1.
         -5    1    5    5    0  502  0.63198258852E+02  0.31730417789E+02 -0.24467192197E+02  0.74977148712E+02  0.47000000000E+01 0.  1.
</event>
<event>
12    1  0.1098517E+000  0.8548800E+03  0.7818608E-02  0.9483810E-01
         21   -1    0    0  503  502  0.00000000000E+00  0.00000000000E+00  0.68678177467E+03  0.68678177467E+03  0.00000000000E+00 0.  1.
         21   -1    0    0  501  503 -0.00000000000E+00 -0.00000000000E+00 -0.10891209331E+04  0.10891209331E+04  0.00000000000E+00 0. -1.
          6    2    1    2  501    0 -0.83105280823E+03  0.16585036171E+03 -0.20645794001E+03  0.88907890578E+03  0.17228263743E+03 0.  0.
         24    2    3    3    0    0 -0.27139148117E+03  0.90815044316E+02 -0.10487807994E+03  0.31532664406E+03  0.80813194910E+02 0.  0.
         -6    2    1    2    0  502  0.83105280823E+03 -0.16585036171E+03 -0.19588121841E+03  0.88682380198E+03  0.17300835670E+03 0.  0.
        -24    2    5    5    0    0  0.24930507687E+03 -0.96558163124E+02 -0.57848767304E+02  0.28490447243E+03  0.79671690794E+02 0.  0.
         12    1    4    4    0    0 -0.71592211520E+02  0.10614978035E+02 -0.63092396492E+02  0.96014441644E+02  0.00000000000E+00 0. -1.
        -11    1    4    4    0    0 -0.19979926965E+03  0.80200066281E+02 -0.41785683447E+02  0.21931220241E+03  0.00000000000E+00 0.  1.
          5    1    3    3  501    0 -0.55966132706E+03  0.75035317397E+02 -0.10157986007E+03  0.57375226172E+03  0.47000000000E+01 0. -1.
         13    1    6    6    0    0  0.18761534236E+03 -0.49790752938E+02 -0.11004956798E+02  0.19442156475E+03  0.00000000000E+00 0. -1.
        -14    1    6    6    0    0  0.61689734514E+02 -0.46767410186E+02 -0.46843810506E+02  0.90482907682E+02  0.00000000000E+00 0.  1.
         -5    1    5    5    0  502  0.58174773136E+03 -0.69292198589E+02 -0.13803245111E+03  0.60191932955E+03  0.47000000000E+01 0.  1.
</event>
<event>
12    1  0.9749377E-001  0.8295808E+03  0.7818608E-02  0.9518160E-01
         21   -1    0    0  501  502  0.00000000000E+00  0.00000000000E+00  0.15778801396E+04  0.15778801396E+04  0.00000000000E+00 0.  1.
         21   -1    0    0  502  503 -0.00000000000E+00 -0.00000000000E+00 -0.49559587739E+03  0.49559587739E+03  0.00000000000E+00 0. -1.
         -6    2    1    2    0  503  0.72481122245E+03  0.37660669147E+03  0.88341905590E+03  0.12150499467E+04  0.16950880902E+03 0.  0.
        -24    2    3    3    0    0  0.51281462483E+03  0.19770709072E+03  0.55871345827E+03  0.78796278966E+03  0.81594707421E+02 0.  0.
          6    2    1    2  501    0 -0.72481122245E+03 -0.37660669147E+03  0.19886520628E+03  0.85842607029E+03  0.17367797687E+03 0.  0.
         24    2    5    5    0    0 -0.43686095556E+03 -0.15319016527E+03  0.13309326016E+03  0.48805012713E+03  0.78513625960E+02 0.  0.
         14    1    6    6    0    0 -0.23275548964E+03 -0.84157384915E+02  0.11165562633E+03  0.27152267361E+03  0.00000000000E+00 0. -1.
        -13    1    6    6    0    0 -0.20410546593E+03 -0.69032780353E+02  0.21437633826E+02  0.21652745352E+03  0.00000000000E+00 0.  1.
          5    1    5    5  501    0 -0.28795026688E+03 -0.22341652620E+03  0.65771946120E+02  0.37037594316E+03  0.47000000000E+01 0. -1.
         13    1    4    4    0    0  0.14942234264E+03  0.23422347454E+02  0.17761859237E+03  0.23328953512E+03  0.00000000000E+00 0. -1.
        -14    1    4    4    0    0  0.36339228219E+03  0.17428474326E+03  0.38109486590E+03  0.55467325454E+03  0.00000000000E+00 0.  1.
         -5    1    3    3    0  503  0.21199659761E+03  0.17889960075E+03  0.32470559763E+03  0.42708715701E+03  0.47000000000E+01 0.  1.
</event>
<event>
12    1  0.9749377E-001  0.4849910E+03  0.7818608E-02  0.1017772E+00
         21   -1    0    0  501  502  0.00000000000E+00  0.00000000000E+00  0.42729323698E+03  0.42729323698E+03  0.00000000000E+00 0.  1.
         21   -1    0    0  502  503 -0.00000000000E+00 -0.00000000000E+00 -0.67120865429E+03  0.67120865429E+03  0.00000000000E+00 0. -1.
         -6    2    1    2    0  503  0.43354302697E+03  0.17307643415E+03  0.81305327142E+02  0.50407695847E+03  0.17195352729E+03 0.  0.
        -24    2    3    3    0    0  0.37497837211E+03  0.87437352624E+02  0.67633803337E+02  0.39932548284E+03  0.81439791924E+02 0.  0.
          6    2    1    2  501    0 -0.43354302697E+03 -0.17307643415E+03 -0.32522074445E+03  0.59442493279E+03  0.17221341357E+03 0.  0.
         24    2    5    5    0    0 -0.29911335682E+03 -0.16050263128E+03 -0.16737762665E+03  0.38666069965E+03  0.79128578133E+02 0.  0.
         14    1    6    6    0    0 -0.45572202136E+02 -0.54442449611E+02 -0.15553568771E+02  0.72682318542E+02  0.00000000000E+00 0. -1.
        -13    1    6    6    0    0 -0.25354115468E+03 -0.10606018167E+03 -0.15182405788E+03  0.31397838111E+03  0.00000000000E+00 0.  1.
          5    1    5    5  501    0 -0.13442967015E+03 -0.12573802868E+02 -0.15784311780E+03  0.20776423314E+03  0.47000000000E+01 0. -1.
         13    1    4    4    0    0  0.17449859666E+03  0.46401898638E+02 -0.90589857225E+01  0.18078982731E+03  0.00000000000E+00 0. -1.
        -14    1    4    4    0    0  0.20047977544E+03  0.41035453986E+02  0.76692789059E+02  0.21853565553E+03  0.00000000000E+00 0.  1.
         -5    1    3    3    0  503  0.58564654862E+02  0.85639081524E+02  0.13671523805E+02  0.10475147563E+03  0.47000000000E+01 0.  1.
</event>
<event>
12    1  0.9749377E-001  0.1105463E+04  0.7818608E-02  0.9199883E-01
         21   -1    0    0  501  502  0.00000000000E+00  0.00000000000E+00  0.42509852198E+03  0.42509852198E+03  0.00000000000E+00 0. -1.
         21   -1    0    0  502  503 -0.00000000000E+00 -0.00000000000E+00 -0.29934023725E+04  0.29934023725E+04  0.00000000000E+00 0.  1.
         -6    2    1    2    0  503  0.10870133689E+04 -0.13645142090E+03 -0.15932034252E+04  0.19418696880E+04  0.17984347803E+03 0.  0.
        -24    2    3    3    0    0  0.23657327106E+03 -0.40105381596E+02 -0.32348773228E+03  0.41061825528E+03  0.79922990548E+02 0.  0.
          6    2    1    2  501    0 -0.10870133689E+04  0.13645142090E+03 -0.97510042530E+03  0.14766312065E+04  0.17146960684E+03 0.  0.
         24    2    5    5    0    0 -0.25691834047E+03  0.42162381334E+02 -0.20768417730E+03  0.34221595318E+03  0.78704136102E+02 0.  0.
         14    1    6    6    0    0 -0.13387121649E+03  0.59030725044E+02 -0.13003154445E+03  0.19574047015E+03  0.00000000000E+00 0. -1.
        -13    1    6    6    0    0 -0.12304712398E+03 -0.16868343710E+02 -0.77652632857E+02  0.14647548303E+03  0.00000000000E+00 0.  1.
          5    1    5    5  501    0 -0.83009502843E+03  0.94289039570E+02 -0.76741624800E+03  0.11344152533E+04  0.47000000000E+01 0. -1.
         13    1    4    4    0    0  0.63325942482E+02  0.18859362549E+02 -0.11964673378E+03  0.13667915515E+03  0.00000000000E+00 0. -1.
        -14    1    4    4    0    0  0.17324732858E+03 -0.58964744145E+02 -0.20384099850E+03  0.27393910013E+03  0.00000000000E+00 0.  1.
         -5    1    3    3    0  503  0.85044009785E+03 -0.96346039309E+02 -0.12697156929E+04  0.15312514327E+04  0.47000000000E+01 0.  1.
</event>
<event>
12    1  0.1220946E+000  0.1417533E+04  0.7818608E-02  0.8941224E-01
         21   -1    0    0  501  502  0.00000000000E+00  0.00000000000E+00  0.19766077393E+04  0.19766077393E+04  0.00000000000E+00 0.  1.
         21   -1    0    0  502  503 -0.00000000000E+00 -0.00000000000E+00 -0.10677559208E+04  0.10677559208E+04  0.00000000000E+00 0. -1.
         -6    2    1    2    0  503 -0.11949452293E+04 -0.75432009943E+03  0.15025592069E+03  0.14314162486E+04  0.17170533405E+03 0.  0.
        -24    2    3    3    0    0 -0.10886830502E+04 -0.63588590075E+03  0.15050520913E+03  0.12722293702E+04  0.79586995530E+02 0.  0.
          6    2    1    2  501    0  0.11949452293E+04  0.75432009943E+03  0.75859589784E+03  0.16129474115E+04  0.17099328248E+03 0.  0.
         24    2    5    5    0    0  0.93638793552E+03  0.57917219538E+03  0.52218143605E+03  0.12212299748E+04  0.80413938905E+02 0.  0.
         14    1    6    6    0    0  0.57824798576E+03  0.33882318485E+03  0.27781991601E+03  0.72550381760E+03  0.00000000000E+00 0. -1.
        -13    1    6    6    0    0  0.35813994976E+03  0.24034901053E+03  0.24436152004E+03  0.49572615722E+03  0.00000000000E+00 0.  1.
          5    1    5    5  501    0  0.25855729378E+03  0.17514790405E+03  0.23641446179E+03  0.39171743669E+03  0.47000000000E+01 0. -1.
         11    1    4    4    0    0 -0.59364040460E+03 -0.37896739592E+03  0.11223730448E+03  0.71317769852E+03  0.00000000000E+00 0. -1.
        -12    1    4    4    0    0 -0.49504264559E+03 -0.25691850483E+03  0.38267904659E+02  0.55905167168E+03  0.00000000000E+00 0.  1.
         -5    1    3    3    0  503 -0.10626217911E+03 -0.11843419868E+03 -0.24928844767E+00  0.15918687845E+03  0.47000000000E+01 0.  1.
</event>
<event>
12    1  0.9749377E-001  0.2830905E+03  0.7818608E-02  0.1094013E+00
         21   -1    0    0  503  502  0.00000000000E+00  0.00000000000E+00  0.16395208137E+03  0.16395208137E+03  0.00000000000E+00 0.  1.
         21   -1    0    0  501  503 -0.00000000000E+00 -0.00000000000E+00 -0.51722122443E+03  0.51722122443E+03  0.00000000000E+00 0. -1.
          6    2    1    2  501    0  0.15338577967E+03 -0.17793174185E+03 -0.17657362936E+03  0.34026714226E+03  0.17151262156E+03 0.  0.
         24    2    3    3    0    0  0.17305167500E+03 -0.12288913739E+03 -0.16381302373E+03  0.28025581999E+03  0.81608796011E+02 0.  0.
         -6    2    1    2    0  502 -0.15338577967E+03  0.17793174185E+03 -0.17669551370E+03  0.34090616354E+03  0.17265226791E+03 0.  0.
        -24    2    5    5    0    0 -0.14165302500E+02  0.54218078001E+02 -0.98175461219E+02  0.13873074335E+03  0.80421030758E+02 0.  0.
         12    1    4    4    0    0  0.12783625035E+03 -0.46222685492E+02 -0.11871088139E+03  0.18047414473E+03  0.00000000000E+00 0. -1.
        -11    1    4    4    0    0  0.45215424646E+02 -0.76666451899E+02 -0.45102142339E+02  0.99781675253E+02  0.00000000000E+00 0.  1.
          5    1    3    3  501    0 -0.19665895329E+02 -0.55042604458E+02 -0.12760605632E+02  0.60011322271E+02  0.47000000000E+01 0. -1.
         11    1    6    6    0    0 -0.46237110127E+02  0.40292329162E+02 -0.49580462772E+02  0.78864215148E+02  0.00000000000E+00 0. -1.
        -12    1    6    6    0    0  0.32071807626E+02  0.13925748839E+02 -0.48594998447E+02  0.59866528204E+02  0.00000000000E+00 0.  1.
         -5    1    5    5    0  502 -0.13922047717E+03  0.12371366385E+03 -0.78520052484E+02  0.20217542019E+03  0.47000000000E+01 0.  1.
</event>
<event>
12    1  0.9749377E-001  0.4303406E+03  0.7818608E-02  0.1033752E+00
         21   -1    0    0  503  502  0.00000000000E+00  0.00000000000E+00  0.15435457549E+03  0.15435457549E+03  0.00000000000E+00 0. -1.
         21   -1    0    0  501  503 -0.00000000000E+00 -0.00000000000E+00 -0.13457801076E+04  0.13457801076E+04  0.00000000000E+00 0.  1.
          6    2    1    2  501    0 -0.39045154975E+03 -0.15559091828E+03 -0.52588693798E+03  0.69472680694E+03  0.17154392496E+03 0.  0.
         24    2    3    3    0    0 -0.24406851146E+03 -0.81697497890E+02 -0.42303383855E+03  0.50110583303E+03  0.76847302413E+02 0.  0.
         -6    2    1    2    0  502  0.39045154975E+03  0.15559091828E+03 -0.66553859413E+03  0.80540787614E+03  0.17052647923E+03 0.  0.
        -24    2    5    5    0    0  0.32520962282E+03  0.10302778615E+03 -0.42736049230E+03  0.55288007553E+03  0.81629431275E+02 0.  0.
         14    1    4    4    0    0 -0.15652995717E+03 -0.26747735565E+02 -0.30753582760E+03  0.34611465457E+03  0.00000000000E+00 0. -1.
        -13    1    4    4    0    0 -0.87538554290E+02 -0.54949762325E+02 -0.11549801095E+03  0.15499117846E+03  0.00000000000E+00 0.  1.
          5    1    3    3  501    0 -0.14638303829E+03 -0.73893420394E+02 -0.10285309943E+03  0.19362097391E+03  0.47000000000E+01 0. -1.
         11    1    6    6    0    0  0.59512641774E+02  0.54053699934E+02 -0.10600163903E+03  0.13304098799E+03  0.00000000000E+00 0. -1.
        -12    1    6    6    0    0  0.26569698104E+03  0.48974086214E+02 -0.32135885327E+03  0.41983908754E+03  0.00000000000E+00 0.  1.
         -5    1    5    5    0  502  0.65241926939E+02  0.52563132135E+02 -0.23817810182E+03  0.25252780061E+03  0.47000000000E+01 0.  1.
</event>
<event>
12    1  0.9749377E-001  0.3742486E+03  0.7818608E-02  0.1053080E+00
         21   -1    0    0  503  502  0.00000000000E+00  0.00000000000E+00  0.31065788625E+03  0.31065788625E+03  0.00000000000E+00 0. -1.
         21   -1    0    0  501  503 -0.00000000000E+00 -0.00000000000E+00 -0.49104994928E+03  0.49104994928E+03  0.00000000000E+00 0.  1.
          6    2    1    2  501    0 -0.28604978193E+03 -0.20043770263E+03 -0.58357856032E+02  0.39396092599E+03  0.17262624790E+03 0.  0.
         24    2    3    3    0    0 -0.20089898187E+03 -0.18398560319E+03 -0.95364026014E+02  0.29955289167E+03  0.80165668154E+02 0.  0.
         -6    2    1    2    0  502  0.28604978193E+03  0.20043770263E+03 -0.12203420700E+03  0.40774690954E+03  0.17136348555E+03 0.  0.
        -24    2    5    5    0    0  0.30265284819E+03  0.19034072872E+03 -0.10646099183E+03  0.38240473674E+03  0.84089835121E+02 0.  0.
         12    1    4    4    0    0 -0.19536352743E+03 -0.18819738047E+03 -0.80205426246E+02  0.28287465823E+03  0.00000000000E+00 0. -1.
        -11    1    4    4    0    0 -0.55354544366E+01  0.42117772831E+01 -0.15158599769E+02  0.16678233439E+02  0.00000000000E+00 0.  1.
          5    1    3    3  501    0 -0.85150800062E+02 -0.16452099441E+02  0.37006169982E+02  0.94408034319E+02  0.47000000000E+01 0. -1.
         13    1    6    6    0    0  0.14316897937E+03  0.52042595129E+02 -0.72081750353E+02  0.16852764490E+03  0.00000000000E+00 0. -1.
        -14    1    6    6    0    0  0.15948386882E+03  0.13829813359E+03 -0.34379241481E+02  0.21387709184E+03  0.00000000000E+00 0.  1.
         -5    1    5    5    0  502 -0.16603066262E+02  0.10096973910E+02 -0.15573215165E+02  0.25342172795E+02  0.47000000000E+01 0.  1.
</event>
<event>
12    1  0.9749377E-001  0.5957011E+03  0.7818608E-02  0.9914365E-01
         21   -1    0    0  501  502  0.00000000000E+00  0.00000000000E+00  0.15029355977E+04  0.15029355977E+04  0.00000000000E+00 0.  1.
         21   -1    0    0  502  503 -0.00000000000E+00 -0.00000000000E+00 -0.27456043963E+03  0.27456043963E+03  0.00000000000E+00 0. -1.
         -6    2    1    2    0  503  0.48912794150E+03  0.31282677127E+03  0.31882883194E+03  0.68480002650E+03  0.17375995007E+03 0.  0.
        -24    2    3    3    0    0  0.20508314022E+03  0.20849724636E+03  0.14795905944E+03  0.33725913962E+03  0.79508790995E+02 0.  0.
          6    2    1    2  501    0 -0.48912794150E+03 -0.31282677127E+03  0.90954632609E+03  0.10926960108E+04  0.17205615571E+03 0.  0.
         24    2    5    5    0    0 -0.38309327026E+03 -0.25291171791E+03  0.59826378083E+03  0.75840260956E+03  0.80809504135E+02 0.  0.
         12    1    6    6    0    0 -0.12317233510E+03 -0.11997735890E+03  0.18680126860E+03  0.25389112772E+03  0.00000000000E+00 0. -1.
        -11    1    6    6    0    0 -0.25992093516E+03 -0.13293435901E+03  0.41146251223E+03  0.50451148185E+03  0.00000000000E+00 0.  1.
          5    1    5    5  501    0 -0.10603467123E+03 -0.59915053363E+02  0.31128254526E+03  0.33429340123E+03  0.47000000000E+01 0. -1.
         11    1    4    4    0    0  0.13738915248E+03  0.83303919189E+02  0.74683322594E+02  0.17718047535E+03  0.00000000000E+00 0. -1.
        -12    1    4    4    0    0  0.67693987737E+02  0.12519332718E+03  0.73275736849E+02  0.16007866427E+03  0.00000000000E+00 0.  1.
         -5    1    3    3    0  503  0.28404480128E+03  0.10432952491E+03  0.17086977249E+03  0.34754088688E+03  0.47000000000E+01 0.  1.
</event>
<event>
12    1  0.9749377E-001  0.2987941E+03  0.7818608E-02  0.1085845E+00
         21   -1    0    0  503  502  0.00000000000E+00  0.00000000000E+00  0.36284559739E+03  0.36284559739E+03  0.00000000000E+00 0.  1.
         21   -1    0    0  501  503 -0.00000000000E+00 -0.00000000000E+00 -0.40872122315E+03  0.40872122315E+03  0.00000000000E+00 0. -1.
          6    2    1    2  501    0 -0.95211212090E+02  0.24879863624E+03  0.19739927668E+03  0.37201570577E+03  0.16871062386E+03 0.  0.
         24    2    3    3    0    0 -0.38098989389E+02  0.21561034580E+03  0.19765415622E+03  0.30579317511E+03  0.80640847362E+02 0.  0.
         -6    2    1    2    0  502  0.95211212090E+02 -0.24879863624E+03 -0.24327490245E+03  0.39955111477E+03  0.17173374407E+03 0.  0.
        -24    2    5    5    0    0  0.11049030836E+03 -0.25444653628E+03 -0.19462847586E+03  0.34803495831E+03  0.79353264080E+02 0.  0.
         14    1    4    4    0    0 -0.47697963764E+02  0.10628735029E+03  0.13897980234E+03  0.18134906131E+03  0.00000000000E+00 0. -1.
        -13    1    4    4    0    0  0.95989743741E+01  0.10932299551E+03  0.58674353875E+02  0.12444411379E+03  0.00000000000E+00 0.  1.
          5    1    3    3  501    0 -0.57112222701E+02  0.33188290440E+02 -0.25487953430E+00  0.66222530665E+02  0.47000000000E+01 0. -1.
         11    1    6    6    0    0  0.87541727629E+02 -0.24987973486E+03 -0.18337294743E+03  0.32206998280E+03  0.00000000000E+00 0. -1.
        -12    1    6    6    0    0  0.22948580732E+02 -0.45668014177E+01 -0.11255528433E+02  0.25964975507E+02  0.00000000000E+00 0.  1.
         -5    1    5    5    0  502 -0.15279096271E+02  0.56479000385E+01 -0.48646426583E+02  0.51516156465E+02  0.47000000000E+01 0.  1.
</event>
<event>
12    1  0.9749377E-001  0.3547675E+03  0.7818608E-02  0.1060675E+00
         21   -1    0    0  503  502  0.00000000000E+00  0.00000000000E+00  0.34692049815E+03  0.34692049815E+03  0.00000000000E+00 0.  1.
         21   -1    0    0  501  503 -0.00000000000E+00 -0.00000000000E+00 -0.44292256751E+03  0.44292256751E+03  0.00000000000E+00 0. -1.
          6    2    1    2  501    0 -0.11291146342E+02  0.32857753830E+03  0.80510498616E+02  0.37923795154E+03  0.17102279040E+03 0.  0.
         24    2    3    3    0    0  0.95225077537E+01  0.26656185407E+03  0.11990998343E+03  0.30272937234E+03  0.78235340816E+02 0.  0.
         -6    2    1    2    0  502  0.11291146342E+02 -0.32857753830E+03 -0.17651256798E+03  0.41060511413E+03  0.17131603669E+03 0.  0.
        -24    2    5    5    0    0 -0.89338025011E+01 -0.33597876750E+03 -0.17863116441E+03  0.38846001985E+03  0.77656610071E+02 0.  0.
         14    1    4    4    0    0 -0.19589412747E+02  0.23115463784E+03  0.96427321207E+02  0.25122587438E+03  0.00000000000E+00 0. -1.
        -13    1    4    4    0    0  0.29111920501E+02  0.35407216232E+02  0.23482662221E+02  0.51503497954E+02  0.00000000000E+00 0.  1.
          5    1    3    3  501    0 -0.20813654096E+02  0.62015684232E+02 -0.39399484812E+02  0.76508579199E+02  0.47000000000E+01 0. -1.
         11    1    6    6    0    0  0.32658913988E+02 -0.14742164914E+03 -0.64788661877E+02  0.16430860600E+03  0.00000000000E+00 0. -1.
        -12    1    6    6    0    0 -0.41592716489E+02 -0.18855711836E+03 -0.11384250253E+03  0.22415141385E+03  0.00000000000E+00 0.  1.
         -5    1    5    5    0  502  0.20224948844E+02  0.74012292034E+01  0.21185964239E+01  0.22145094271E+02  0.47000000000E+01 0.  1.
</event>
<event>
12    1  0.9749377E-001  0.7815848E+03  0.7818608E-02  0.9587062E-01
         21   -1    0    0  501  502  0.00000000000E+00  0.00000000000E+00  0.98931844061E+03  0.98931844061E+03  0.00000000000E+00 0.  1.
         21   -1    0    0  502  503 -0.00000000000E+00 -0.00000000000E+00 -0.67944128590E+03  0.67944128590E+03  0.00000000000E+00 0. -1.
         -6    2    1    2    0  503  0.33846589088E+02 -0.77416024275E+03  0.37165670448E+03  0.87635156130E+03  0.17144585141E+03 0.  0.
        -24    2    3    3    0    0  0.28286721271E+01 -0.17084817729E+03  0.10321054221E+03  0.21526685301E+03  0.80562403833E+02 0.  0.
          6    2    1    2  501    0 -0.33846589088E+02  0.77416024275E+03 -0.61779549762E+02  0.79240816521E+03  0.15370203150E+03 0.  0.
         24    2    5    5    0    0  0.69057845551E+01  0.67191733400E+03 -0.74982803867E+02  0.68145419158E+03  0.85069387873E+02 0.  0.
         12    1    6    6    0    0 -0.41454423548E+00  0.61063725166E+03 -0.91773144773E+02  0.61749521056E+03  0.00000000000E+00 0. -1.
        -11    1    6    6    0    0  0.73203287906E+01  0.61280082344E+02  0.16790340907E+02  0.63958981022E+02  0.00000000000E+00 0.  1.
          5    1    5    5  501    0 -0.40752373643E+02  0.10224290874E+03  0.13203254105E+02  0.11095397363E+03  0.47000000000E+01 0. -1.
         13    1    4    4    0    0  0.18695219760E+02 -0.34364058820E+02  0.59255300770E+02  0.71004157975E+02  0.00000000000E+00 0. -1.
        -14    1    4    4    0    0 -0.15866547633E+02 -0.13648411847E+03  0.43955241444E+02  0.14426269503E+03  0.00000000000E+00 0.  1.
         -5    1    3    3    0  503  0.31017916961E+02 -0.60331206546E+03  0.26844616227E+03  0.66108470829E+03  0.47000000000E+01 0.  1.
</event>
<event>
12    1  0.9749377E-001  0.4066567E+03  0.7818608E-02  0.1041499E+00
         21   -1    0    0  501  502  0.00000000000E+00  0.00000000000E+00  0.24418149574E+03  0.24418149574E+03  0.00000000000E+00 0. -1.
         21   -1    0    0  502  503 -0.00000000000E+00 -0.00000000000E+00 -0.88973527342E+03  0.88973527342E+03  0.00000000000E+00 0.  1.
         -6    2    1    2    0  503 -0.98896877075E+02 -0.37073807246E+03 -0.77940407102E+02  0.42685083138E+03  0.16999886625E+03 0.  0.
        -24    2    3    3    0    0 -0.96975470135E+02 -0.38134290409E+03 -0.88676839075E+02  0.41092866978E+03  0.78562952816E+02 0.  0.
          6    2    1    2  501    0  0.98896877075E+02  0.37073807246E+03 -0.56761337058E+03  0.70706593778E+03  0.17472833556E+03 0.  0.
         24    2    5    5    0    0  0.54379441926E+02  0.73781668120E+02 -0.16536470539E+03  0.20507889934E+03  0.79441871290E+02 0.  0.
         14    1    6    6    0    0  0.65240629771E+02  0.60193453139E+02 -0.16536459689E+03  0.18768335429E+03  0.00000000000E+00 0. -1.
        -13    1    6    6    0    0 -0.10861187845E+02  0.13588214981E+02 -0.10850031783E-03  0.17395545056E+02  0.00000000000E+00 0.  1.
          5    1    5    5  501    0  0.44517435148E+02  0.29695640434E+03 -0.40224866519E+03  0.50198703844E+03  0.47000000000E+01 0. -1.
         13    1    4    4    0    0  0.29528409933E+01 -0.18308475156E+02 -0.21592137810E+02  0.28462957466E+02  0.00000000000E+00 0. -1.
        -14    1    4    4    0    0 -0.99928311129E+02 -0.36303442893E+03 -0.67084701265E+02  0.38246571232E+03  0.00000000000E+00 0.  1.
         -5    1    3    3    0  503 -0.19214069393E+01  0.10604831628E+02  0.10736431973E+02  0.15922161599E+02  0.47000000000E+01 0.  1.
</event>
<event>
12    1  0.9749377E-001  0.5368422E+03  0.7818608E-02  0.1004586E+00
         21   -1    0    0  501  502  0.00000000000E+00  0.00000000000E+00  0.44713290764E+03  0.44713290764E+03  0.00000000000E+00 0. -1.
         21   -1    0    0  502  503 -0.00000000000E+00 -0.00000000000E+00 -0.18130427821E+04  0.18130427821E+04  0.00000000000E+00 0.  1.
         -6    2    1    2    0  503  0.35190734694E+03 -0.39015707066E+03  0.20956417659E+03  0.59042001111E+03  0.16916655931E+03 0.  0.
        -24    2    3    3    0    0  0.31633109368E+03 -0.34280654950E+03  0.23170298272E+03  0.52701686934E+03  0.80491099804E+02 0.  0.
          6    2    1    2  501    0 -0.35190734694E+03  0.39015707066E+03 -0.15754740511E+04  0.16697556786E+04  0.17292836717E+03 0.  0.
         24    2    5    5    0    0 -0.36325104537E+03  0.38241713245E+03 -0.15593085949E+04  0.16480301612E+04  0.79786795500E+02 0.  0.
         14    1    6    6    0    0 -0.10423686093E+03  0.13381608829E+03 -0.60850185516E+03  0.63170133480E+03  0.00000000000E+00 0. -1.
        -13    1    6    6    0    0 -0.25901418444E+03  0.24860104416E+03 -0.95080673977E+03  0.10163288264E+04  0.00000000000E+00 0.  1.
          5    1    5    5  501    0  0.11343698433E+02  0.77399382106E+01 -0.16165456134E+02  0.21725517478E+02  0.47000000000E+01 0. -1.
         11    1    4    4    0    0  0.95088719161E+02 -0.15028505636E+03  0.62954949179E+02  0.18865521011E+03  0.00000000000E+00 0. -1.
        -12    1    4    4    0    0  0.22124237452E+03 -0.19252149314E+03  0.16874803354E+03  0.33836165922E+03  0.00000000000E+00 0.  1.
         -5    1    3    3    0  503  0.35576253252E+02 -0.47350521157E+02 -0.22138806133E+02  0.63403141770E+02  0.47000000000E+01 0.  1.
</event>
<event>
12    1  0.9749377E-001  0.3514864E+03  0.7818608E-02  0.1062007E+00
         21   -1    0    0  503  502  0.00000000000E+00  0.00000000000E+00  0.10535718797E+04  0.10535718797E+04  0.00000000000E+00 0. -1.
         21   -1    0    0  501  503 -0.00000000000E+00 -0.00000000000E+00 -0.20101747575E+03  0.20101747575E+03  0.00000000000E+00 0.  1.
          6    2    1    2  501    0  0.21518983551E+03 -0.23839413892E+03  0.81015634026E+03  0.88754142788E+03  0.16804183932E+03 0.  0.
         24    2    3    3    0    0  0.10117210050E+03 -0.20115747781E+03  0.45041002307E+03  0.50829729073E+03  0.69259093903E+02 0.  0.
         -6    2    1    2    0  502 -0.21518983551E+03  0.23839413892E+03  0.42398063685E+02  0.36704792757E+03  0.17259245217E+03 0.  0.
        -24    2    5    5    0    0 -0.13021905658E+03  0.21124985542E+03  0.76072034551E+02  0.27158656516E+03  0.79929993270E+02 0.  0.
         12    1    4    4    0    0  0.72366383073E+02 -0.18866281898E+03  0.41030696454E+03  0.45736457866E+03  0.00000000000E+00 0. -1.
        -11    1    4    4    0    0  0.28805717422E+02 -0.12494658823E+02  0.40103058531E+02  0.50932712070E+02  0.00000000000E+00 0.  1.
          5    1    3    3  501    0  0.11401773502E+03 -0.37236661116E+02  0.35974631719E+03  0.37924413715E+03  0.47000000000E+01 0. -1.
         13    1    6    6    0    0  0.71668100320E+01 -0.10785799108E+01 -0.72492739921E+00  0.72836817883E+01  0.00000000000E+00 0. -1.
        -14    1    6    6    0    0 -0.13738586662E+03  0.21232843533E+03  0.76796961950E+02  0.26430288337E+03  0.00000000000E+00 0.  1.
         -5    1    5    5    0  502 -0.84970778929E+02  0.27144283507E+02 -0.33673970866E+02  0.95461362408E+02  0.47000000000E+01 0.  1.
</event>
<event>
12    1  0.9749377E-001  0.4126473E+03  0.7818608E-02  0.1039486E+00
         21   -1    0    0  503  502  0.00000000000E+00  0.00000000000E+00  0.83325302746E+03  0.83325302746E+03  0.00000000000E+00 0. -1.
         21   -1    0    0  501  503 -0.00000000000E+00 -0.00000000000E+00 -0.21855372410E+03  0.21855372410E+03  0.00000000000E+00 0.  1.
          6    2    1    2  501    0  0.37197084993E+03 -0.87222479648E+02  0.40802677171E+03  0.58474909764E+03  0.17168455551E+03 0.  0.
         24    2    3    3    0    0  0.36936715724E+03 -0.10721895544E+03  0.40353192387E+03  0.56356108412E+03  0.82674546905E+02 0.  0.
         -6    2    1    2    0  502 -0.37197084993E+03  0.87222479648E+02  0.20667253165E+03  0.46705765392E+03  0.17163694995E+03 0.  0.
        -24    2    5    5    0    0 -0.17040083238E+03  0.10729799041E+03  0.95873803639E+02  0.23612054941E+03  0.77535960742E+02 0.  0.
         12    1    4    4    0    0  0.30441109955E+03 -0.11978694586E+03  0.33065522997E+03  0.46513214362E+03  0.00000000000E+00 0. -1.
        -11    1    4    4    0    0  0.64956057692E+02  0.12567990425E+02  0.72876693898E+02  0.98428940499E+02  0.00000000000E+00 0.  1.
          5    1    3    3  501    0  0.26036926910E+01  0.19996475789E+02  0.44948478489E+01  0.21188013517E+02  0.47000000000E+01 0. -1.
         13    1    6    6    0    0 -0.24888811415E+02  0.42796707523E+02 -0.15002925573E+01  0.49530414759E+02  0.00000000000E+00 0. -1.
        -14    1    6    6    0    0 -0.14551202096E+03  0.64501282887E+02  0.97374096197E+02  0.18659013465E+03  0.00000000000E+00 0.  1.
         -5    1    5    5    0  502 -0.20157001755E+03 -0.20075510762E+02  0.11079872801E+03  0.23093710451E+03  0.47000000000E+01 0.  1.
</event>
<event>
12    1  0.9749377E-001  0.6943730E+03  0.7818608E-02  0.9726904E-01
         21   -1    0    0  503  502  0.00000000000E+00  0.00000000000E+00  0.74306364153E+03  0.74306364153E+03  0.00000000000E+00 0. -1.
         21   -1    0    0  501  503 -0.00000000000E+00 -0.00000000000E+00 -0.94105519461E+03  0.94105519461E+03  0.00000000000E+00 0.  1.
          6    2    1    2  501    0  0.43110001278E+03 -0.53617582106E+03  0.34704285499E+03  0.78966909815E+03  0.17264648640E+03 0.  0.
         24    2    3    3    0    0  0.24125896997E+03 -0.26915853150E+03  0.25409881802E+03  0.44908351644E+03  0.80359129848E+02 0.  0.
         -6    2    1    2    0  502 -0.43110001278E+03  0.53617582106E+03 -0.54503440807E+03  0.89444973799E+03  0.17218041612E+03 0.  0.
        -24    2    5    5    0    0 -0.27893086945E+03  0.29626128190E+03 -0.23158471794E+03  0.47138091082E+03  0.54729374285E+02 0.  0.
         14    1    4    4    0    0  0.10650845709E+03 -0.17575479469E+03  0.15609377746E+03  0.25806794968E+03  0.00000000000E+00 0. -1.
        -13    1    4    4    0    0  0.13475051288E+03 -0.93403736802E+02  0.98005040564E+02  0.19101556676E+03  0.00000000000E+00 0.  1.
          5    1    3    3  501    0  0.18984104281E+03 -0.26701728956E+03  0.92944036968E+02  0.34058558171E+03  0.47000000000E+01 0. -1.
         13    1    6    6    0    0 -0.16740669470E+03  0.19304931322E+03 -0.11685005445E+03  0.28097504159E+03  0.00000000000E+00 0. -1.
        -14    1    6    6    0    0 -0.11152417475E+03  0.10321196868E+03 -0.11473466349E+03  0.19040586923E+03  0.00000000000E+00 0.  1.
         -5    1    5    5    0  502 -0.15216914333E+03  0.23991453915E+03 -0.31344969013E+03  0.42306882717E+03  0.47000000000E+01 0.  1.
</event>
<event>
12    1  0.9749377E-001  0.2655403E+03  0.7818608E-02  0.1103859E+00
         21   -1    0    0  503  502  0.00000000000E+00  0.00000000000E+00  0.32804751424E+03  0.32804751424E+03  0.00000000000E+00 0.  1.
         21   -1    0    0  501  503 -0.00000000000E+00 -0.00000000000E+00 -0.27934256922E+03  0.27934256922E+03  0.00000000000E+00 0. -1.
          6    2    1    2  501    0  0.24759952971E+03 -0.27167791807E+02  0.37612000404E+02  0.30486559451E+03  0.17171124633E+03 0.  0.
         24    2    3    3    0    0  0.21379614710E+03 -0.60745351226E+02 -0.11939308138E+02  0.23596317546E+03  0.78340812379E+02 0.  0.
         -6    2    1    2    0  502 -0.24759952971E+03  0.27167791807E+02  0.11092944614E+02  0.30252448895E+03  0.17133124925E+03 0.  0.
        -24    2    5    5    0    0 -0.18823657717E+03  0.44999085170E+02  0.68294181938E+02  0.21804971929E+03  0.73645489654E+02 0.  0.
         12    1    4    4    0    0  0.69806709445E+02 -0.43589917812E+02  0.25575950446E+02  0.86181128210E+02  0.00000000000E+00 0. -1.
        -11    1    4    4    0    0  0.14398943766E+03 -0.17155433415E+02 -0.37515258584E+02  0.14978204725E+03  0.00000000000E+00 0.  1.
          5    1    3    3  501    0  0.33803382612E+02  0.33577559419E+02  0.49551308542E+02  0.68902419048E+02  0.47000000000E+01 0. -1.
         11    1    6    6    0    0 -0.11773789415E+03  0.23803742841E+02  0.78840061730E+02  0.14368223699E+03  0.00000000000E+00 0. -1.
        -12    1    6    6    0    0 -0.70498683014E+02  0.21195342328E+02 -0.10545879792E+02  0.74367482301E+02  0.00000000000E+00 0.  1.
         -5    1    5    5    0  502 -0.59362952547E+02 -0.17831293362E+02 -0.57201237324E+02  0.84474769662E+02  0.47000000000E+01 0.  1.
</event>
<event>
12    1  0.9749377E-001  0.2932359E+03  0.7818608E-02  0.1088672E+00
         21   -1    0    0  503  502  0.00000000000E+00  0.00000000000E+00  0.15007882466E+04  0.15007882466E+04  0.00000000000E+00 0.  1.
         21   -1    0    0  501  503 -0.00000000000E+00 -0.00000000000E+00 -0.16033652639E+03  0.16033652639E+03  0.00000000000E+00 0. -1.
          6    2    1    2  501    0 -0.26480180948E+03 -0.95033120564E+02  0.54883415506E+02  0.33389743841E+03  0.17124256998E+03 0.  0.
         24    2    3    3    0    0 -0.52736069491E+02 -0.38600287542E+01 -0.69110085614E+01  0.94888962428E+02  0.78486688706E+02 0.  0.
         -6    2    1    2    0  502  0.26480180948E+03  0.95033120564E+02  0.12855683047E+04  0.13272273346E+04  0.17232306665E+03 0.  0.
        -24    2    5    5    0    0  0.14469036589E+03  0.86188594489E+02  0.52616428687E+03  0.55831801820E+03  0.80662115441E+02 0.  0.
         14    1    4    4    0    0 -0.16614894966E+02 -0.14240424964E+01 -0.41557574499E+02  0.44778506339E+02  0.00000000000E+00 0. -1.
        -13    1    4    4    0    0 -0.36121174526E+02 -0.24359862577E+01  0.34646565937E+02  0.50110456089E+02  0.00000000000E+00 0.  1.
          5    1    3    3  501    0 -0.21206573999E+03 -0.91173091810E+02  0.61794424068E+02  0.23900847598E+03  0.47000000000E+01 0. -1.
         13    1    6    6    0    0 -0.57485872512E+01 -0.37927216407E+01  0.58075258165E+02  0.58482190483E+02  0.00000000000E+00 0. -1.
        -14    1    6    6    0    0  0.15043895314E+03  0.89981316129E+02  0.46808902870E+03  0.49983582771E+03  0.00000000000E+00 0.  1.
         -5    1    5    5    0  502  0.12011144359E+03  0.88445260753E+01  0.75940401780E+03  0.76890931636E+03  0.47000000000E+01 0.  1.
</event>
<event>
12    1  0.9749377E-001  0.1141395E+04  0.7818608E-02  0.9165759E-01
         21   -1    0    0  503  502  0.00000000000E+00  0.00000000000E+00  0.62719494765E+03  0.62719494765E+03  0.00000000000E+00 0. -1.
         21   -1    0    0  501  503 -0.00000000000E+00 -0.00000000000E+00 -0.22805250603E+04  0.22805250603E+04  0.00000000000E+00 0.  1.
          6    2    1    2  501    0  0.93098840622E+03  0.64124974132E+03 -0.12533990375E+04  0.16965590569E+04  0.17135589574E+03 0.  0.
         24    2    3    3    0    0  0.27370653098E+03  0.24711486855E+03 -0.40764332950E+03  0.55520610135E+03  0.78100624465E+02 0.  0.
         -6    2    1    2    0  502 -0.93098840622E+03 -0.64124974132E+03 -0.39993107516E+03  0.12111609511E+04  0.17036825198E+03 0.  0.
        -24    2    5    5    0    0 -0.45367538184E+03 -0.27126477058E+03 -0.15516159024E+03  0.55950859548E+03  0.97820353098E+02 0.  0.
         14    1    4    4    0    0  0.17794667793E+03  0.20291923666E+03 -0.26952415186E+03  0.38142431127E+03  0.00000000000E+00 0. -1.
        -13    1    4    4    0    0  0.95759853050E+02  0.44195631888E+02 -0.13811917764E+03  0.17378179009E+03  0.00000000000E+00 0.  1.
          5    1    3    3  501    0  0.65728187524E+03  0.39413487278E+03 -0.84575570797E+03  0.11413529555E+04  0.47000000000E+01 0. -1.
         13    1    6    6    0    0 -0.36211048125E+03 -0.25787322876E+03 -0.13724322784E+03  0.46525079938E+03  0.00000000000E+00 0. -1.
        -14    1    6    6    0    0 -0.91564900597E+02 -0.13391541822E+02 -0.17918362401E+02  0.94257796096E+02  0.00000000000E+00 0.  1.
         -5    1    5    5    0  502 -0.47731302438E+03 -0.36998497074E+03 -0.24476948492E+03  0.65165235561E+03  0.47000000000E+01 0.  1.
</event>
<event>
12    1  0.9749377E-001  0.3498497E+03  0.7818608E-02  0.1062677E+00
         21   -1    0    0  501  502  0.00000000000E+00  0.00000000000E+00  0.15893557457E+04  0.15893557457E+04  0.00000000000E+00 0.  1.
         21   -1    0    0  502  503 -0.00000000000E+00 -0.00000000000E+00 -0.10749502256E+03  0.10749502256E+03  0.00000000000E+00 0. -1.
         -6    2    1    2    0  503 -0.37090844252E+02 -0.32864757469E+03  0.38113602205E+03  0.53431176925E+03  0.17561161800E+03 0.  0.
        -24    2    3    3    0    0  0.31785992851E+02 -0.17354849109E+03  0.26656049490E+03  0.32949627705E+03  0.79899130458E+02 0.  0.
          6    2    1    2  501    0  0.37090844252E+02  0.32864757469E+03  0.11007247011E+04  0.11625389990E+04  0.17469143524E+03 0.  0.
         24    2    5    5    0    0  0.99611261999E+01  0.75273669432E+02  0.22856491592E+03  0.25390313226E+03  0.80371204036E+02 0.  0.
         14    1    6    6    0    0  0.18391778168E+02  0.13191521359E+02  0.15769197368E+03  0.15930797940E+03  0.00000000000E+00 0. -1.
        -13    1    6    6    0    0 -0.84306519679E+01  0.62082148074E+02  0.70872942245E+02  0.94595152860E+02  0.00000000000E+00 0.  1.
          5    1    5    5  501    0  0.27129718052E+02  0.25337390526E+03  0.87215978515E+03  0.90863586672E+03  0.47000000000E+01 0. -1.
         11    1    4    4    0    0 -0.36472558292E+01  0.58611835583E+01  0.87844475165E+00  0.69589951120E+01  0.00000000000E+00 0. -1.
        -12    1    4    4    0    0  0.35433248680E+02 -0.17940967465E+03  0.26568205014E+03  0.32253728194E+03  0.00000000000E+00 0.  1.
         -5    1    3    3    0  503 -0.68876837102E+02 -0.15509908360E+03  0.11457552715E+03  0.20481549220E+03  0.47000000000E+01 0.  1.
</event>
<event>
12    1  0.9749377E-001  0.2825383E+03  0.7818608E-02  0.1094311E+00
         21   -1    0    0  503  502  0.00000000000E+00  0.00000000000E+00  0.15390896884E+03  0.15390896884E+03  0.00000000000E+00 0.  1.
         21   -1    0    0  501  503 -0.00000000000E+00 -0.00000000000E+00 -0.10206336300E+04  0.10206336300E+04  0.00000000000E+00 0. -1.
          6    2    1    2  501    0  0.55850294995E+01 -0.22875998560E+03 -0.83978207969E+03  0.88721621492E+03  0.17191959481E+03 0.  0.
         24    2    3    3    0    0  0.54238496036E+02 -0.21170269986E+03 -0.72866570626E+03  0.76463134943E+03  0.77120305189E+02 0.  0.
         -6    2    1    2    0  502 -0.55850294995E+01  0.22875998560E+03 -0.26942581499E+02  0.28732638395E+03  0.17166311383E+03 0.  0.
        -24    2    5    5    0    0 -0.16772765540E+02  0.24890555813E+03 -0.19768216396E+02  0.26273835750E+03  0.80033490409E+02 0.  0.
         14    1    4    4    0    0  0.33762275947E+02 -0.21392078005E+02 -0.11027316045E+03  0.11729314640E+03  0.00000000000E+00 0. -1.
        -13    1    4    4    0    0  0.20476220089E+02 -0.19031062185E+03 -0.61839254581E+03  0.64733820302E+03  0.00000000000E+00 0.  1.
          5    1    3    3  501    0 -0.48653466536E+02 -0.17057285747E+02 -0.11111637344E+03  0.12258486550E+03  0.47000000000E+01 0. -1.
         13    1    6    6    0    0 -0.43087502512E+02  0.15041550545E+03  0.92667559489E+01  0.15673936939E+03  0.00000000000E+00 0. -1.
        -14    1    6    6    0    0  0.26314736972E+02  0.98490052687E+02 -0.29034972345E+02  0.10599898811E+03  0.00000000000E+00 0.  1.
         -5    1    5    5    0  502  0.11187736041E+02 -0.20145572530E+02 -0.71743651026E+01  0.24588026454E+02  0.47000000000E+01 0.  1.
</event>
<event>
12    1  0.9749377E-001  0.3700282E+03  0.7818608E-02  0.1054682E+00
         21   -1    0    0  503  502  0.00000000000E+00  0.00000000000E+00  0.78559359130E+03  0.78559359130E+03  0.00000000000E+00 0.  1.
         21   -1    0    0  501  503 -0.00000000000E+00 -0.00000000000E+00 -0.33385486235E+03  0.33385486235E+03  0.00000000000E+00 0. -1.
          6    2    1    2  501    0 -0.23090726588E+03 -0.25763252071E+03  0.59276244894E+03  0.70779636379E+03  0.17296152910E+03 0.  0.
         24    2    3    3    0    0 -0.20221982669E+03 -0.27658670316E+03  0.54851991289E+03  0.65156717034E+03  0.79199873452E+02 0.  0.
         -6    2    1    2    0  502  0.23090726588E+03  0.25763252071E+03 -0.14102372000E+03  0.41165208986E+03  0.17284985484E+03 0.  0.
        -24    2    5    5    0    0  0.20332258681E+03  0.20892401685E+03 -0.17181161209E+03  0.34759416945E+03  0.79455380323E+02 0.  0.
         14    1    4    4    0    0 -0.87157744572E+02 -0.62034685563E+02  0.14317282670E+03  0.17872669906E+03  0.00000000000E+00 0. -1.
        -13    1    4    4    0    0 -0.11506208212E+03 -0.21455201760E+03  0.40534708619E+03  0.47284047128E+03  0.00000000000E+00 0.  1.
          5    1    3    3  501    0 -0.28687439185E+02  0.18954182449E+02  0.44242536049E+02  0.56229193444E+02  0.47000000000E+01 0. -1.
         11    1    6    6    0    0  0.65385822571E+02  0.27743255444E+02 -0.19561930651E+02  0.73672675713E+02  0.00000000000E+00 0. -1.
        -12    1    6    6    0    0  0.13793676424E+03  0.18118076140E+03 -0.15224968144E+03  0.27392149374E+03  0.00000000000E+00 0.  1.
         -5    1    5    5    0  502  0.27584679071E+02  0.48708503865E+02  0.30787892092E+02  0.64057920413E+02  0.47000000000E+01 0.  1.
</event>
<event>
12    1  0.9749377E-001  0.5185174E+03  0.7818608E-02  0.1009056E+00
         21   -1    0    0  503  502  0.00000000000E+00  0.00000000000E+00  0.55493986022E+03  0.55493986022E+03  0.00000000000E+00 0. -1.
         21   -1    0    0  501  503 -0.00000000000E+00 -0.00000000000E+00 -0.95982186378E+03  0.95982186378E+03  0.00000000000E+00 0.  1.
          6    2    1    2  501    0  0.47731247101E+03  0.14441876195E+03  0.32153774361E+03  0.61762769104E+03  0.17144524021E+03 0.  0.
         24    2    3    3    0    0  0.21385593694E+03  0.10725678367E+02  0.10697457560E+03  0.25246659096E+03  0.80289587046E+02 0.  0.
         -6    2    1    2    0  502 -0.47731247101E+03 -0.14441876195E+03 -0.72641974717E+03  0.89713403296E+03  0.16875974115E+03 0.  0.
        -24    2    5    5    0    0 -0.13194520059E+03 -0.37678401481E+02 -0.28945187492E+03  0.33000524035E+03  0.79321326682E+02 0.  0.
         12    1    4    4    0    0  0.13815127616E+03 -0.21863150712E+02  0.95233571477E+02  0.16921349119E+03  0.00000000000E+00 0. -1.
        -11    1    4    4    0    0  0.75704660783E+02  0.32588829079E+02  0.11741004119E+02  0.83253099779E+02  0.00000000000E+00 0.  1.
          5    1    3    3  501    0  0.26345653407E+03  0.13369308358E+03  0.21456316801E+03  0.36516110007E+03  0.47000000000E+01 0. -1.
         13    1    6    6    0    0 -0.14252457589E+03 -0.33742669600E+02 -0.27591720515E+03  0.31238138002E+03  0.00000000000E+00 0. -1.
        -14    1    6    6    0    0  0.10579375299E+02 -0.39357318813E+01 -0.13534669762E+02  0.17623860325E+02  0.00000000000E+00 0.  1.
         -5    1    5    5    0  502 -0.34536727041E+03 -0.10674036047E+03 -0.43696787225E+03  0.56712879261E+03  0.47000000000E+01 0.  1.
</event>
<event>
12    1  0.9749377E-001  0.5767305E+03  0.7818608E-02  0.9954895E-01
         21   -1    0    0  501  502  0.00000000000E+00  0.00000000000E+00  0.12703993518E+04  0.12703993518E+04  0.00000000000E+00 0.  1.
         21   -1    0    0  502  503 -0.00000000000E+00 -0.00000000000E+00 -0.29829259581E+03  0.29829259581E+03  0.00000000000E+00 0. -1.
         -6    2    1    2    0  503  0.13943964325E+03 -0.55134551403E+03  0.69209452421E+03  0.91222852543E+03  0.17245510200E+03 0.  0.
        -24    2    3    3    0    0  0.80168028858E+02 -0.35782153963E+03  0.54623001514E+03  0.66270257899E+03  0.79651187557E+02 0.  0.
          6    2    1    2  501    0 -0.13943964325E+03  0.55134551403E+03  0.28001223182E+03  0.65646342222E+03  0.17062263855E+03 0.  0.
         24    2    5    5    0    0 -0.57100544221E+02  0.25664056702E+03  0.66215764875E+02  0.28315155219E+03  0.81642030846E+02 0.  0.
         12    1    6    6    0    0 -0.67306109856E+02  0.12798581529E+03  0.19575280092E+02  0.14592351740E+03  0.00000000000E+00 0. -1.
        -11    1    6    6    0    0  0.10205565635E+02  0.12865475173E+03  0.46640484783E+02  0.13722803479E+03  0.00000000000E+00 0.  1.
          5    1    5    5  501    0 -0.82339099026E+02  0.29470494702E+03  0.21379646694E+03  0.37331187003E+03  0.47000000000E+01 0. -1.
         11    1    4    4    0    0  0.17764563335E+02 -0.21150699719E+03  0.26410233730E+03  0.33882271787E+03  0.00000000000E+00 0. -1.
        -12    1    4    4    0    0  0.62403465523E+02 -0.14631454244E+03  0.28212767784E+03  0.32387986112E+03  0.00000000000E+00 0.  1.
         -5    1    3    3    0  503  0.59271614388E+02 -0.19352397440E+03  0.14586450907E+03  0.24952594644E+03  0.47000000000E+01 0.  1.
</event>
<event>
12    1  0.9749377E-001  0.1178668E+04  0.7818608E-02  0.9131736E-01
         21   -1    0    0  501  502  0.00000000000E+00  0.00000000000E+00  0.14733953518E+04  0.14733953518E+04  0.00000000000E+00 0.  1.
         21   -1    0    0  502  503 -0.00000000000E+00 -0.00000000000E+00 -0.11892400584E+04  0.11892400584E+04  0.00000000000E+00 0. -1.
         -6    2    1    2    0  503  0.13977598566E+02 -0.11682234320E+04  0.74077858392E+03  0.13953647034E+04  0.18261540165E+03 0.  0.
        -24    2    3    3    0    0  0.39930433518E+01 -0.11648061321E+04  0.71995804631E+03  0.13715539062E+04  0.77661182037E+02 0.  0.
          6    2    1    2  501    0 -0.13977598566E+02  0.11682234320E+04 -0.45662329056E+03  0.12672707067E+04  0.18035757368E+03 0.  0.
         24    2    5    5    0    0  0.52744381849E+02  0.66583762540E+03 -0.21791502551E+03  0.70705017237E+03  0.79443531456E+02 0.  0.
         12    1    6    6    0    0 -0.59220932294E+01  0.41370976756E+03 -0.13641468317E+03  0.43566019872E+03  0.00000000000E+00 0. -1.
        -11    1    6    6    0    0  0.58666475079E+02  0.25212785784E+03 -0.81500342339E+02  0.27138997365E+03  0.00000000000E+00 0.  1.
          5    1    5    5  501    0 -0.66721980416E+02  0.50238580658E+03 -0.23870826505E+03  0.56022053437E+03  0.47000000000E+01 0. -1.
         11    1    4    4    0    0 -0.11312007032E+02 -0.43749477997E+02  0.17211174959E+02  0.48354967393E+02  0.00000000000E+00 0. -1.
        -12    1    4    4    0    0  0.15305050384E+02 -0.11210566541E+04  0.70274687135E+03  0.13231989388E+04  0.00000000000E+00 0.  1.
         -5    1    3    3    0  503  0.99845552147E+01 -0.34172998505E+01  0.20820537605E+02  0.23810797283E+02  0.47000000000E+01 0.  1.
</event>
<event>
12    1  0.9749377E-001  0.4889208E+03  0.7818608E-02  0.1016712E+00
         21   -1    0    0  503  502  0.00000000000E+00  0.00000000000E+00  0.12455406644E+04  0.12455406644E+04  0.00000000000E+00 0. -1.
         21   -1    0    0  501  503 -0.00000000000E+00 -0.00000000000E+00 -0.37335783632E+03  0.37335783632E+03  0.00000000000E+00 0.  1.
          6    2    1    2  501    0 -0.35866428437E+03  0.29803825339E+03 -0.11843852444E+03  0.51060200187E+03  0.17093814927E+03 0.  0.
         24    2    3    3    0    0 -0.37283294508E+03  0.29300766355E+03 -0.11825128450E+03  0.49484818204E+03  0.77675357369E+02 0.  0.
         -6    2    1    2    0  502  0.35866428437E+03 -0.29803825339E+03  0.99062135252E+03  0.11082964988E+04  0.17182431700E+03 0.  0.
        -24    2    5    5    0    0  0.22886206422E+03 -0.25533479655E+03  0.79611501308E+03  0.87054240810E+03  0.80444188634E+02 0.  0.
         12    1    4    4    0    0 -0.28649301871E+03  0.21536161418E+03 -0.54959515969E+02  0.36260091427E+03  0.00000000000E+00 0. -1.
        -11    1    4    4    0    0 -0.86339926371E+02  0.77646049373E+02 -0.63291768535E+02  0.13224726777E+03  0.00000000000E+00 0.  1.
          5    1    3    3  501    0  0.14168660712E+02  0.50305898394E+01 -0.18723994101E+00  0.15753819832E+02  0.47000000000E+01 0. -1.
         11    1    6    6    0    0  0.17321230201E+03 -0.13979122163E+03  0.54119731825E+03  0.58518255655E+03  0.00000000000E+00 0. -1.
        -12    1    6    6    0    0  0.55649762206E+02 -0.11554357491E+03  0.25491769483E+03  0.28535985155E+03  0.00000000000E+00 0.  1.
         -5    1    5    5    0  502  0.12980222015E+03 -0.42703456843E+02  0.19450633944E+03  0.23775409074E+03  0.47000000000E+01 0.  1.
</event>
<event>
12    1  0.9749377E-001  0.4207254E+03  0.7818608E-02  0.1036830E+00
         21   -1    0    0  503  502  0.00000000000E+00  0.00000000000E+00  0.56073354383E+03  0.56073354383E+03  0.00000000000E+00 0. -1.
         21   -1    0    0  501  503 -0.00000000000E+00 -0.00000000000E+00 -0.49442440452E+03  0.49442440452E+03  0.00000000000E+00 0.  1.
          6    2    1    2  501    0  0.38741689760E+03  0.13044268760E+03  0.31800188954E+03  0.54578654512E+03  0.17219350682E+03 0.  0.
         24    2    3    3    0    0  0.21075894831E+03  0.52891146060E+02  0.94041877511E+02  0.25014749217E+03  0.80703689427E+02 0.  0.
         -6    2    1    2    0  502 -0.38741689760E+03 -0.13044268760E+03 -0.25169275023E+03  0.50937140323E+03  0.17030219791E+03 0.  0.
        -24    2    5    5    0    0 -0.21234095581E+03 -0.54602856252E+02 -0.20873088794E+03  0.31374145403E+03  0.82431565378E+02 0.  0.
         14    1    4    4    0    0  0.50097491920E+02 -0.19046833697E+02  0.79213332937E+01  0.54178299085E+02  0.00000000000E+00 0. -1.
        -13    1    4    4    0    0  0.16066145639E+03  0.71937979757E+02  0.86120544218E+02  0.19596919309E+03  0.00000000000E+00 0.  1.
          5    1    3    3  501    0  0.17665794928E+03  0.77551541541E+02  0.22396001203E+03  0.29563905295E+03  0.47000000000E+01 0. -1.
         11    1    6    6    0    0 -0.10626617831E+03  0.48575995294E+01 -0.61835356467E+02  0.12304352171E+03  0.00000000000E+00 0. -1.
        -12    1    6    6    0    0 -0.10607477750E+03 -0.59460455781E+02 -0.14689553147E+03  0.19069793232E+03  0.00000000000E+00 0.  1.
         -5    1    5    5    0  502 -0.17507594178E+03 -0.75839831350E+02 -0.42961862291E+02  0.19562994919E+03  0.47000000000E+01 0.  1.
</event>
<event>
12    1  0.9749377E-001  0.4405662E+03  0.7818608E-02  0.1030573E+00
         21   -1    0    0  501  502  0.00000000000E+00  0.00000000000E+00  0.68615902062E+03  0.68615902062E+03  0.00000000000E+00 0. -1.
         21   -1    0    0  502  503 -0.00000000000E+00 -0.00000000000E+00 -0.30972185568E+03  0.30972185568E+03  0.00000000000E+00 0.  1.
         -6    2    1    2    0  503 -0.42646099690E+03  0.17937566266E+01  0.16524366839E+03  0.48857176643E+03  0.17182753440E+03 0.  0.
        -24    2    3    3    0    0 -0.21228652471E+03 -0.68156820487E+01  0.17240770457E+02  0.22804964690E+03  0.81224227852E+02 0.  0.
          6    2    1    2  501    0  0.42646099690E+03 -0.17937566266E+01  0.21119349655E+03  0.50730910987E+03  0.17574879952E+03 0.  0.
         24    2    5    5    0    0  0.15843791080E+03  0.27057461577E+02  0.28795080351E+02  0.18179407227E+03  0.79907760903E+02 0.  0.
         12    1    6    6    0    0  0.11214016046E+03 -0.13372982720E+02 -0.21978623174E+01  0.11295611030E+03  0.00000000000E+00 0. -1.
        -11    1    6    6    0    0  0.46297750343E+02  0.40430444297E+02  0.30992942669E+02  0.68837961970E+02  0.00000000000E+00 0.  1.
          5    1    5    5  501    0  0.26802308609E+03 -0.28851218204E+02  0.18239841620E+03  0.32551503760E+03  0.47000000000E+01 0. -1.
         11    1    4    4    0    0  0.49004561955E+01  0.21424186251E+01 -0.75677484164E+01  0.92668896931E+01  0.00000000000E+00 0. -1.
        -12    1    4    4    0    0 -0.21718698091E+03 -0.89581006738E+01  0.24808518874E+02  0.21878275721E+03  0.00000000000E+00 0.  1.
         -5    1    3    3    0  503 -0.21417447219E+03  0.86094386752E+01  0.14800289793E+03  0.26052211953E+03  0.47000000000E+01 0.  1.
</event>
<event>
12    1  0.9749377E-001  0.3964597E+03  0.7818608E-02  0.1045012E+00
         21   -1    0    0  503  502  0.00000000000E+00  0.00000000000E+00  0.14057969991E+03  0.14057969991E+03  0.00000000000E+00 0.  1.
         21   -1    0    0  501  503 -0.00000000000E+00 -0.00000000000E+00 -0.12610767073E+04  0.12610767073E+04  0.00000000000E+00 0. -1.
          6    2    1    2  501    0  0.10867087474E+03  0.35890619331E+03 -0.41916088762E+03  0.58831142877E+03  0.17260206515E+03 0.  0.
         24    2    3    3    0    0  0.94704941109E+02  0.13247677311E+03 -0.15337285766E+03  0.23883940342E+03  0.83677391645E+02 0.  0.
         -6    2    1    2    0  502 -0.10867087474E+03 -0.35890619331E+03 -0.70133611982E+03  0.81334497849E+03  0.17039567615E+03 0.  0.
        -24    2    5    5    0    0 -0.58217173498E+02 -0.22816071910E+03 -0.56730332240E+03  0.61936859905E+03  0.79610607654E+02 0.  0.
         12    1    4    4    0    0  0.88763129048E+02  0.14257926023E+03 -0.12893242786E+03  0.21173405366E+03  0.00000000000E+00 0. -1.
        -11    1    4    4    0    0  0.59418120605E+01 -0.10102487115E+02 -0.24440429807E+02  0.27105349760E+02  0.00000000000E+00 0.  1.
          5    1    3    3  501    0  0.13965933632E+02  0.22642942020E+03 -0.26578802996E+03  0.34947202535E+03  0.47000000000E+01 0. -1.
         13    1    6    6    0    0 -0.52265211852E+02 -0.67607580908E+02 -0.23998593364E+03  0.25474631639E+03  0.00000000000E+00 0. -1.
        -14    1    6    6    0    0 -0.59519616464E+01 -0.16055313819E+03 -0.32731738875E+03  0.36462228266E+03  0.00000000000E+00 0.  1.
         -5    1    5    5    0  502 -0.50453701242E+02 -0.13074547421E+03 -0.13403279742E+03  0.19397637944E+03  0.47000000000E+01 0.  1.
</event>
<event>
12    1  0.9749377E-001  0.2975593E+03  0.7818608E-02  0.1086467E+00
         21   -1    0    0  501  502  0.00000000000E+00  0.00000000000E+00  0.13662689100E+03  0.13662689100E+03  0.00000000000E+00 0.  1.
         21   -1    0    0  502  503 -0.00000000000E+00 -0.00000000000E+00 -0.10813242145E+04  0.10813242145E+04  0.00000000000E+00 0. -1.
         -6    2    1    2    0  503  0.14297474751E+03  0.23430334557E+03 -0.14361962408E+03  0.35388753305E+03  0.17108463828E+03 0.  0.
        -24    2    3    3    0    0  0.57421433930E+02  0.19210689170E+03 -0.53281880841E+02  0.22242305862E+03  0.80192139681E+02 0.  0.
          6    2    1    2  501    0 -0.14297474751E+03 -0.23430334557E+03 -0.80107769938E+03  0.86406357242E+03  0.17187361800E+03 0.  0.
         24    2    5    5    0    0 -0.12123025238E+03 -0.14384357444E+03 -0.36441935297E+03  0.41757908808E+03  0.78632575860E+02 0.  0.
         12    1    6    6    0    0 -0.84895678720E+02 -0.12583980330E+03 -0.21797254094E+03  0.26562183827E+03  0.00000000000E+00 0. -1.
        -11    1    6    6    0    0 -0.36334573659E+02 -0.18003771137E+02 -0.14644681203E+03  0.15195724981E+03  0.00000000000E+00 0.  1.
          5    1    5    5  501    0 -0.21744495131E+02 -0.90459771134E+02 -0.43665834642E+03  0.44648448434E+03  0.47000000000E+01 0. -1.
         11    1    4    4    0    0  0.63266856947E+02  0.80694392238E+02 -0.40018782130E+02  0.11007171776E+03  0.00000000000E+00 0. -1.
        -12    1    4    4    0    0 -0.58454230168E+01  0.11141249946E+03 -0.13263098711E+02  0.11235134086E+03  0.00000000000E+00 0.  1.
         -5    1    3    3    0  503  0.85553313579E+02  0.42196453879E+02 -0.90337743240E+02  0.13146447443E+03  0.47000000000E+01 0.  1.
</event>
<event>
12    1  0.9749377E-001  0.5778530E+03  0.7818608E-02  0.9952450E-01
         21   -1    0    0  503  502  0.00000000000E+00  0.00000000000E+00  0.17347737591E+04  0.17347737591E+04  0.00000000000E+00 0. -1.
         21   -1    0    0  501  503 -0.00000000000E+00 -0.00000000000E+00 -0.24335520483E+03  0.24335520483E+03  0.00000000000E+00 0.  1.
          6    2    1    2  501    0  0.27601423047E+03  0.47927312119E+03  0.29740897220E+03  0.65114271323E+03  0.17218639936E+03 0.  0.
         24    2    3    3    0    0  0.22874318056E+03  0.47213857053E+03  0.27151581084E+03  0.59657166066E+03  0.83298489400E+02 0.  0.
         -6    2    1    2    0  502 -0.27601423047E+03 -0.47927312119E+03  0.11940095821E+04  0.13269862507E+04  0.17130979941E+03 0.  0.
        -24    2    5    5    0    0 -0.11364878848E+03 -0.11303992796E+03  0.35964366231E+03  0.40141730858E+03  0.78091096492E+02 0.  0.
         12    1    4    4    0    0  0.12388604141E+03  0.32711397024E+03  0.15209387770E+03  0.38142345027E+03  0.00000000000E+00 0. -1.
        -11    1    4    4    0    0  0.10485713916E+03  0.14502460028E+03  0.11942193314E+03  0.21514821039E+03  0.00000000000E+00 0.  1.
          5    1    3    3  501    0  0.47271049911E+02  0.71345506654E+01  0.25893161360E+02  0.54571052565E+02  0.47000000000E+01 0. -1.
         13    1    6    6    0    0 -0.12448460037E+03 -0.92606183286E+02  0.31508668542E+03  0.35121494877E+03  0.00000000000E+00 0. -1.
        -14    1    6    6    0    0  0.10835811887E+02 -0.20433744679E+02  0.44556976890E+02  0.50202359809E+02  0.00000000000E+00 0.  1.
         -5    1    5    5    0  502 -0.16236544199E+03 -0.36623319323E+03  0.83436591979E+03  0.92556894215E+03  0.47000000000E+01 0.  1.
</event>
<event>
12    1  0.9749377E-001  0.2712240E+03  0.7818608E-02  0.1100581E+00
         21   -1    0    0  501  502  0.00000000000E+00  0.00000000000E+00  0.22238519090E+02  0.22238519090E+02  0.00000000000E+00 0. -1.
         21   -1    0    0  502  503 -0.00000000000E+00 -0.00000000000E+00 -0.39721305356E+04  0.39721305356E+04  0.00000000000E+00 0.  1.
         -6    2    1    2    0  503 -0.22174097872E+03 -0.62052455963E+02 -0.14630806381E+04  0.14909812178E+04  0.17146565122E+03 0.  0.
        -24    2    3    3    0    0 -0.70011570315E+02  0.27537752614E+02 -0.58259432093E+03  0.59302439065E+03  0.81251691218E+02 0.  0.
          6    2    1    2  501    0  0.22174097872E+03  0.62052455963E+02 -0.24868113785E+04  0.25033878369E+04  0.17233763595E+03 0.  0.
         24    2    5    5    0    0  0.55198168505E+02  0.37408884665E+02 -0.13771719477E+04  0.13810395979E+04  0.78876707121E+02 0.  0.
         12    1    6    6    0    0  0.22402779010E+02  0.57663090668E+02 -0.68202926689E+03  0.68482905709E+03  0.00000000000E+00 0. -1.
        -11    1    6    6    0    0  0.32795389495E+02 -0.20254206003E+02 -0.69514268080E+03  0.69621054079E+03  0.00000000000E+00 0.  1.
          5    1    5    5  501    0  0.16654281022E+03  0.24643571299E+02 -0.11096394308E+04  0.11223482390E+04  0.47000000000E+01 0. -1.
         11    1    4    4    0    0  0.11337787588E+02  0.74221124008E+01 -0.23806122174E+03  0.23844659460E+03  0.00000000000E+00 0. -1.
        -12    1    4    4    0    0 -0.81349357904E+02  0.20115640213E+02 -0.34453309919E+03  0.35457779605E+03  0.00000000000E+00 0.  1.
         -5    1    3    3    0  503 -0.15172940841E+03 -0.89590208577E+02 -0.88048631714E+03  0.89795682720E+03  0.47000000000E+01 0.  1.
</event>
<event>
12    1  0.9749377E-001  0.3060996E+03  0.7818608E-02  0.1082231E+00
         21   -1    0    0  501  502  0.00000000000E+00  0.00000000000E+00  0.91362732988E+02  0.91362732988E+02  0.00000000000E+00 0.  1.
         21   -1    0    0  502  503 -0.00000000000E+00 -0.00000000000E+00 -0.10849743855E+04  0.10849743855E+04  0.00000000000E+00 0. -1.
         -6    2    1    2    0  503  0.10649580203E+03 -0.24253660476E+03 -0.50235282025E+03  0.59239697928E+03  0.16855404043E+03 0.  0.
        -24    2    3    3    0    0  0.14189684632E+03 -0.21028189271E+03 -0.43607537153E+03  0.51049221388E+03  0.78021672459E+02 0.  0.
          6    2    1    2  501    0 -0.10649580203E+03  0.24253660476E+03 -0.49125883231E+03  0.58394013926E+03  0.17171338159E+03 0.  0.
         24    2    5    5    0    0 -0.12387303016E+03  0.11919308942E+03 -0.32086136406E+03  0.37281700452E+03  0.80554228613E+02 0.  0.
         12    1    6    6    0    0  0.71641951057E+01  0.37745552055E+01 -0.49283858999E+02  0.49944686567E+02  0.00000000000E+00 0. -1.
        -11    1    6    6    0    0 -0.13103722527E+03  0.11541853421E+03 -0.27157750506E+03  0.32287231795E+03  0.00000000000E+00 0.  1.
          5    1    5    5  501    0  0.17377228136E+02  0.12334351534E+03 -0.17039746825E+03  0.21112313474E+03  0.47000000000E+01 0. -1.
         13    1    4    4    0    0  0.13919903882E+02 -0.48337542279E+02 -0.41584795033E+02  0.65265434156E+02  0.00000000000E+00 0. -1.
        -14    1    4    4    0    0  0.12797694244E+03 -0.16194435043E+03 -0.39449057650E+03  0.44522677972E+03  0.00000000000E+00 0.  1.
         -5    1    3    3    0  503 -0.35401044296E+02 -0.32254712056E+02 -0.66277448714E+02  0.81904765399E+02  0.47000000000E+01 0.  1.
</event>
<event>
12    1  0.9749377E-001  0.7779743E+03  0.7818608E-02  0.9592457E-01
         21   -1    0    0  503  502  0.00000000000E+00  0.00000000000E+00  0.16794851780E+04  0.16794851780E+04  0.00000000000E+00 0. -1.
         21   -1    0    0  501  503 -0.00000000000E+00 -0.00000000000E+00 -0.37026775810E+03  0.37026775810E+03  0.00000000000E+00 0.  1.
          6    2    1    2  501    0 -0.31997661719E+03  0.69922512137E+03  0.61549204580E+03  0.99984017970E+03  0.17189857653E+03 0.  0.
         24    2    3    3    0    0 -0.20522798780E+03  0.35375493180E+03  0.25086873434E+03  0.48458378810E+03  0.68009169053E+02 0.  0.
         -6    2    1    2    0  502  0.31997661719E+03 -0.69922512137E+03  0.69372537413E+03  0.10499127564E+04  0.17251404428E+03 0.  0.
        -24    2    5    5    0    0  0.83585893434E+02 -0.20044379493E+03  0.25821117998E+03  0.34680672658E+03  0.80234503987E+02 0.  0.
         12    1    4    4    0    0 -0.47755394045E+02  0.14239976595E+03  0.76473904229E+02  0.16854236568E+03  0.00000000000E+00 0. -1.
        -11    1    4    4    0    0 -0.15747259375E+03  0.21135516585E+03  0.17439483011E+03  0.31604142242E+03  0.00000000000E+00 0.  1.
          5    1    3    3  501    0 -0.11474862939E+03  0.34547018957E+03  0.36462331146E+03  0.51525639160E+03  0.47000000000E+01 0. -1.
         11    1    6    6    0    0  0.60960825410E+02 -0.66145413012E+02  0.67512230598E+02  0.11246928104E+03  0.00000000000E+00 0. -1.
        -12    1    6    6    0    0  0.22625068024E+02 -0.13429838192E+03  0.19069894938E+03  0.23433744554E+03  0.00000000000E+00 0.  1.
         -5    1    5    5    0  502  0.23639072376E+03 -0.49878132644E+03  0.43551419415E+03  0.70310602983E+03  0.47000000000E+01 0.  1.
</event>
<event>
12    1  0.9749377E-001  0.4121596E+03  0.7818608E-02  0.1039649E+00
         21   -1    0    0  503  502  0.00000000000E+00  0.00000000000E+00  0.21898707826E+03  0.21898707826E+03  0.00000000000E+00 0.  1.
         21   -1    0    0  501  503 -0.00000000000E+00 -0.00000000000E+00 -0.12098595699E+04  0.12098595699E+04  0.00000000000E+00 0. -1.
          6    2    1    2  501    0  0.30578724497E+03  0.25749398514E+03 -0.11287597763E+03  0.44889921679E+03  0.17017793319E+03 0.  0.
         24    2    3    3    0    0  0.20712535564E+03  0.15200556201E+03 -0.13781902793E+03  0.30224921993E+03  0.79711370959E+02 0.  0.
         -6    2    1    2    0  502 -0.30578724497E+03 -0.25749398514E+03 -0.87799651405E+03  0.97994743141E+03  0.17207584978E+03 0.  0.
        -24    2    5    5    0    0 -0.25761252449E+03 -0.25374873837E+03 -0.66837466842E+03  0.76477717619E+03  0.86062749405E+02 0.  0.
         12    1    4    4    0    0  0.16479001207E+03  0.84631148906E+02 -0.71168342217E+02  0.19845178855E+03  0.00000000000E+00 0. -1.
        -11    1    4    4    0    0  0.42335343564E+02  0.67374413100E+02 -0.66650685716E+02  0.10379743138E+03  0.00000000000E+00 0.  1.
          5    1    3    3  501    0  0.98661889327E+02  0.10548842313E+03  0.24943050306E+02  0.14664999686E+03  0.47000000000E+01 0. -1.
         13    1    6    6    0    0 -0.13555796690E+02 -0.39212394289E+02 -0.41466761506E+02  0.58658876563E+02  0.00000000000E+00 0. -1.
        -14    1    6    6    0    0 -0.24405672780E+03 -0.21453634408E+03 -0.62690790691E+03  0.70611829962E+03  0.00000000000E+00 0.  1.
         -5    1    5    5    0  502 -0.48174720475E+02 -0.37452467650E+01 -0.20962184563E+03  0.21517025522E+03  0.47000000000E+01 0.  1.
</event>
<event>
12    1  0.9749377E-001  0.5196528E+03  0.7818608E-02  0.1008773E+00
         21   -1    0    0  503  502  0.00000000000E+00  0.00000000000E+00  0.71875191535E+03  0.71875191535E+03  0.00000000000E+00 0. -1.
         21   -1    0    0  501  503 -0.00000000000E+00 -0.00000000000E+00 -0.39741123705E+03  0.39741123705E+03  0.00000000000E+00 0.  1.
          6    2    1    2  501    0  0.49489319687E+03 -0.97311235310E+02  0.10058005642E+03  0.53935834389E+03  0.16248791509E+03 0.  0.
         24    2    3    3    0    0  0.46077200924E+03 -0.46199679679E+02  0.97977847742E+02  0.47766954382E+03  0.64212767761E+02 0.  0.
         -6    2    1    2    0  502 -0.49489319687E+03  0.97311235310E+02  0.22076062188E+03  0.57680480850E+03  0.17198773825E+03 0.  0.
        -24    2    5    5    0    0 -0.48976385058E+03  0.88779719210E+02  0.23713458917E+03  0.55707427975E+03  0.79677298512E+02 0.  0.
         12    1    4    4    0    0  0.12460838529E+02  0.95465172596E+01  0.20169026670E+01  0.15826445748E+02  0.00000000000E+00 0. -1.
        -11    1    4    4    0    0  0.44831117071E+03 -0.55746196939E+02  0.95960945075E+02  0.46184309807E+03  0.00000000000E+00 0.  1.
          5    1    3    3  501    0  0.34121187631E+02 -0.51111555631E+02  0.26022086744E+01  0.61688800072E+02  0.47000000000E+01 0. -1.
         13    1    6    6    0    0 -0.32375466666E+03  0.76938283636E+02  0.19381292720E+03  0.38509743497E+03  0.00000000000E+00 0. -1.
        -14    1    6    6    0    0 -0.16600918392E+03  0.11841435574E+02  0.43321661962E+02  0.17197684477E+03  0.00000000000E+00 0.  1.
         -5    1    5    5    0  502 -0.51293462894E+01  0.85315161008E+01 -0.16373967281E+02  0.19730528752E+02  0.47000000000E+01 0.  1.
</event>
<event>
12    1  0.9749377E-001  0.3723558E+03  0.7818608E-02  0.1053796E+00
         21   -1    0    0  503  502  0.00000000000E+00  0.00000000000E+00  0.14794214428E+04  0.14794214428E+04  0.00000000000E+00 0. -1.
         21   -1    0    0  501  503 -0.00000000000E+00 -0.00000000000E+00 -0.10910776104E+03  0.10910776104E+03  0.00000000000E+00 0.  1.
          6    2    1    2  501    0 -0.17983648999E+03  0.28965543007E+03  0.93111977200E+03  0.10063740506E+04  0.17193972401E+03 0.  0.
         24    2    3    3    0    0 -0.43320196264E+02  0.17975512664E+03  0.41176646556E+03  0.45822742604E+03  0.78944327599E+02 0.  0.
         -6    2    1    2    0  502  0.17983648999E+03 -0.28965543007E+03  0.43919390977E+03  0.58215515320E+03  0.17254535845E+03 0.  0.
        -24    2    5    5    0    0  0.17168932113E+03 -0.30499478612E+03  0.40512074166E+03  0.54362279032E+03  0.94360374519E+02 0.  0.
         12    1    4    4    0    0 -0.62416057245E+01  0.15786577196E+03  0.32447853651E+03  0.36089732647E+03  0.00000000000E+00 0. -1.
        -11    1    4    4    0    0 -0.37078590540E+02  0.21889354682E+02  0.87287929045E+02  0.97330099567E+02  0.00000000000E+00 0.  1.
          5    1    3    3  501    0 -0.13651629372E+03  0.10990030343E+03  0.51935330644E+03  0.54814662460E+03  0.47000000000E+01 0. -1.
         13    1    6    6    0    0  0.39760980629E+02 -0.84825347977E+02  0.52219994456E+02  0.10725298626E+03  0.00000000000E+00 0. -1.
        -14    1    6    6    0    0  0.13192834050E+03 -0.22016943815E+03  0.35290074720E+03  0.43636980406E+03  0.00000000000E+00 0.  1.
         -5    1    5    5    0  502  0.81471688610E+01  0.15339356053E+02  0.34073168106E+02  0.38532362883E+02  0.47000000000E+01 0.  1.
</event>
<event>
12    1  0.9749377E-001  0.4124898E+03  0.7818608E-02  0.1039539E+00
         21   -1    0    0  503  502  0.00000000000E+00  0.00000000000E+00  0.92437526134E+03  0.92437526134E+03  0.00000000000E+00 0. -1.
         21   -1    0    0  501  503 -0.00000000000E+00 -0.00000000000E+00 -0.20581421336E+03  0.20581421336E+03  0.00000000000E+00 0.  1.
          6    2    1    2  501    0  0.81543066380E+02 -0.38543679065E+03  0.26123090077E+03  0.50275454609E+03  0.17120093117E+03 0.  0.
         24    2    3    3    0    0  0.59352732280E+02 -0.33995952721E+03  0.15812643024E+03  0.38780579985E+03  0.79335638217E+02 0.  0.
         -6    2    1    2    0  502 -0.81543066380E+02  0.38543679065E+03  0.45733014722E+03  0.62743492862E+03  0.17121020658E+03 0.  0.
        -24    2    5    5    0    0 -0.82442286635E+02  0.14824932959E+03  0.16039026057E+03  0.24736376876E+03  0.81787554413E+02 0.  0.
         14    1    4    4    0    0 -0.14865548870E+02 -0.64817861867E+02  0.12091365366E+02  0.67590982214E+02  0.00000000000E+00 0. -1.
        -13    1    4    4    0    0  0.74218281150E+02 -0.27514166534E+03  0.14603506488E+03  0.32021481764E+03  0.00000000000E+00 0.  1.
          5    1    3    3  501    0  0.22190334100E+02 -0.45477263440E+02  0.10310447053E+03  0.11494874623E+03  0.47000000000E+01 0. -1.
         13    1    6    6    0    0 -0.18467572496E+02  0.10865013576E+03  0.11600088428E+03  0.16000658857E+03  0.00000000000E+00 0. -1.
        -14    1    6    6    0    0 -0.63974714140E+02  0.39599193832E+02  0.44389376298E+02  0.87357180183E+02  0.00000000000E+00 0.  1.
         -5    1    5    5    0  502  0.89922025542E+00  0.23718746106E+03  0.29693988664E+03  0.38007115986E+03  0.47000000000E+01 0.  1.
</event>
<event>
12    1  0.9749377E-001  0.2343754E+03  0.7818608E-02  0.1123598E+00
         21   -1    0    0  503  502  0.00000000000E+00  0.00000000000E+00  0.73943069403E+02  0.73943069403E+02  0.00000000000E+00 0. -1.
         21   -1    0    0  501  503 -0.00000000000E+00 -0.00000000000E+00 -0.12007452641E+04  0.12007452641E+04  0.00000000000E+00 0.  1.
          6    2    1    2  501    0  0.17196477782E+03  0.10195451663E+03 -0.26809724635E+03  0.37601863413E+03  0.17189319778E+03 0.  0.
         24    2    3    3    0    0  0.16326865142E+03  0.30728584573E+02 -0.22857000169E+03  0.29396225667E+03  0.81047296255E+02 0.  0.
         -6    2    1    2    0  502 -0.17196477782E+03 -0.10195451663E+03 -0.85870494832E+03  0.89866969934E+03  0.17397250352E+03 0.  0.
        -24    2    5    5    0    0 -0.11554186125E+03 -0.27775656813E+02 -0.30019288656E+03  0.33241546149E+03  0.79138240342E+02 0.  0.
         12    1    4    4    0    0  0.30244173922E+02 -0.19137519923E+02 -0.18295240324E+02  0.40195404508E+02  0.00000000000E+00 0. -1.
        -11    1    4    4    0    0  0.13302447750E+03  0.49866104496E+02 -0.21027476136E+03  0.25376685217E+03  0.00000000000E+00 0.  1.
          5    1    3    3  501    0  0.86961263975E+01  0.71225932053E+02 -0.39527244666E+02  0.82056377461E+02  0.47000000000E+01 0. -1.
         11    1    6    6    0    0 -0.24035194474E+02  0.10818798275E+02 -0.14782872835E+02  0.30220362320E+02  0.00000000000E+00 0. -1.
        -12    1    6    6    0    0 -0.91506666772E+02 -0.38594455088E+02 -0.28541001373E+03  0.30219509917E+03  0.00000000000E+00 0.  1.
         -5    1    5    5    0  502 -0.56422916574E+02 -0.74178859813E+02 -0.55851206176E+03  0.56625423785E+03  0.47000000000E+01 0.  1.
</event>
<event>
12    1  0.9749377E-001  0.1619585E+03  0.7818608E-02  0.1186503E+00
         21   -1    0    0  503  502  0.00000000000E+00  0.00000000000E+00  0.15565929505E+04  0.15565929505E+04  0.00000000000E+00 0.  1.
         21   -1    0    0  501  503 -0.00000000000E+00 -0.00000000000E+00 -0.26516105888E+02  0.26516105888E+02  0.00000000000E+00 0.  1.
          6    2    1    2  501    0 -0.99365006207E+02  0.21296467512E+02  0.58738340610E+03  0.62013593202E+03  0.17094550137E+03 0.  0.
         24    2    3    3    0    0 -0.17931373064E+02  0.58099387831E+02  0.38634661492E+03  0.40008190921E+03  0.84289704039E+02 0.  0.
         -6    2    1    2    0  502  0.99365006207E+02 -0.21296467512E+02  0.94269343849E+03  0.96297312434E+03  0.16828361549E+03 0.  0.
        -24    2    5    5    0    0  0.10762187009E+03 -0.43284932921E+01  0.44220964888E+03  0.46211166484E+03  0.79978837477E+02 0.  0.
         14    1    4    4    0    0 -0.31504814807E+02  0.60870667332E+02  0.37743910725E+03  0.38361187570E+03  0.00000000000E+00 0. -1.
        -13    1    4    4    0    0  0.13573441743E+02 -0.27712795012E+01  0.89075076754E+01  0.16470033509E+02  0.00000000000E+00 0.  1.
          5    1    3    3  501    0 -0.81433633143E+02 -0.36802920319E+02  0.20103679118E+03  0.22005402282E+03  0.47000000000E+01 0. -1.
         11    1    6    6    0    0  0.79673839892E+02  0.32762692729E+02  0.25214479568E+03  0.26645508587E+03  0.00000000000E+00 0. -1.
        -12    1    6    6    0    0  0.27948030193E+02 -0.37091186021E+02  0.19006485320E+03  0.19565657897E+03  0.00000000000E+00 0.  1.
         -5    1    5    5    0  502 -0.82568638786E+01 -0.16967974220E+02  0.50048378960E+03  0.50086145949E+03  0.47000000000E+01 0.  1.
</event>
<event>
12    1  0.9749377E-001  0.4090792E+03  0.7818608E-02  0.1040680E+00
         21   -1    0    0  503  502  0.00000000000E+00  0.00000000000E+00  0.25104805922E+04  0.25104805922E+04  0.00000000000E+00 0.  1.
         21   -1    0    0  501  503 -0.00000000000E+00 -0.00000000000E+00 -0.70551889805E+02  0.70551889805E+02  0.00000000000E+00 0. -1.
          6    2    1    2  501    0 -0.11417855554E+03  0.36307098028E+03  0.10162505794E+04  0.10972386626E+04  0.16220407945E+03 0.  0.
         24    2    3    3    0    0 -0.93055158651E+01  0.98495403798E+02  0.23531264479E+03  0.26604389736E+03  0.74962506143E+02 0.  0.
         -6    2    1    2    0  502  0.11417855554E+03 -0.36307098028E+03  0.14236781230E+04  0.14837938194E+04  0.17299543703E+03 0.  0.
        -24    2    5    5    0    0  0.12672240626E+03 -0.21205891943E+03  0.10221679544E+04  0.10546149566E+04  0.79735978385E+02 0.  0.
         14    1    4    4    0    0  0.31432898650E+02  0.58898022056E+02  0.13955470937E+03  0.15470139310E+03  0.00000000000E+00 0. -1.
        -13    1    4    4    0    0 -0.40738414515E+02  0.39597381742E+02  0.95757935423E+02  0.11134250426E+03  0.00000000000E+00 0.  1.
          5    1    3    3  501    0 -0.10487303967E+03  0.26457557648E+03  0.78093793457E+03  0.83119476524E+03  0.47000000000E+01 0. -1.
         11    1    6    6    0    0  0.43099820514E+02 -0.14463827658E+03  0.64722998432E+03  0.66459346835E+03  0.00000000000E+00 0. -1.
        -12    1    6    6    0    0  0.83622585749E+02 -0.67420642855E+02  0.37493797003E+03  0.39002148826E+03  0.00000000000E+00 0.  1.
         -5    1    5    5    0  502 -0.12543850724E+02 -0.15101206084E+03  0.40151016869E+03  0.42917886280E+03  0.47000000000E+01 0.  1.
</event>
<event>
12    1  0.9749377E-001  0.3103693E+03  0.7818608E-02  0.1080169E+00
         21   -1    0    0  501  502  0.00000000000E+00  0.00000000000E+00  0.11834365704E+04  0.11834365704E+04  0.00000000000E+00 0. -1.
         21   -1    0    0  502  503 -0.00000000000E+00 -0.00000000000E+00 -0.10933185490E+03  0.10933185490E+03  0.00000000000E+00 0.  1.
         -6    2    1    2    0  503  0.15561516846E+03 -0.24413512338E+03  0.76346735421E+03  0.83457517821E+03  0.17267103990E+03 0.  0.
        -24    2    3    3    0    0  0.11672270320E+03 -0.19245694083E+03  0.71402868115E+03  0.75303052296E+03  0.80957689511E+02 0.  0.
          6    2    1    2  501    0 -0.15561516846E+03  0.24413512338E+03  0.31063736129E+03  0.45819324708E+03  0.17212623950E+03 0.  0.
         24    2    5    5    0    0 -0.64662166209E+02  0.21431414792E+03  0.18434852629E+03  0.29966028824E+03  0.75499400413E+02 0.  0.
         14    1    6    6    0    0 -0.49096213895E+02  0.99534253836E+02  0.48457068689E+02  0.12110158303E+03  0.00000000000E+00 0. -1.
        -13    1    6    6    0    0 -0.15565952313E+02  0.11477989409E+03  0.13589145760E+03  0.17855870521E+03  0.00000000000E+00 0.  1.
          5    1    5    5  501    0 -0.90953002248E+02  0.29820975458E+02  0.12628883500E+03  0.15853295885E+03  0.47000000000E+01 0. -1.
         13    1    4    4    0    0  0.28067959409E+02 -0.10508828165E+03  0.25082189358E+03  0.27339162311E+03  0.00000000000E+00 0. -1.
        -14    1    4    4    0    0  0.88654743792E+02 -0.87368659179E+02  0.46320678757E+03  0.47963889986E+03  0.00000000000E+00 0.  1.
         -5    1    3    3    0  503  0.38892465256E+02 -0.51678182554E+02  0.49438673055E+02  0.81544655246E+02  0.47000000000E+01 0.  1.
</event>
<event>
12    1  0.9749377E-001  0.2857608E+03  0.7818608E-02  0.1092583E+00
         21   -1    0    0  503  502  0.00000000000E+00  0.00000000000E+00  0.16943328886E+04  0.16943328886E+04  0.00000000000E+00 0. -1.
         21   -1    0    0  501  503 -0.00000000000E+00 -0.00000000000E+00 -0.66502969836E+02  0.66502969836E+02  0.00000000000E+00 0.  1.
          6    2    1    2  501    0 -0.13228589090E+03 -0.23199105208E+03  0.10990689022E+04  0.11442408811E+04  0.17324934888E+03 0.  0.
         24    2    3    3    0    0 -0.29791785024E+01 -0.57766807940E+02  0.30461511285E+03  0.32067957396E+03  0.81848289974E+02 0.  0.
         -6    2    1    2    0  502  0.13228589090E+03  0.23199105208E+03  0.52876101654E+03  0.61659497737E+03  0.17111910568E+03 0.  0.
        -24    2    5    5    0    0  0.13270039772E+03  0.11410763223E+03  0.26372434910E+03  0.32648603649E+03  0.80079038618E+02 0.  0.
         14    1    4    4    0    0 -0.98568269074E+01 -0.27471774136E+02  0.27869864860E+03  0.28022275451E+03  0.00000000000E+00 0. -1.
        -13    1    4    4    0    0  0.68776484050E+01 -0.30295033804E+02  0.25916464248E+02  0.40456819449E+02  0.00000000000E+00 0.  1.
          5    1    3    3  501    0 -0.12930671240E+03 -0.17422424414E+03  0.79445378938E+03  0.82356130711E+03  0.47000000000E+01 0. -1.
         13    1    6    6    0    0  0.42712956089E+02  0.24308088953E+02  0.14284269179E+03  0.15106063155E+03  0.00000000000E+00 0. -1.
        -14    1    6    6    0    0  0.89987441633E+02  0.89799543277E+02  0.12088165731E+03  0.17542540494E+03  0.00000000000E+00 0.  1.
         -5    1    5    5    0  502 -0.41450681916E+00  0.11788341985E+03  0.26503666744E+03  0.29010894088E+03  0.47000000000E+01 0.  1.
</event>
<event>
12    1  0.9749377E-001  0.2364808E+03  0.7818608E-02  0.1122160E+00
         21   -1    0    0  501  502  0.00000000000E+00  0.00000000000E+00  0.42157504398E+03  0.42157504398E+03  0.00000000000E+00 0. -1.
         21   -1    0    0  502  503 -0.00000000000E+00 -0.00000000000E+00 -0.21970134240E+03  0.21970134240E+03  0.00000000000E+00 0.  1.
         -6    2    1    2    0  503 -0.16259032231E+03  0.91083733367E+02  0.27788884737E+03  0.37673781469E+03  0.17313956837E+03 0.  0.
        -24    2    3    3    0    0 -0.16707275057E+03  0.11946219815E+03  0.22084411597E+03  0.31269391719E+03  0.82588386107E+02 0.  0.
          6    2    1    2  501    0  0.16259032231E+03 -0.91083733367E+02 -0.76015145787E+02  0.26453857169E+03  0.17166972398E+03 0.  0.
         24    2    5    5    0    0  0.71450078046E+02 -0.98951502991E+02 -0.89518809256E+02  0.17194869724E+03  0.81585683032E+02 0.  0.
         12    1    6    6    0    0  0.32752333326E+02 -0.99565335028E+02 -0.80628445692E+02  0.13223810923E+03  0.00000000000E+00 0. -1.
        -11    1    6    6    0    0  0.38697744719E+02  0.61383203664E+00 -0.88903635635E+01  0.39710588014E+02  0.00000000000E+00 0.  1.
          5    1    5    5  501    0  0.91140244263E+02  0.78677696239E+01  0.13503663469E+02  0.92589874448E+02  0.47000000000E+01 0. -1.
         11    1    4    4    0    0 -0.14483675649E+03  0.85656319616E+02  0.21305030372E+03  0.27148687452E+03  0.00000000000E+00 0. -1.
        -12    1    4    4    0    0 -0.22235994080E+02  0.33805878536E+02  0.77938122473E+01  0.41207042671E+02  0.00000000000E+00 0.  1.
         -5    1    3    3    0  503  0.44824282636E+01 -0.28378464784E+02  0.57044731394E+02  0.64043897496E+02  0.47000000000E+01 0.  1.
</event>
<event>
12    1  0.9749377E-001  0.1916742E+03  0.7818608E-02  0.1156960E+00
         21   -1    0    0  503  502  0.00000000000E+00  0.00000000000E+00  0.95213818644E+02  0.95213818644E+02  0.00000000000E+00 0. -1.
         21   -1    0    0  501  503 -0.00000000000E+00 -0.00000000000E+00 -0.62735865962E+03  0.62735865962E+03  0.00000000000E+00 0.  1.
          6    2    1    2  501    0 -0.12247635887E+03  0.11880792985E+03 -0.20537868583E+03  0.31673677624E+03  0.17037017977E+03 0.  0.
         24    2    3    3    0    0 -0.55635047848E+02  0.42455673968E+02 -0.25233082193E+02  0.10992295575E+03  0.80923451256E+02 0.  0.
         -6    2    1    2    0  502  0.12247635887E+03 -0.11880792985E+03 -0.32676615515E+03  0.40583570202E+03  0.16973719159E+03 0.  0.
        -24    2    5    5    0    0  0.10152804855E+03 -0.12801247573E+03 -0.17131902320E+03  0.24864328426E+03  0.76014054700E+02 0.  0.
         12    1    4    4    0    0 -0.28004366036E+02  0.50104353076E+02 -0.46789145872E+02  0.74053459647E+02  0.00000000000E+00 0. -1.
        -11    1    4    4    0    0 -0.27630681812E+02 -0.76486791083E+01  0.21556063679E+02  0.35869496105E+02  0.00000000000E+00 0.  1.
          5    1    3    3  501    0 -0.66841311026E+02  0.76352255879E+02 -0.18014560363E+03  0.20681382049E+03  0.47000000000E+01 0. -1.
         11    1    6    6    0    0  0.10229635200E+03 -0.95917094985E+02 -0.10574556869E+03  0.17563245156E+03  0.00000000000E+00 0. -1.
        -12    1    6    6    0    0 -0.76830345061E+00 -0.32095380748E+02 -0.65573454507E+02  0.73010832700E+02  0.00000000000E+00 0.  1.
         -5    1    5    5    0  502  0.20948310327E+02  0.92045458867E+01 -0.15544713195E+03  0.15719241777E+03  0.47000000000E+01 0.  1.
</event>
<event>
12    1  0.9749377E-001  0.3304443E+03  0.7818608E-02  0.1070940E+00
         21   -1    0    0  501  502  0.00000000000E+00  0.00000000000E+00  0.94919465070E+02  0.94919465070E+02  0.00000000000E+00 0.  1.
         21   -1    0    0  502  503 -0.00000000000E+00 -0.00000000000E+00 -0.14642751672E+04  0.14642751672E+04  0.00000000000E+00 0. -1.
         -6    2    1    2    0  503 -0.46952263803E+02  0.30197798859E+03 -0.94142639070E+03  0.10047911423E+04  0.17299239805E+03 0.  0.
        -24    2    3    3    0    0 -0.51469874603E+02  0.68083482720E+02 -0.22345993226E+03  0.24965872067E+03  0.71488648548E+02 0.  0.
          6    2    1    2  501    0  0.46952263803E+02 -0.30197798859E+03 -0.42792931146E+03  0.55440349004E+03  0.17562606154E+03 0.  0.
         24    2    5    5    0    0 -0.17131618814E+02 -0.15362244675E+03 -0.13797547781E+03  0.22242242665E+03  0.80877406542E+02 0.  0.
         14    1    6    6    0    0 -0.31466145273E+01 -0.10223026284E+03 -0.37934458826E+02  0.10908689651E+03  0.00000000000E+00 0. -1.
        -13    1    6    6    0    0 -0.13985004287E+02 -0.51392183914E+02 -0.10004101899E+03  0.11333553014E+03  0.00000000000E+00 0.  1.
          5    1    5    5  501    0  0.64083882618E+02 -0.14835554184E+03 -0.28995383364E+03  0.33198106339E+03  0.47000000000E+01 0. -1.
         13    1    4    4    0    0 -0.35570193410E+02  0.81475922843E+02 -0.16217603771E+03  0.18494494281E+03  0.00000000000E+00 0. -1.
        -14    1    4    4    0    0 -0.15899681193E+02 -0.13392440123E+02 -0.61283894547E+02  0.64713777863E+02  0.00000000000E+00 0.  1.
         -5    1    3    3    0  503  0.45176107998E+01  0.23389450587E+03 -0.71796645844E+03  0.75513242159E+03  0.47000000000E+01 0.  1.
</event>
<event>
12    1  0.9749377E-001  0.8524107E+03  0.7818608E-02  0.9487107E-01
         21   -1    0    0  501  502  0.00000000000E+00  0.00000000000E+00  0.13249589338E+04  0.13249589338E+04  0.00000000000E+00 0. -1.
         21   -1    0    0  502  503 -0.00000000000E+00 -0.00000000000E+00 -0.58004049845E+03  0.58004049845E+03  0.00000000000E+00 0.  1.
         -6    2    1    2    0  503  0.74282881226E+03 -0.39775928849E+03  0.18709657024E+03  0.87991203420E+03  0.17097650547E+03 0.  0.
        -24    2    3    3    0    0  0.57378105955E+03 -0.36929530612E+03  0.15411762979E+03  0.70527801259E+03  0.89783650008E+02 0.  0.
          6    2    1    2  501    0 -0.74282881226E+03  0.39775928849E+03  0.55782186508E+03  0.10250873980E+04  0.17213902663E+03 0.  0.
         24    2    5    5    0    0 -0.25699678190E+03  0.16694463893E+03  0.26445350988E+03  0.41239233029E+03  0.78828401095E+02 0.  0.
         14    1    6    6    0    0 -0.57754217206E+02  0.52783758506E+02  0.28838513144E+02  0.83386657251E+02  0.00000000000E+00 0. -1.
        -13    1    6    6    0    0 -0.19924256470E+03  0.11416088043E+03  0.23561499673E+03  0.32900567304E+03  0.00000000000E+00 0.  1.
          5    1    5    5  501    0 -0.48583203036E+03  0.23081464956E+03  0.29336835520E+03  0.61269506772E+03  0.47000000000E+01 0. -1.
         11    1    4    4    0    0  0.37843779925E+02 -0.53416536098E+02  0.23942069013E+02  0.69704380611E+02  0.00000000000E+00 0. -1.
        -12    1    4    4    0    0  0.53593727962E+03 -0.31587877002E+03  0.13017556078E+03  0.63557363198E+03  0.00000000000E+00 0.  1.
         -5    1    3    3    0  503  0.16904775272E+03 -0.28463982368E+02  0.32978940447E+02  0.17463402161E+03  0.47000000000E+01 0.  1.
</event>
<event>
12    1  0.9749377E-001  0.1863003E+03  0.7818608E-02  0.1161841E+00
         21   -1    0    0  503  502  0.00000000000E+00  0.00000000000E+00  0.67701777880E+02  0.67701777880E+02  0.00000000000E+00 0. -1.
         21   -1    0    0  501  503 -0.00000000000E+00 -0.00000000000E+00 -0.63129363543E+03  0.63129363543E+03  0.00000000000E+00 0. -1.
          6    2    1    2  501    0 -0.21787552362E+02  0.96240821344E+02 -0.34819776009E+03  0.40533202277E+03  0.18252499944E+03 0.  0.
         24    2    3    3    0    0  0.36085012244E+02  0.74819330898E+02 -0.31328172217E+03  0.33427335904E+03  0.81811861813E+02 0.  0.
         -6    2    1    2    0  502  0.21787552362E+02 -0.96240821344E+02 -0.21539409746E+03  0.29366339054E+03  0.17351246812E+03 0.  0.
        -24    2    5    5    0    0  0.80851552538E+02 -0.51422207546E+02 -0.14134572797E+03  0.18877051526E+03  0.80464126421E+02 0.  0.
         14    1    4    4    0    0  0.54293178932E+02  0.27647410321E+02 -0.21864771474E+03  0.22697786619E+03  0.00000000000E+00 0. -1.
        -13    1    4    4    0    0 -0.18208166688E+02  0.47171920576E+02 -0.94634007427E+02  0.10729549285E+03  0.00000000000E+00 0.  1.
          5    1    3    3  501    0 -0.57872564606E+02  0.21421490446E+02 -0.34916037918E+02  0.71058663728E+02  0.47000000000E+01 0. -1.
         11    1    6    6    0    0 -0.22275741306E+01  0.17095288202E+02 -0.16029204835E+02  0.23540313780E+02  0.00000000000E+00 0. -1.
        -12    1    6    6    0    0  0.83079126669E+02 -0.68517495748E+02 -0.12531652314E+03  0.16523020148E+03  0.00000000000E+00 0.  1.
         -5    1    5    5    0  502 -0.59064000176E+02 -0.44818613798E+02 -0.74048369491E+02  0.10489287528E+03  0.47000000000E+01 0.  1.
</event>
<event>
12    1  0.9749377E-001  0.3442706E+03  0.7818608E-02  0.1064991E+00
         21   -1    0    0  503  502  0.00000000000E+00  0.00000000000E+00  0.59944940097E+03  0.59944940097E+03  0.00000000000E+00 0. -1.
         21   -1    0    0  501  503 -0.00000000000E+00 -0.00000000000E+00 -0.22035257914E+03  0.22035257914E+03  0.00000000000E+00 0.  1.
          6    2    1    2  501    0  0.31196747467E+03 -0.72247948395E+02  0.17266524603E+03  0.40211550293E+03  0.17128957706E+03 0.  0.
         24    2    3    3    0    0  0.30273691204E+03 -0.25106085215E+02  0.14420853014E+03  0.34608485748E+03  0.81845433481E+02 0.  0.
         -6    2    1    2    0  502 -0.31196747467E+03  0.72247948395E+02  0.20643157580E+03  0.41768647718E+03  0.17118564902E+03 0.  0.
        -24    2    5    5    0    0 -0.15649005256E+03  0.21581740785E+02  0.17880226428E+03  0.25177757978E+03  0.80416365773E+02 0.  0.
         12    1    4    4    0    0  0.11669066208E+03 -0.23846191369E+02  0.98363526912E+02  0.15446920368E+03  0.00000000000E+00 0. -1.
        -11    1    4    4    0    0  0.18604624997E+03 -0.12598938459E+01  0.45845003224E+02  0.19161565380E+03  0.00000000000E+00 0.  1.
          5    1    3    3  501    0  0.92305626248E+01 -0.47141863180E+02  0.28456715892E+02  0.56030645452E+02  0.47000000000E+01 0. -1.
         11    1    6    6    0    0 -0.15592790363E+03  0.61095533864E+01  0.17734819530E+03  0.23622705211E+03  0.00000000000E+00 0. -1.
        -12    1    6    6    0    0 -0.56214893307E+00  0.15472187398E+02  0.14540689791E+01  0.15550527673E+02  0.00000000000E+00 0.  1.
         -5    1    5    5    0  502 -0.15547742211E+03  0.50666207610E+02  0.27629311518E+02  0.16590889739E+03  0.47000000000E+01 0.  1.
</event>
<event>
12    1  0.9749377E-001  0.7333267E+03  0.7818608E-02  0.9661877E-01
         21   -1    0    0  503  502  0.00000000000E+00  0.00000000000E+00  0.48251639466E+03  0.48251639466E+03  0.00000000000E+00 0.  1.
         21   -1    0    0  501  503 -0.00000000000E+00 -0.00000000000E+00 -0.13321917081E+04  0.13321917081E+04  0.00000000000E+00 0. -1.
          6    2    1    2  501    0  0.57645714782E+03 -0.43165449242E+03 -0.76612304844E+02  0.74431840421E+03  0.17179056287E+03 0.  0.
         24    2    3    3    0    0  0.57741152772E+03 -0.40245868491E+03 -0.85691883658E+02  0.71336949843E+03  0.78586748071E+02 0.  0.
         -6    2    1    2    0  502 -0.57645714782E+03  0.43165449242E+03 -0.77306300859E+03  0.10703896985E+04  0.17169521659E+03 0.  0.
        -24    2    5    5    0    0 -0.43117075067E+03  0.25802253479E+03 -0.59005990432E+03  0.77923953097E+03  0.80992044326E+02 0.  0.
         14    1    4    4    0    0  0.36136095628E+03 -0.20899309983E+03 -0.66667954114E+02  0.42273451788E+03  0.00000000000E+00 0. -1.
        -13    1    4    4    0    0  0.21605057144E+03 -0.19346558507E+03 -0.19023929544E+02  0.29063498055E+03  0.00000000000E+00 0.  1.
          5    1    3    3  501    0 -0.95437989458E+00 -0.29195807514E+02  0.90795788138E+01  0.30948905778E+02  0.47000000000E+01 0. -1.
         11    1    6    6    0    0 -0.58377997927E+02  0.24797366746E+02 -0.11887178490E+03  0.13473455861E+03  0.00000000000E+00 0. -1.
        -12    1    6    6    0    0 -0.37279275274E+03  0.23322516804E+03 -0.47118811942E+03  0.64450497235E+03  0.00000000000E+00 0.  1.
         -5    1    5    5    0  502 -0.14528639715E+03  0.17363195763E+03 -0.18300310427E+03  0.29115016758E+03  0.47000000000E+01 0.  1.
</event>
<event>
12    1  0.9749377E-001  0.4729927E+03  0.7818608E-02  0.1021079E+00
         21   -1    0    0  503  502  0.00000000000E+00  0.00000000000E+00  0.13225593198E+03  0.13225593198E+03  0.00000000000E+00 0. -1.
         21   -1    0    0  501  503 -0.00000000000E+00 -0.00000000000E+00 -0.18349686581E+04  0.18349686581E+04  0.00000000000E+00 0.  1.
          6    2    1    2  501    0  0.32614570613E+03  0.31297335724E+03 -0.10416394508E+04  0.11482210365E+04  0.17051527587E+03 0.  0.
         24    2    3    3    0    0  0.12861923935E+03  0.71161898112E+02 -0.42910807799E+03  0.46068466694E+03  0.80558644960E+02 0.  0.
         -6    2    1    2    0  502 -0.32614570613E+03 -0.31297335724E+03 -0.66107327536E+03  0.81900355360E+03  0.17153892106E+03 0.  0.
        -24    2    5    5    0    0 -0.19653153056E+03 -0.10785960677E+03 -0.28568074307E+03  0.37199893568E+03  0.80693146590E+02 0.  0.
         12    1    4    4    0    0  0.37115579528E+02  0.51579839607E+02 -0.25746628081E+03  0.26519225451E+03  0.00000000000E+00 0. -1.
        -11    1    4    4    0    0  0.91503659826E+02  0.19582058505E+02 -0.17164179718E+03  0.19549241243E+03  0.00000000000E+00 0.  1.
          5    1    3    3  501    0  0.19752646678E+03  0.24181145913E+03 -0.61253137280E+03  0.68753636958E+03  0.47000000000E+01 0. -1.
         11    1    6    6    0    0 -0.96724970149E+02 -0.90791277597E+02 -0.12626103159E+03  0.18314099496E+03  0.00000000000E+00 0. -1.
        -12    1    6    6    0    0 -0.99806560414E+02 -0.17068329168E+02 -0.15941971148E+03  0.18885794071E+03  0.00000000000E+00 0.  1.
         -5    1    5    5    0  502 -0.12961417557E+03 -0.20511375047E+03 -0.37539253230E+03  0.44700461792E+03  0.47000000000E+01 0.  1.
</event>
<event>
12    1  0.9749377E-001  0.3643095E+03  0.7818608E-02  0.1056890E+00
         21   -1    0    0  501  502  0.00000000000E+00  0.00000000000E+00  0.26443920475E+03  0.26443920475E+03  0.00000000000E+00 0.  1.
         21   -1    0    0  502  503 -0.00000000000E+00 -0.00000000000E+00 -0.74354773608E+03  0.74354773608E+03  0.00000000000E+00 0. -1.
         -6    2    1    2    0  503 -0.10475456276E+02  0.34290366518E+03 -0.49199633848E+03  0.62390478949E+03  0.17176766427E+03 0.  0.
        -24    2    3    3    0    0  0.38087618986E+02  0.90244959874E+02 -0.19244455113E+03  0.22900207115E+03  0.76237942180E+02 0.  0.
          6    2    1    2  501    0  0.10475456276E+02 -0.34290366518E+03  0.12887807151E+02  0.38408215135E+03  0.17222178907E+03 0.  0.
         24    2    5    5    0    0  0.71952588076E+02 -0.18826062385E+03 -0.13485140275E+01  0.21699334021E+03  0.80405558155E+02 0.  0.
         12    1    6    6    0    0  0.14203468572E+02 -0.97069075548E+02 -0.34636784407E+02  0.10403773729E+03  0.00000000000E+00 0. -1.
        -11    1    6    6    0    0  0.57749119504E+02 -0.91191548298E+02  0.33288270379E+02  0.11295560291E+03  0.00000000000E+00 0.  1.
          5    1    5    5  501    0 -0.61477131800E+02 -0.15464304133E+03  0.14236321179E+02  0.16708881114E+03  0.47000000000E+01 0. -1.
         13    1    4    4    0    0  0.10405150917E+02  0.12620807937E+02  0.32370260878E+01  0.16674240506E+02  0.00000000000E+00 0. -1.
        -14    1    4    4    0    0  0.27682468069E+02  0.77624151938E+02 -0.19568157722E+03  0.21232783065E+03  0.00000000000E+00 0.  1.
         -5    1    3    3    0  503 -0.48563075262E+02  0.25265870531E+03 -0.29955178735E+03  0.39490271834E+03  0.47000000000E+01 0.  1.
</event>
<event>
12    1  0.9749377E-001  0.3941774E+03  0.7818608E-02  0.1045815E+00
         21   -1    0    0  503  502  0.00000000000E+00  0.00000000000E+00  0.27205837250E+03  0.27205837250E+03  0.00000000000E+00 0.  1.
         21   -1    0    0  501  503 -0.00000000000E+00 -0.00000000000E+00 -0.64071934625E+03  0.64071934625E+03  0.00000000000E+00 0. -1.
          6    2    1    2  501    0 -0.26607499241E+03  0.24013628855E+03 -0.32242699097E+03  0.51172248738E+03  0.17157913894E+03 0.  0.
         24    2    3    3    0    0 -0.23744853644E+03  0.12735394538E+03 -0.23216712452E+03  0.36438524021E+03  0.79209814487E+02 0.  0.
         -6    2    1    2    0  502  0.26607499241E+03 -0.24013628855E+03 -0.46233982779E+02  0.40105523137E+03  0.17391486073E+03 0.  0.
        -24    2    5    5    0    0  0.67950969610E+02 -0.29589764135E+02 -0.99168038210E+01  0.10963801355E+03  0.80182682700E+02 0.  0.
         14    1    4    4    0    0 -0.19618693508E+03  0.13566278533E+03 -0.20251328632E+03  0.31289828373E+03  0.00000000000E+00 0. -1.
        -13    1    4    4    0    0 -0.41261601355E+02 -0.83088399515E+01 -0.29653838198E+02  0.51486956480E+02  0.00000000000E+00 0.  1.
          5    1    3    3  501    0 -0.28626455968E+02  0.11278234317E+03 -0.90259866451E+02  0.14733724717E+03  0.47000000000E+01 0. -1.
         13    1    6    6    0    0 -0.13482342709E+02 -0.13606490660E+02 -0.17965520856E+02  0.26261570643E+02  0.00000000000E+00 0. -1.
        -14    1    6    6    0    0  0.81433312319E+02 -0.15983273475E+02  0.80487170345E+01  0.83376442909E+02  0.00000000000E+00 0.  1.
         -5    1    5    5    0  502  0.19812402280E+03 -0.21054652442E+03 -0.36317178958E+02  0.29141721782E+03  0.47000000000E+01 0.  1.
</event>
<event>
12    1  0.9749377E-001  0.1689536E+03  0.7818608E-02  0.1178944E+00
         21   -1    0    0  503  502  0.00000000000E+00  0.00000000000E+00  0.20622468475E+03  0.20622468475E+03  0.00000000000E+00 0. -1.
         21   -1    0    0  501  503 -0.00000000000E+00 -0.00000000000E+00 -0.57960098946E+03  0.57960098946E+03  0.00000000000E+00 0. -1.
          6    2    1    2  501    0  0.73568012500E+02  0.33950680204E+02  0.14251894814E+03  0.23603038943E+03  0.16980516190E+03 0.  0.
         24    2    3    3    0    0  0.45774823451E+00  0.68805845789E+02  0.68008445230E+02  0.12587641378E+03  0.80531167720E+02 0.  0.
         -6    2    1    2    0  502 -0.73568012500E+02 -0.33950680204E+02 -0.51589525285E+03  0.54979528478E+03  0.17193615705E+03 0.  0.
        -24    2    5    5    0    0 -0.61527867589E+02  0.45380049271E+02 -0.29807280093E+03  0.31761638762E+03  0.78662237851E+02 0.  0.
         12    1    4    4    0    0 -0.30318562082E+02  0.58380877071E+02  0.21632386408E+02  0.69249564302E+02  0.00000000000E+00 0. -1.
        -11    1    4    4    0    0  0.30776310317E+02  0.10424968718E+02  0.46376058822E+02  0.56626849474E+02  0.00000000000E+00 0.  1.
          5    1    3    3  501    0  0.73110264265E+02 -0.34855165585E+02  0.74510502912E+02  0.11015397566E+03  0.47000000000E+01 0. -1.
         13    1    6    6    0    0 -0.32311343885E+02  0.13902552953E+02 -0.30314346941E+02  0.46435584983E+02  0.00000000000E+00 0. -1.
        -14    1    6    6    0    0 -0.29216523703E+02  0.31477496318E+02 -0.26775845399E+03  0.27118080263E+03  0.00000000000E+00 0.  1.
         -5    1    5    5    0  502 -0.12040144911E+02 -0.79330729474E+02 -0.21782245192E+03  0.23217889717E+03  0.47000000000E+01 0.  1.
</event>
<event>
12    1  0.9749377E-001  0.2788426E+03  0.7818608E-02  0.1096323E+00
         21   -1    0    0  503  502  0.00000000000E+00  0.00000000000E+00  0.20161128179E+03  0.20161128179E+03  0.00000000000E+00 0. -1.
         21   -1    0    0  501  503 -0.00000000000E+00 -0.00000000000E+00 -0.45406607381E+03  0.45406607381E+03  0.00000000000E+00 0.  1.
          6    2    1    2  501    0  0.26562449123E+02  0.24525479887E+03 -0.16222264083E+03  0.34086055106E+03  0.17033569797E+03 0.  0.
         24    2    3    3    0    0  0.59907647530E+00  0.25523708524E+03 -0.12693872995E+03  0.29568547909E+03  0.78550192946E+02 0.  0.
         -6    2    1    2    0  502 -0.26562449123E+02 -0.24525479887E+03 -0.90232151195E+02  0.31481680453E+03  0.17352895792E+03 0.  0.
        -24    2    5    5    0    0  0.59091094617E+01 -0.14980975711E+03 -0.12146211016E+03  0.20916852746E+03  0.80749908808E+02 0.  0.
         12    1    4    4    0    0  0.36794275497E+02  0.10636461097E+03 -0.39490015246E+02  0.11927577491E+03  0.00000000000E+00 0. -1.
        -11    1    4    4    0    0 -0.36195199022E+02  0.14887247427E+03 -0.87448714702E+02  0.17640970419E+03  0.00000000000E+00 0.  1.
          5    1    3    3  501    0  0.25963372648E+02 -0.99822863705E+01 -0.35283910878E+02  0.45175071968E+02  0.47000000000E+01 0. -1.
         11    1    6    6    0    0 -0.22403347651E+02 -0.20336706169E+02 -0.13199471675E+01  0.30285869053E+02  0.00000000000E+00 0. -1.
        -12    1    6    6    0    0  0.28312457113E+02 -0.12947305095E+03 -0.12014216299E+03  0.17888265840E+03  0.00000000000E+00 0.  1.
         -5    1    5    5    0  502 -0.32471558585E+02 -0.95445041753E+02  0.31229958966E+02  0.10564827708E+03  0.47000000000E+01 0.  1.
</event>
<event>
12    1  0.9749377E-001  0.2371767E+03  0.7818608E-02  0.1121688E+00
         21   -1    0    0  501  502  0.00000000000E+00  0.00000000000E+00  0.56612978740E+02  0.56612978740E+02  0.00000000000E+00 0. -1.
         21   -1    0    0  502  503 -0.00000000000E+00 -0.00000000000E+00 -0.13498483414E+04  0.13498483414E+04  0.00000000000E+00 0.  1.
         -6    2    1    2    0  503 -0.15255303737E+03 -0.12075082902E+03 -0.40154039173E+03  0.47814852935E+03  0.17186662856E+03 0.  0.
        -24    2    3    3    0    0 -0.11321658250E+03 -0.89545942286E+01 -0.24732560283E+03  0.28359764678E+03  0.79746423953E+02 0.  0.
          6    2    1    2  501    0  0.15255303737E+03  0.12075082902E+03 -0.89169497092E+03  0.92831279078E+03  0.16968065428E+03 0.  0.
         24    2    5    5    0    0  0.15487854800E+03  0.46475642586E+02 -0.67210195288E+03  0.69643912929E+03  0.84611321674E+02 0.  0.
         12    1    6    6    0    0  0.27629718852E+02  0.74018645259E+01 -0.29783151599E+03  0.29920193997E+03  0.00000000000E+00 0. -1.
        -11    1    6    6    0    0  0.12724882915E+03  0.39073778060E+02 -0.37427043689E+03  0.39723718932E+03  0.00000000000E+00 0.  1.
          5    1    5    5  501    0 -0.23255106346E+01  0.74275186431E+02 -0.21959301804E+03  0.23187366149E+03  0.47000000000E+01 0. -1.
         13    1    4    4    0    0 -0.10662057043E+02 -0.13148603995E+02 -0.12505025696E+01  0.16974363143E+02  0.00000000000E+00 0. -1.
        -14    1    4    4    0    0 -0.10255452546E+03  0.41940097668E+01 -0.24607510026E+03  0.26662328364E+03  0.00000000000E+00 0.  1.
         -5    1    3    3    0  503 -0.39336454868E+02 -0.11179623479E+03 -0.15421478890E+03  0.19455088257E+03  0.47000000000E+01 0.  1.
</event>
<event>
12    1  0.9749377E-001  0.2716261E+03  0.7818608E-02  0.1100353E+00
         21   -1    0    0  503  502  0.00000000000E+00  0.00000000000E+00  0.22806024017E+03  0.22806024017E+03  0.00000000000E+00 0. -1.
         21   -1    0    0  501  503 -0.00000000000E+00 -0.00000000000E+00 -0.37791105327E+03  0.37791105327E+03  0.00000000000E+00 0.  1.
          6    2    1    2  501    0 -0.21374181137E+03 -0.87620129167E+02 -0.16789369581E+02  0.28860607129E+03  0.17218807303E+03 0.  0.
         24    2    3    3    0    0 -0.10344710893E+03  0.19255377913E+02  0.11363352860E+02  0.13239480032E+03  0.79543594571E+02 0.  0.
         -6    2    1    2    0  502  0.21374181137E+03  0.87620129167E+02 -0.13306144352E+03  0.31736522215E+03  0.17219897652E+03 0.  0.
        -24    2    5    5    0    0  0.94845806105E+02  0.10287413162E+03 -0.43326890985E+02  0.16755425934E+03  0.81353527575E+02 0.  0.
         12    1    4    4    0    0  0.20517296029E+01  0.23791399127E+02 -0.77022454687E+01  0.25091130944E+02  0.00000000000E+00 0. -1.
        -11    1    4    4    0    0 -0.10549883854E+03 -0.45360212144E+01  0.19065598329E+02  0.10730366937E+03  0.00000000000E+00 0.  1.
          5    1    3    3  501    0 -0.11029470243E+03 -0.10687550708E+03 -0.28152722442E+02  0.15621127098E+03  0.47000000000E+01 0. -1.
         11    1    6    6    0    0  0.49180315725E+02  0.59307885564E+02  0.18464547646E+02  0.79227951284E+02  0.00000000000E+00 0. -1.
        -12    1    6    6    0    0  0.45665490380E+02  0.43566246055E+02 -0.61791438631E+02  0.88326308057E+02  0.00000000000E+00 0.  1.
         -5    1    5    5    0  502  0.11889600526E+03 -0.15254002451E+02 -0.89734552534E+02  0.14981096281E+03  0.47000000000E+01 0.  1.
</event>
<event>
12    1  0.9749377E-001  0.4924145E+03  0.7818608E-02  0.1015778E+00
         21   -1    0    0  501  502  0.00000000000E+00  0.00000000000E+00  0.61582584792E+03  0.61582584792E+03  0.00000000000E+00 0. -1.
         21   -1    0    0  502  503 -0.00000000000E+00 -0.00000000000E+00 -0.42680578930E+03  0.42680578930E+03  0.00000000000E+00 0.  1.
         -6    2    1    2    0  503 -0.37243890277E+03 -0.29847786814E+03  0.16992409326E+03  0.53496164819E+03  0.17178473008E+03 0.  0.
        -24    2    3    3    0    0 -0.11880331507E+03 -0.15160352861E+03  0.32638089893E+02  0.21127565887E+03  0.80463044676E+02 0.  0.
          6    2    1    2  501    0  0.37243890277E+03  0.29847786814E+03  0.19095965360E+02  0.50766998903E+03  0.17194297834E+03 0.  0.
         24    2    5    5    0    0  0.20718893926E+03  0.10813821543E+03 -0.36229313360E+02  0.24956204592E+03  0.79671333780E+02 0.  0.
         12    1    6    6    0    0  0.25853014766E+02  0.39009807689E+02 -0.29618067434E+02  0.55383872986E+02  0.00000000000E+00 0. -1.
        -11    1    6    6    0    0  0.18133592450E+03  0.69128407744E+02 -0.66112459259E+01  0.19417817293E+03  0.00000000000E+00 0.  1.
          5    1    5    5  501    0  0.16524996351E+03  0.19033965271E+03  0.55325278719E+02  0.25810794312E+03  0.47000000000E+01 0. -1.
         11    1    4    4    0    0 -0.55811941597E+02 -0.10966545168E+03  0.51327890695E+02  0.13332680331E+03  0.00000000000E+00 0. -1.
        -12    1    4    4    0    0 -0.62991373478E+02 -0.41938076930E+02 -0.18689800802E+02  0.77948855560E+02  0.00000000000E+00 0.  1.
         -5    1    3    3    0  503 -0.25363558770E+03 -0.14687433954E+03  0.13728600337E+03  0.32368598932E+03  0.47000000000E+01 0.  1.
</event>
<event>
12    1  0.9749377E-001  0.8827055E+03  0.7818608E-02  0.9447462E-01
         21   -1    0    0  501  502  0.00000000000E+00  0.00000000000E+00  0.10376506756E+04  0.10376506756E+04  0.00000000000E+00 0. -1.
         21   -1    0    0  502  503 -0.00000000000E+00 -0.00000000000E+00 -0.10114306457E+04  0.10114306457E+04  0.00000000000E+00 0.  1.
         -6    2    1    2    0  503  0.24461157507E+03  0.83785790611E+03 -0.49461078377E+03  0.10180955871E+04  0.17331504132E+03 0.  0.
        -24    2    3    3    0    0  0.18239849580E+03  0.55215776462E+03 -0.25517878532E+03  0.64014742932E+03  0.80778156032E+02 0.  0.
          6    2    1    2  501    0 -0.24461157507E+03 -0.83785790611E+03  0.52083081364E+03  0.10309857342E+04  0.17270250187E+03 0.  0.
         24    2    5    5    0    0 -0.22328843403E+03 -0.55161016924E+03  0.31660934419E+03  0.67867771299E+03  0.78933248393E+02 0.  0.
         12    1    6    6    0    0 -0.41454311302E+02 -0.19494958488E+03  0.90412453994E+02  0.21885660238E+03  0.00000000000E+00 0. -1.
        -11    1    6    6    0    0 -0.18183412273E+03 -0.35666058436E+03  0.22619689019E+03  0.45982111060E+03  0.00000000000E+00 0.  1.
          5    1    5    5  501    0 -0.21323141040E+02 -0.28624773687E+03  0.20422146946E+03  0.35230802119E+03  0.47000000000E+01 0. -1.
         13    1    4    4    0    0  0.39082112967E+02  0.46835313460E+02 -0.37289734008E+02  0.71494631989E+02  0.00000000000E+00 0. -1.
        -14    1    4    4    0    0  0.14331638283E+03  0.50532245116E+03 -0.21788905131E+03  0.56865279733E+03  0.00000000000E+00 0.  1.
         -5    1    3    3    0  503  0.62213079275E+02  0.28570014149E+03 -0.23943199846E+03  0.37794815778E+03  0.47000000000E+01 0.  1.
</event>
<event>
12    1  0.9749377E-001  0.1799044E+03  0.7818608E-02  0.1167896E+00
         21   -1    0    0  501  502  0.00000000000E+00  0.00000000000E+00  0.19867612465E+03  0.19867612465E+03  0.00000000000E+00 0.  1.
         21   -1    0    0  502  503 -0.00000000000E+00 -0.00000000000E+00 -0.40648844438E+03  0.40648844438E+03  0.00000000000E+00 0. -1.
         -6    2    1    2    0  503 -0.22869727406E+02 -0.10002704765E+03  0.11060070213E+03  0.22892885236E+03  0.17218440533E+03 0.  0.
        -24    2    3    3    0    0  0.45051387597E+02 -0.87545965999E+02  0.47082178559E+02  0.13498339957E+03  0.79434645686E+02 0.  0.
          6    2    1    2  501    0  0.22869727406E+02  0.10002704765E+03 -0.31841302185E+03  0.37623571667E+03  0.17215698451E+03 0.  0.
         24    2    5    5    0    0  0.58316606454E+02  0.29433036533E+02 -0.10483788142E+03  0.14847174618E+03  0.82375650564E+02 0.  0.
         14    1    6    6    0    0  0.56078479896E+02  0.46208059006E+02 -0.43161583386E+02  0.84515696205E+02  0.00000000000E+00 0. -1.
        -13    1    6    6    0    0  0.22381265583E+01 -0.16775022473E+02 -0.61676298037E+02  0.63956049980E+02  0.00000000000E+00 0.  1.
          5    1    5    5  501    0 -0.35446879048E+02  0.70594011118E+02 -0.21357514043E+03  0.22776397048E+03  0.47000000000E+01 0. -1.
         11    1    4    4    0    0 -0.16777826662E+02 -0.28672122199E+01 -0.52330722096E+01  0.17807341692E+02  0.00000000000E+00 0. -1.
        -12    1    4    4    0    0  0.61829214259E+02 -0.84678753779E+02  0.52315250769E+02  0.11717605788E+03  0.00000000000E+00 0.  1.
         -5    1    3    3    0  503 -0.67921115003E+02 -0.12481081653E+02  0.63518523571E+02  0.93945452786E+02  0.47000000000E+01 0.  1.
</event>
<event>
12    1  0.9749377E-001  0.6022816E+03  0.7818608E-02  0.9900684E-01
         21   -1    0    0  501  502  0.00000000000E+00  0.00000000000E+00  0.57641174059E+03  0.57641174059E+03  0.00000000000E+00 0.  1.
         21   -1    0    0  502  503 -0.00000000000E+00 -0.00000000000E+00 -0.68207855699E+03  0.68207855699E+03  0.00000000000E+00 0. -1.
         -6    2    1    2    0  503  0.53004552324E+03  0.25791699875E+03 -0.18033952718E+03  0.64010925786E+03  0.17247632296E+03 0.  0.
        -24    2    3    3    0    0  0.23420585629E+03  0.14952146171E+03 -0.31362523391E+02  0.29155949290E+03  0.82548648671E+02 0.  0.
          6    2    1    2  501    0 -0.53004552324E+03 -0.25791699875E+03  0.74672710781E+02  0.61838103972E+03  0.17131742932E+03 0.  0.
         24    2    5    5    0    0 -0.45785849846E+03 -0.25555685769E+03  0.25486263268E+02  0.53087142063E+03  0.78937972520E+02 0.  0.
         14    1    6    6    0    0 -0.25751041468E+03 -0.18785270055E+03  0.12432836792E+02  0.31899032306E+03  0.00000000000E+00 0. -1.
        -13    1    6    6    0    0 -0.20034808377E+03 -0.67704157142E+02  0.13053426476E+02  0.21188109757E+03  0.00000000000E+00 0.  1.
          5    1    5    5  501    0 -0.72187024788E+02 -0.23601410583E+01  0.49186447513E+02  0.87509619085E+02  0.47000000000E+01 0. -1.
         11    1    4    4    0    0  0.43332798415E+02  0.64955701166E+02 -0.27410557501E+02  0.82754535797E+02  0.00000000000E+00 0. -1.
        -12    1    4    4    0    0  0.19087305787E+03  0.84565760544E+02 -0.39519658897E+01  0.20880495710E+03  0.00000000000E+00 0.  1.
         -5    1    3    3    0  503  0.29583966696E+03  0.10839553704E+03 -0.14897700379E+03  0.34854976496E+03  0.47000000000E+01 0.  1.
</event>
<event>
12    1  0.9749377E-001  0.1181018E+04  0.7818608E-02  0.9129635E-01
         21   -1    0    0  501  502  0.00000000000E+00  0.00000000000E+00  0.10595164899E+04  0.10595164899E+04  0.00000000000E+00 0. -1.
         21   -1    0    0  502  503 -0.00000000000E+00 -0.00000000000E+00 -0.16421616643E+04  0.16421616643E+04  0.00000000000E+00 0.  1.
         -6    2    1    2    0  503  0.24701209311E+03 -0.11480511875E+04 -0.88081200562E+03  0.14779392882E+04  0.17157577697E+03 0.  0.
        -24    2    3    3    0    0  0.20605803773E+03 -0.68114951350E+03 -0.48978052520E+03  0.86752785609E+03  0.79341310596E+02 0.  0.
          6    2    1    2  501    0 -0.24701209311E+03  0.11480511875E+04  0.29816683122E+03  0.12237388659E+04  0.17203734938E+03 0.  0.
         24    2    5    5    0    0 -0.13725027154E+03  0.81301109788E+03  0.26391238458E+03  0.86948616486E+03  0.80819315991E+02 0.  0.
         12    1    6    6    0    0 -0.12218085924E+03  0.75141638406E+03  0.22028059041E+03  0.79251390089E+03  0.00000000000E+00 0. -1.
        -11    1    6    6    0    0 -0.15069412306E+02  0.61594713817E+02  0.43631794173E+02  0.76972263967E+02  0.00000000000E+00 0.  1.
          5    1    5    5  501    0 -0.10976182157E+03  0.33504008958E+03  0.34254446636E+02  0.35425270107E+03  0.47000000000E+01 0. -1.
         13    1    4    4    0    0  0.47616492687E+02 -0.29207991657E+03 -0.19968939025E+03  0.35700680752E+03  0.00000000000E+00 0. -1.
        -14    1    4    4    0    0  0.15844154504E+03 -0.38906959694E+03 -0.29009113496E+03  0.51052104857E+03  0.00000000000E+00 0.  1.
         -5    1    3    3    0  503  0.40954055387E+02 -0.46690167395E+03 -0.39103148042E+03  0.61041143213E+03  0.47000000000E+01 0.  1.
</event>
<event>
12    1  0.9749377E-001  0.2667601E+03  0.7818608E-02  0.1103148E+00
         21   -1    0    0  501  502  0.00000000000E+00  0.00000000000E+00  0.30399766350E+03  0.30399766350E+03  0.00000000000E+00 0.  1.
         21   -1    0    0  502  503 -0.00000000000E+00 -0.00000000000E+00 -0.32550734558E+03  0.32550734558E+03  0.00000000000E+00 0. -1.
         -6    2    1    2    0  503  0.23390033778E+03  0.41719061748E+02  0.10158309249E+03  0.31236306760E+03  0.17550416859E+03 0.  0.
        -24    2    3    3    0    0  0.23347103514E+03 -0.12145488059E+02  0.74908103106E+02  0.25207028955E+03  0.57201134869E+02 0.  0.
          6    2    1    2  501    0 -0.23390033778E+03 -0.41719061748E+02 -0.12309277457E+03  0.31714194148E+03  0.17022729443E+03 0.  0.
         24    2    5    5    0    0 -0.16442221200E+03 -0.16121252286E+02 -0.15083642646E+03  0.23793172730E+03  0.81026666805E+02 0.  0.
         14    1    6    6    0    0 -0.50659009555E+02  0.14523738674E+02 -0.92506715754E+02  0.10646486131E+03  0.00000000000E+00 0. -1.
        -13    1    6    6    0    0 -0.11376320245E+03 -0.30644990961E+02 -0.58329710705E+02  0.13146686599E+03  0.00000000000E+00 0.  1.
          5    1    5    5  501    0 -0.69478125782E+02 -0.25597809461E+02  0.27743651885E+02  0.79210214185E+02  0.47000000000E+01 0. -1.
         13    1    4    4    0    0  0.10516107917E+03 -0.15995235980E+02  0.61837379758E+02  0.12303886249E+03  0.00000000000E+00 0. -1.
        -14    1    4    4    0    0  0.12830995597E+03  0.38497479205E+01  0.13070723348E+02  0.12903142706E+03  0.00000000000E+00 0.  1.
         -5    1    3    3    0  503  0.42930264169E+00  0.53864549807E+02  0.26674989383E+02  0.60292778052E+02  0.47000000000E+01 0.  1.
</event>
<event>
12    1  0.9749377E-001  0.1200187E+03  0.7818608E-02  0.1243066E+00
         21   -1    0    0  501  502  0.00000000000E+00  0.00000000000E+00  0.13187786785E+04  0.13187786785E+04  0.00000000000E+00 0.  1.
         21   -1    0    0  502  503 -0.00000000000E+00 -0.00000000000E+00 -0.31334849688E+02  0.31334849688E+02  0.00000000000E+00 0.  1.
         -6    2    1    2    0  503 -0.37462416127E+02  0.80688848965E+01  0.98471742365E+03  0.99961615805E+03  0.16761718127E+03 0.  0.
        -24    2    3    3    0    0 -0.25030668836E+02 -0.13007796656E+01  0.98140035632E+03  0.98302001722E+03  0.50531855907E+02 0.  0.
          6    2    1    2  501    0  0.37462416127E+02 -0.80688848965E+01  0.30272640519E+03  0.35049737017E+03  0.17244300674E+03 0.  0.
         24    2    5    5    0    0 -0.25117840349E+02 -0.49739517560E+02  0.20775290939E+03  0.22927532171E+03  0.79378689063E+02 0.  0.
         12    1    6    6    0    0 -0.40209965202E+02 -0.64393004473E+02  0.16020971985E+03  0.17728636344E+03  0.00000000000E+00 0. -1.
        -11    1    6    6    0    0  0.15092124853E+02  0.14653486913E+02  0.47543189534E+02  0.51988958274E+02  0.00000000000E+00 0.  1.
          5    1    5    5  501    0  0.62580256476E+02  0.41670632663E+02  0.94973495803E+02  0.12122204846E+03  0.47000000000E+01 0. -1.
         11    1    4    4    0    0 -0.12726838746E+02 -0.23149845470E+02  0.70194426169E+03  0.70244119632E+03  0.00000000000E+00 0. -1.
        -12    1    4    4    0    0 -0.12303830090E+02  0.21849065805E+02  0.27945609463E+03  0.28057882090E+03  0.00000000000E+00 0.  1.
         -5    1    3    3    0  503 -0.12431747291E+02  0.93696645622E+01  0.33170673351E+01  0.16596140829E+02  0.47000000000E+01 0.  1.
</event>
<event>
12    1  0.9749377E-001  0.2178988E+03  0.7818608E-02  0.1135459E+00
         21   -1    0    0  503  502  0.00000000000E+00  0.00000000000E+00  0.24707496828E+03  0.24707496828E+03  0.00000000000E+00 0. -1.
         21   -1    0    0  501  503 -0.00000000000E+00 -0.00000000000E+00 -0.29380180031E+03  0.29380180031E+03  0.00000000000E+00 0.  1.
          6    2    1    2  501    0  0.16738923876E+03 -0.80810540593E+02  0.68542170610E+02  0.26279281731E+03  0.17266306772E+03 0.  0.
         24    2    3    3    0    0  0.48504242689E+02 -0.91672689286E+02  0.60581638531E+02  0.14305523492E+03  0.77705352403E+02 0.  0.
         -6    2    1    2    0  502 -0.16738923876E+03  0.80810540593E+02 -0.11526900264E+03  0.27808395129E+03  0.17173887233E+03 0.  0.
        -24    2    5    5    0    0 -0.45890801110E+02  0.49388145778E+01  0.11491916795E+01  0.93439224501E+02  0.81235524974E+02 0.  0.
         12    1    4    4    0    0  0.27478855583E+02 -0.75901168173E+02  0.41801659912E+01  0.80830369429E+02  0.00000000000E+00 0. -1.
        -11    1    4    4    0    0  0.21025387106E+02 -0.15771521113E+02  0.56401472540E+02  0.62224865495E+02  0.00000000000E+00 0.  1.
          5    1    3    3  501    0  0.11888499607E+03  0.10862148693E+02  0.79605320788E+01  0.11973758239E+03  0.47000000000E+01 0. -1.
         13    1    6    6    0    0  0.79223814330E+01 -0.73442125191E+01 -0.28715781916E+02  0.30680575551E+02  0.00000000000E+00 0. -1.
        -14    1    6    6    0    0 -0.53813182543E+02  0.12283027097E+02  0.29864973596E+02  0.62758648950E+02  0.00000000000E+00 0.  1.
         -5    1    5    5    0  502 -0.12149843765E+03  0.75871726015E+02 -0.11641819432E+03  0.18464472678E+03  0.47000000000E+01 0.  1.
</event>
<event>
12    1  0.9749377E-001  0.2226252E+03  0.7818608E-02  0.1131941E+00
         21   -1    0    0  503  502  0.00000000000E+00  0.00000000000E+00  0.80580985389E+02  0.80580985389E+02  0.00000000000E+00 0. -1.
         21   -1    0    0  501  503 -0.00000000000E+00 -0.00000000000E+00 -0.82234220041E+03  0.82234220041E+03  0.00000000000E+00 0.  1.
          6    2    1    2  501    0 -0.53867812722E+02 -0.17692522897E+03 -0.26413220264E+03  0.36262101116E+03  0.16590328316E+03 0.  0.
         24    2    3    3    0    0 -0.46671864616E+01 -0.29545915624E+02 -0.55195131756E+02  0.10220182366E+03  0.80647172483E+02 0.  0.
         -6    2    1    2    0  502  0.53867812722E+02  0.17692522897E+03 -0.47762901238E+03  0.54030217464E+03  0.17202525560E+03 0.  0.
        -24    2    5    5    0    0  0.83379844201E+02  0.11087955192E+03 -0.41274778983E+03  0.44301571876E+03  0.81582569248E+02 0.  0.
         14    1    4    4    0    0 -0.12038379739E+02 -0.42111822374E+02  0.13406099433E+01  0.43819235564E+02  0.00000000000E+00 0. -1.
        -13    1    4    4    0    0  0.73711932773E+01  0.12565906750E+02 -0.56535741699E+02  0.58382588091E+02  0.00000000000E+00 0.  1.
          5    1    3    3  501    0 -0.49200626261E+02 -0.14737931335E+03 -0.20893707089E+03  0.26041918750E+03  0.47000000000E+01 0. -1.
         11    1    6    6    0    0  0.41700640849E+02  0.13153444155E+01 -0.14147274030E+03  0.14749647395E+03  0.00000000000E+00 0. -1.
        -12    1    6    6    0    0  0.41679203352E+02  0.10956420750E+03 -0.27127504953E+03  0.29551924481E+03  0.00000000000E+00 0.  1.
         -5    1    5    5    0  502 -0.29512031479E+02  0.66045677051E+02 -0.64881222548E+02  0.97286455884E+02  0.47000000000E+01 0.  1.
</event>
<event>
12    1  0.9749377E-001  0.1711655E+03  0.7818608E-02  0.1176638E+00
         21   -1    0    0  501  502  0.00000000000E+00  0.00000000000E+00  0.11384351648E+03  0.11384351648E+03  0.00000000000E+00 0.  1.
         21   -1    0    0  502  503 -0.00000000000E+00 -0.00000000000E+00 -0.38972261936E+03  0.38972261936E+03  0.00000000000E+00 0. -1.
         -6    2    1    2    0  503  0.62158402057E+02 -0.10072378716E+03 -0.10085991854E+03  0.23169187885E+03  0.17175405472E+03 0.  0.
        -24    2    3    3    0    0  0.70574882070E+02 -0.10982648270E+02 -0.93372562667E+02  0.14112444738E+03  0.78078432662E+02 0.  0.
          6    2    1    2  501    0 -0.62158402057E+02  0.10072378716E+03 -0.17501918435E+03  0.27187425699E+03  0.17109923575E+03 0.  0.
         24    2    5    5    0    0 -0.89060159478E+02  0.61912374544E+02 -0.58437975130E+02  0.14600409116E+03  0.78341199706E+02 0.  0.
         12    1    6    6    0    0 -0.17806959564E+02  0.52900405237E+02 -0.41445134310E+01  0.55970685852E+02  0.00000000000E+00 0. -1.
        -11    1    6    6    0    0 -0.71253199914E+02  0.90119693068E+01 -0.54293461699E+02  0.90033405312E+02  0.00000000000E+00 0.  1.
          5    1    5    5  501    0  0.26901757421E+02  0.38811412618E+02 -0.11658120922E+03  0.12587016582E+03  0.47000000000E+01 0. -1.
         13    1    4    4    0    0  0.11513967749E+02  0.90164518223E+01 -0.74578223482E+02  0.75998547844E+02  0.00000000000E+00 0. -1.
        -14    1    4    4    0    0  0.59060914320E+02 -0.19999100092E+02 -0.18794339186E+02  0.65125899535E+02  0.00000000000E+00 0.  1.
         -5    1    3    3    0  503 -0.84164800126E+01 -0.89741138892E+02 -0.74873558719E+01  0.90567431471E+02  0.47000000000E+01 0.  1.
</event>
<event>
12    1  0.9749377E-001  0.7285736E+03  0.7818608E-02  0.9669578E-01
         21   -1    0    0  503  502  0.00000000000E+00  0.00000000000E+00  0.10951284911E+04  0.10951284911E+04  0.00000000000E+00 0. -1.
         21   -1    0    0  501  503 -0.00000000000E+00 -0.00000000000E+00 -0.85506160856E+03  0.85506160856E+03  0.00000000000E+00 0.  1.
          6    2    1    2  501    0  0.44846648109E+03  0.55830704694E+03 -0.51332035725E+03  0.89669814880E+03  0.16655580918E+03 0.  0.
         24    2    3    3    0    0  0.31625604155E+03  0.29042373239E+03 -0.30464498608E+03  0.53226904586E+03  0.78345015680E+02 0.  0.
         -6    2    1    2    0  502 -0.44846648109E+03 -0.55830704694E+03  0.75338723977E+03  0.10534919508E+04  0.17153429427E+03 0.  0.
        -24    2    5    5    0    0 -0.40682583120E+03 -0.48043354142E+03  0.58752170471E+03  0.86552468692E+03  0.87336049305E+02 0.  0.
         12    1    4    4    0    0  0.32029090901E+03  0.28956673225E+03 -0.30407089649E+03  0.52810441100E+03  0.00000000000E+00 0. -1.
        -11    1    4    4    0    0 -0.40348674600E+01  0.85700013929E+00 -0.57408958604E+00  0.41646348593E+01  0.00000000000E+00 0.  1.
          5    1    3    3  501    0  0.13221043953E+03  0.26788331456E+03 -0.20867537117E+03  0.36442910294E+03  0.47000000000E+01 0. -1.
         13    1    6    6    0    0 -0.23601963386E+03 -0.22041196328E+03  0.26918510394E+03  0.42041327442E+03  0.00000000000E+00 0. -1.
        -14    1    6    6    0    0 -0.17080619734E+03 -0.26002157814E+03  0.31833660077E+03  0.44511141250E+03  0.00000000000E+00 0.  1.
         -5    1    5    5    0  502 -0.41640649887E+02 -0.77873505526E+02  0.16586553506E+03  0.18796726392E+03  0.47000000000E+01 0.  1.
</event>
<event>
12    1  0.9749377E-001  0.3478747E+03  0.7818608E-02  0.1063491E+00
         21   -1    0    0  501  502  0.00000000000E+00  0.00000000000E+00  0.90810774287E+03  0.90810774287E+03  0.00000000000E+00 0.  1.
         21   -1    0    0  502  503 -0.00000000000E+00 -0.00000000000E+00 -0.14123782429E+03  0.14123782429E+03  0.00000000000E+00 0. -1.
         -6    2    1    2    0  503  0.18781956268E+02  0.30763962803E+03  0.29131804306E+03  0.45717273815E+03  0.17072143296E+03 0.  0.
        -24    2    3    3    0    0 -0.43287171895E+02  0.12888203700E+03  0.16598222958E+03  0.23015289504E+03  0.83282025952E+02 0.  0.
          6    2    1    2  501    0 -0.18781956268E+02 -0.30763962803E+03  0.47555187552E+03  0.59217282902E+03  0.17182598903E+03 0.  0.
         24    2    5    5    0    0 -0.72680878314E+02 -0.16868032617E+03  0.23571274621E+03  0.30975526703E+03  0.81561413796E+02 0.  0.
         12    1    6    6    0    0 -0.56426308321E+02 -0.42291170483E+02  0.11064066421E+03  0.13120147846E+03  0.00000000000E+00 0. -1.
        -11    1    6    6    0    0 -0.16254569993E+02 -0.12638915568E+03  0.12507208200E+03  0.17855378858E+03  0.00000000000E+00 0.  1.
          5    1    5    5  501    0  0.53898922046E+02 -0.13895930187E+03  0.23983912931E+03  0.28241756199E+03  0.47000000000E+01 0. -1.
         13    1    4    4    0    0  0.25198222522E+02  0.38145322632E+02  0.45306323388E+02  0.64363646539E+02  0.00000000000E+00 0. -1.
        -14    1    4    4    0    0 -0.68485394417E+02  0.90736714373E+02  0.12067590620E+03  0.16578924850E+03  0.00000000000E+00 0.  1.
         -5    1    3    3    0  503  0.62069128163E+02  0.17875759103E+03  0.12533581348E+03  0.22701984310E+03  0.47000000000E+01 0.  1.
</event>
<event>
12    1  0.9749377E-001  0.2906449E+03  0.7818608E-02  0.1090013E+00
         21   -1    0    0  501  502  0.00000000000E+00  0.00000000000E+00  0.11655704608E+03  0.11655704608E+03  0.00000000000E+00 0.  1.
         21   -1    0    0  502  503 -0.00000000000E+00 -0.00000000000E+00 -0.10187645190E+04  0.10187645190E+04  0.00000000000E+00 0. -1.
         -6    2    1    2    0  503  0.15820893745E+03 -0.19989614731E+03 -0.70952669741E+03  0.77387187079E+03  0.17453080090E+03 0.  0.
        -24    2    3    3    0    0  0.52003617948E+02 -0.17572370805E+03 -0.45512912023E+03  0.49709742474E+03  0.79875751957E+02 0.  0.
          6    2    1    2  501    0 -0.15820893745E+03  0.19989614731E+03 -0.19268077554E+03  0.36144969432E+03  0.16891258883E+03 0.  0.
         24    2    5    5    0    0 -0.16108946816E+02  0.92426783901E+02 -0.46689544745E+02  0.13106392896E+03  0.78712332816E+02 0.  0.
         12    1    6    6    0    0 -0.14154393136E+01  0.10601960196E+01  0.18043393233E+02  0.18129851720E+02  0.00000000000E+00 0. -1.
        -11    1    6    6    0    0 -0.14693507503E+02  0.91366587881E+02 -0.64732937978E+02  0.11293407724E+03  0.00000000000E+00 0.  1.
          5    1    5    5  501    0 -0.14209999064E+03  0.10746936341E+03 -0.14599123080E+03  0.23038576536E+03  0.47000000000E+01 0. -1.
         13    1    4    4    0    0  0.60049503143E+02 -0.18060221858E+03 -0.43775379106E+03  0.47733791571E+03  0.00000000000E+00 0. -1.
        -14    1    4    4    0    0 -0.80458851948E+01  0.48785105252E+01 -0.17375329167E+02  0.19759509031E+02  0.00000000000E+00 0.  1.
         -5    1    3    3    0  503  0.10620531950E+03 -0.24172439253E+02 -0.25439757718E+03  0.27677444605E+03  0.47000000000E+01 0.  1.
</event>
<event>
12    1  0.9749377E-001  0.3748171E+03  0.7818608E-02  0.1052866E+00
         21   -1    0    0  501  502  0.00000000000E+00  0.00000000000E+00  0.65298985078E+03  0.65298985078E+03  0.00000000000E+00 0. -1.
         21   -1    0    0  502  503 -0.00000000000E+00 -0.00000000000E+00 -0.45579288398E+03  0.45579288398E+03  0.00000000000E+00 0.  1.
         -6    2    1    2    0  503  0.45234062845E+02 -0.35771057799E+03 -0.27923436679E+03  0.48706423189E+03  0.17104606497E+03 0.  0.
        -24    2    3    3    0    0 -0.29177932457E+02 -0.14542497765E+03 -0.17926346823E+03  0.24085580044E+03  0.62260338084E+02 0.  0.
          6    2    1    2  501    0 -0.45234062845E+02  0.35771057799E+03  0.47643133358E+03  0.62171850287E+03  0.17188398162E+03 0.  0.
         24    2    5    5    0    0 -0.46806827348E+02  0.32599325287E+03  0.48190443411E+03  0.58915307442E+03  0.80043622337E+02 0.  0.
         14    1    6    6    0    0 -0.23473548521E+02  0.30450536543E+03  0.45235464063E+03  0.54580147119E+03  0.00000000000E+00 0. -1.
        -13    1    6    6    0    0 -0.23333278827E+02  0.21487887444E+02  0.29549793478E+02  0.43351603226E+02  0.00000000000E+00 0.  1.
          5    1    5    5  501    0  0.15727645031E+01  0.31717325120E+02 -0.54731005228E+01  0.32565428452E+02  0.47000000000E+01 0. -1.
         11    1    4    4    0    0  0.11795591186E+02 -0.53122713793E+02 -0.34794959828E+02  0.64589843797E+02  0.00000000000E+00 0. -1.
        -12    1    4    4    0    0 -0.40973523643E+02 -0.92302263855E+02 -0.14446850840E+03  0.17626595664E+03  0.00000000000E+00 0.  1.
         -5    1    3    3    0  503  0.74411995302E+02 -0.21228560035E+03 -0.99970898558E+02  0.24620843145E+03  0.47000000000E+01 0.  1.
</event>
<event>
12    1  0.9749377E-001  0.4202170E+03  0.7818608E-02  0.1036996E+00
         21   -1    0    0  501  502  0.00000000000E+00  0.00000000000E+00  0.16454951479E+04  0.16454951479E+04  0.00000000000E+00 0. -1.
         21   -1    0    0  502  503 -0.00000000000E+00 -0.00000000000E+00 -0.12726640476E+03  0.12726640476E+03  0.00000000000E+00 0.  1.
         -6    2    1    2    0  503  0.29361810981E+03  0.26496999921E+03  0.46419909505E+03  0.63388598601E+03  0.17294492916E+03 0.  0.
        -24    2    3    3    0    0  0.29382156324E+03  0.19774521958E+03  0.37120682738E+03  0.51904320550E+03  0.78594259243E+02 0.  0.
          6    2    1    2  501    0 -0.29361810981E+03 -0.26496999921E+03  0.10540296481E+04  0.11388755666E+04  0.17215795764E+03 0.  0.
         24    2    5    5    0    0 -0.78705768045E+02 -0.84485041639E+02  0.47764173245E+03  0.49777709228E+03  0.79423477845E+02 0.  0.
         12    1    6    6    0    0 -0.93613543417E+02 -0.66866525086E+02  0.42506900092E+03  0.44036153696E+03  0.00000000000E+00 0. -1.
        -11    1    6    6    0    0  0.14907775372E+02 -0.17618516553E+02  0.52572731527E+02  0.57415555316E+02  0.00000000000E+00 0.  1.
          5    1    5    5  501    0 -0.21491234176E+03 -0.18048495758E+03  0.57638791561E+03  0.64109847435E+03  0.47000000000E+01 0. -1.
         13    1    4    4    0    0  0.46860662927E+02  0.28438226945E+02  0.10475690123E+03  0.11823139531E+03  0.00000000000E+00 0. -1.
        -14    1    4    4    0    0  0.24696090031E+03  0.16930699264E+03  0.26644992615E+03  0.40081181019E+03  0.00000000000E+00 0.  1.
         -5    1    3    3    0  503 -0.20345342948E+00  0.67224779633E+02  0.92992267664E+02  0.11484278051E+03  0.47000000000E+01 0.  1.
</event>
<event>
12    1  0.9749377E-001  0.4085225E+03  0.7818608E-02  0.1040868E+00
         21   -1    0    0  503  502  0.00000000000E+00  0.00000000000E+00  0.12267762159E+04  0.12267762159E+04  0.00000000000E+00 0. -1.
         21   -1    0    0  501  503 -0.00000000000E+00 -0.00000000000E+00 -0.18561486934E+03  0.18561486934E+03  0.00000000000E+00 0.  1.
          6    2    1    2  501    0 -0.36682206316E+02  0.39037254121E+03  0.20738055371E+03  0.47499797602E+03  0.16994139572E+03 0.  0.
         24    2    3    3    0    0  0.14696921730E+02  0.33310923530E+03  0.20165731339E+03  0.39770796061E+03  0.79549907237E+02 0.  0.
         -6    2    1    2    0  502  0.36682206316E+02 -0.39037254121E+03  0.83378079289E+03  0.93739310926E+03  0.17256629307E+03 0.  0.
        -24    2    5    5    0    0 -0.15227515420E+02 -0.27773982909E+03  0.45992061682E+03  0.54347145676E+03  0.80392541051E+02 0.  0.
         14    1    4    4    0    0  0.30371298781E+02  0.15876473170E+03  0.59637113688E+02  0.17229405431E+03  0.00000000000E+00 0. -1.
        -13    1    4    4    0    0 -0.15674377051E+02  0.17434450359E+03  0.14202019970E+03  0.22541390630E+03  0.00000000000E+00 0.  1.
          5    1    3    3  501    0 -0.51379128046E+02  0.57263305907E+02  0.57232403185E+01  0.77290015409E+02  0.47000000000E+01 0. -1.
         11    1    6    6    0    0 -0.21312862534E+02 -0.23953761207E+03  0.43618504489E+03  0.49808623660E+03  0.00000000000E+00 0. -1.
        -12    1    6    6    0    0  0.60853471139E+01 -0.38202217020E+02  0.23735571929E+02  0.45385220166E+02  0.00000000000E+00 0.  1.
         -5    1    5    5    0  502  0.51909721736E+02 -0.11263271212E+03  0.37386017607E+03  0.39392165249E+03  0.47000000000E+01 0.  1.
</event>
<event>
12    1  0.9749377E-001  0.4872779E+03  0.7818608E-02  0.1017154E+00
         21   -1    0    0  501  502  0.00000000000E+00  0.00000000000E+00  0.40630659805E+03  0.40630659805E+03  0.00000000000E+00 0. -1.
         21   -1    0    0  502  503 -0.00000000000E+00 -0.00000000000E+00 -0.11364566168E+04  0.11364566168E+04  0.00000000000E+00 0.  1.
         -6    2    1    2    0  503 -0.28272828069E+03 -0.38842762050E+03  0.14403507386E+03  0.53042464097E+03  0.17260619971E+03 0.  0.
        -24    2    3    3    0    0 -0.94445154460E+02 -0.19830080634E+03  0.11589989394E+03  0.26132908278E+03  0.81344988148E+02 0.  0.
          6    2    1    2  501    0  0.28272828069E+03  0.38842762050E+03 -0.87418509261E+03  0.10123385739E+04  0.17268038389E+03 0.  0.
         24    2    5    5    0    0  0.13460358339E+03  0.19014991988E+03 -0.30983319024E+03  0.39608364919E+03  0.81305194724E+02 0.  0.
         12    1    6    6    0    0  0.70897209406E+02  0.73480024923E+02 -0.76661514498E+02  0.12768209024E+03  0.00000000000E+00 0. -1.
        -11    1    6    6    0    0  0.63706373986E+02  0.11666989495E+03 -0.23317167574E+03  0.26840155894E+03  0.00000000000E+00 0.  1.
          5    1    5    5  501    0  0.14812469730E+03  0.19827770062E+03 -0.56435190237E+03  0.61625492470E+03  0.47000000000E+01 0. -1.
         13    1    4    4    0    0 -0.53528489120E+02 -0.61326863548E+02  0.71580478042E+01  0.81716099935E+02  0.00000000000E+00 0. -1.
        -14    1    4    4    0    0 -0.40916665340E+02 -0.13697394279E+03  0.10874184614E+03  0.17961298285E+03  0.00000000000E+00 0.  1.
         -5    1    3    3    0  503 -0.18828312623E+03 -0.19012681416E+03  0.28135179912E+02  0.26909555818E+03  0.47000000000E+01 0.  1.
</event>
<event>
12    1  0.9749377E-001  0.1717785E+03  0.7818608E-02  0.1176006E+00
         21   -1    0    0  501  502  0.00000000000E+00  0.00000000000E+00  0.16029582424E+03  0.16029582424E+03  0.00000000000E+00 0. -1.
         21   -1    0    0  502  503 -0.00000000000E+00 -0.00000000000E+00 -0.28012224831E+03  0.28012224831E+03  0.00000000000E+00 0. -1.
         -6    2    1    2    0  503  0.10640942047E+03  0.38089464349E+02 -0.11201963667E+03  0.23414570856E+03  0.17176158412E+03 0.  0.
        -24    2    3    3    0    0  0.14212418888E+03  0.35758907699E+02 -0.74910829829E+02  0.18237573925E+03  0.78557579502E+02 0.  0.
          6    2    1    2  501    0 -0.10640942047E+03 -0.38089464349E+02 -0.78067873918E+01  0.20627236399E+03  0.17237624592E+03 0.  0.
         24    2    5    5    0    0 -0.93931631294E+02  0.18331110412E+02 -0.49819175571E+02  0.13467552579E+03  0.80600037383E+02 0.  0.
         14    1    6    6    0    0 -0.61110954970E+02  0.19126691739E+02 -0.70996159492E+02  0.95607707936E+02  0.00000000000E+00 0. -1.
        -13    1    6    6    0    0 -0.32820676324E+02 -0.79558132721E+00  0.21176983921E+02  0.39067817856E+02  0.00000000000E+00 0.  1.
          5    1    5    5  501    0 -0.12477789178E+02 -0.56420574761E+02  0.42012388179E+02  0.71596838196E+02  0.47000000000E+01 0. -1.
         13    1    4    4    0    0  0.38246209649E+02 -0.93464865546E+01  0.10246015400E+02  0.40683045547E+02  0.00000000000E+00 0. -1.
        -14    1    4    4    0    0  0.10387797923E+03  0.45105394254E+02 -0.85156845229E+02  0.14169269371E+03  0.00000000000E+00 0.  1.
         -5    1    3    3    0  503 -0.35714768410E+02  0.23305566500E+01 -0.37108806842E+02  0.51769969307E+02  0.47000000000E+01 0.  1.
</event>
<event>
12    1  0.9749377E-001  0.7622113E+03  0.7818608E-02  0.9616385E-01
         21   -1    0    0  503  502  0.00000000000E+00  0.00000000000E+00  0.18423025539E+04  0.18423025539E+04  0.00000000000E+00 0. -1.
         21   -1    0    0  501  503 -0.00000000000E+00 -0.00000000000E+00 -0.34502135567E+03  0.34502135567E+03  0.00000000000E+00 0.  1.
          6    2    1    2  501    0  0.74406784064E+03 -0.13212294612E+03  0.10045963853E+04  0.12688172542E+04  0.17201715819E+03 0.  0.
         24    2    3    3    0    0  0.32394959798E+03 -0.34895984384E+02  0.54658329890E+03  0.63973021947E+03  0.65881555073E+02 0.  0.
         -6    2    1    2    0  502 -0.74406784064E+03  0.13212294612E+03  0.49268481285E+03  0.91850665534E+03  0.17269257866E+03 0.  0.
        -24    2    5    5    0    0 -0.56339217518E+03  0.15289599386E+03  0.41486539276E+03  0.72063506126E+03  0.80085388262E+02 0.  0.
         14    1    4    4    0    0  0.29109856675E+03 -0.40564580231E+02  0.44929639413E+03  0.53689022203E+03  0.00000000000E+00 0. -1.
        -13    1    4    4    0    0  0.32851031226E+02  0.56685958465E+01  0.97286904777E+02  0.10283999744E+03  0.00000000000E+00 0.  1.
          5    1    3    3  501    0  0.42011824266E+03 -0.97226961740E+02  0.45801308643E+03  0.62908703472E+03  0.47000000000E+01 0. -1.
         11    1    6    6    0    0 -0.21191771677E+03  0.49299766289E+02  0.20187959978E+03  0.29680794876E+03  0.00000000000E+00 0. -1.
        -12    1    6    6    0    0 -0.35147445841E+03  0.10359622757E+03  0.21298579298E+03  0.42382711250E+03  0.00000000000E+00 0.  1.
         -5    1    5    5    0  502 -0.18067566546E+03 -0.20773047733E+02  0.77819420086E+02  0.19787159408E+03  0.47000000000E+01 0.  1.
</event>
<event>
12    1  0.9749377E-001  0.2219134E+03  0.7818608E-02  0.1132465E+00
         21   -1    0    0  503  502  0.00000000000E+00  0.00000000000E+00  0.71764286465E+03  0.71764286465E+03  0.00000000000E+00 0. -1.
         21   -1    0    0  501  503 -0.00000000000E+00 -0.00000000000E+00 -0.64861957736E+03  0.64861957736E+03  0.00000000000E+00 0.  1.
          6    2    1    2  501    0  0.19781478805E+03 -0.22390530287E+02  0.66485951162E+03  0.71490768726E+03  0.17153076951E+03 0.  0.
         24    2    3    3    0    0  0.10942637089E+03 -0.43724841256E+02  0.22269584376E+03  0.26346725454E+03  0.77042605093E+02 0.  0.
         -6    2    1    2    0  502 -0.19781478805E+03  0.22390530287E+02 -0.59583622433E+03  0.65135475475E+03  0.17207609972E+03 0.  0.
        -24    2    5    5    0    0 -0.20941638545E+03  0.20569534797E+02 -0.59778106099E+03  0.63855688476E+03  0.78322218668E+02 0.  0.
         12    1    4    4    0    0  0.10268623204E+02 -0.21776767831E+02  0.70235328621E+01  0.25079917335E+02  0.00000000000E+00 0. -1.
        -11    1    4    4    0    0  0.99157747684E+02 -0.21948073425E+02  0.21567231089E+03  0.23838733720E+03  0.00000000000E+00 0.  1.
          5    1    3    3  501    0  0.88388417164E+02  0.21334310969E+02  0.44216366787E+03  0.45144043272E+03  0.47000000000E+01 0. -1.
         13    1    6    6    0    0 -0.70143539800E+02 -0.12748295871E+02 -0.29684315408E+03  0.30528428283E+03  0.00000000000E+00 0. -1.
        -14    1    6    6    0    0 -0.13927284565E+03  0.33317830668E+02 -0.30093790691E+03  0.33327260192E+03  0.00000000000E+00 0.  1.
         -5    1    5    5    0  502  0.11601597401E+02  0.18209954903E+01  0.19448366547E+01  0.12797869996E+02  0.47000000000E+01 0.  1.
</event>
<event>
12    1  0.9749377E-001  0.2262768E+03  0.7818608E-02  0.1129288E+00
         21   -1    0    0  501  502  0.00000000000E+00  0.00000000000E+00  0.35298375253E+03  0.35298375253E+03  0.00000000000E+00 0.  1.
         21   -1    0    0  502  503 -0.00000000000E+00 -0.00000000000E+00 -0.20515573161E+03  0.20515573161E+03  0.00000000000E+00 0. -1.
         -6    2    1    2    0  503 -0.83779885736E+02  0.14315818852E+03  0.19599095301E+03  0.30797411975E+03  0.17006548320E+03 0.  0.
        -24    2    3    3    0    0 -0.11328985939E+03  0.14436443014E+03  0.13882189933E+03  0.24345525225E+03  0.79518923432E+02 0.  0.
          6    2    1    2  501    0  0.83779885736E+02 -0.14315818852E+03 -0.48162932096E+02  0.25016536440E+03  0.18096879654E+03 0.  0.
         24    2    5    5    0    0  0.47072203962E+01 -0.19744130124E+02  0.30570947773E+02  0.83718285563E+02  0.75247457708E+02 0.  0.
         12    1    6    6    0    0 -0.13154742642E+02 -0.44760075909E+02  0.13545260426E+02  0.48579684327E+02  0.00000000000E+00 0. -1.
        -11    1    6    6    0    0  0.17861963038E+02  0.25015945785E+02  0.17025687348E+02  0.35138601235E+02  0.00000000000E+00 0.  1.
          5    1    5    5  501    0  0.79072665340E+02 -0.12341405840E+03 -0.78733879869E+02  0.16644707884E+03  0.47000000000E+01 0. -1.
         11    1    4    4    0    0  0.11005837870E+02  0.19703047214E+02  0.73330886221E+01  0.23729996323E+02  0.00000000000E+00 0. -1.
        -12    1    4    4    0    0 -0.12429569726E+03  0.12466138292E+03  0.13148881071E+03  0.21972525593E+03  0.00000000000E+00 0.  1.
         -5    1    3    3    0  503  0.29509973659E+02 -0.12062416179E+01  0.57169053679E+02  0.64518867494E+02  0.47000000000E+01 0.  1.
</event>
<event>
12    1  0.9749377E-001  0.2795503E+03  0.7818608E-02  0.1095935E+00
         21   -1    0    0  501  502  0.00000000000E+00  0.00000000000E+00  0.43924041732E+03  0.43924041732E+03  0.00000000000E+00 0. -1.
         21   -1    0    0  502  503 -0.00000000000E+00 -0.00000000000E+00 -0.25135026282E+03  0.25135026282E+03  0.00000000000E+00 0.  1.
         -6    2    1    2    0  503  0.98458304260E+02 -0.21437773783E+03  0.25801370426E+03  0.38969129260E+03  0.17215219950E+03 0.  0.
        -24    2    3    3    0    0  0.11713952212E+02 -0.13823159574E+03  0.20946710576E+03  0.26438494882E+03  0.82327043113E+02 0.  0.
          6    2    1    2  501    0 -0.98458304260E+02  0.21437773783E+03 -0.70123549762E+02  0.30089938753E+03  0.17312214483E+03 0.  0.
         24    2    5    5    0    0 -0.81769475907E+02  0.23732954812E+03 -0.57630135261E+02  0.26953893484E+03  0.79488636317E+02 0.  0.
         14    1    6    6    0    0 -0.70241085897E+02  0.11498868005E+03 -0.57894050164E+02  0.14665581383E+03  0.00000000000E+00 0. -1.
        -13    1    6    6    0    0 -0.11528390010E+02  0.12234086807E+03  0.26391490327E+00  0.12288312100E+03  0.00000000000E+00 0.  1.
          5    1    5    5  501    0 -0.16688828353E+02 -0.22951810286E+02 -0.12493414500E+02  0.31360452693E+02  0.47000000000E+01 0. -1.
         11    1    4    4    0    0  0.29793673279E+02 -0.13569984106E+03  0.16135790492E+03  0.21292835253E+03  0.00000000000E+00 0. -1.
        -12    1    4    4    0    0 -0.18079721067E+02 -0.25317546765E+01  0.48109200841E+02  0.51456596284E+02  0.00000000000E+00 0.  1.
         -5    1    3    3    0  503  0.86744352049E+02 -0.76146142092E+02  0.48546598495E+02  0.12530634379E+03  0.47000000000E+01 0.  1.
</event>
<event>
12    1  0.9749377E-001  0.2406489E+03  0.7818608E-02  0.1119361E+00
         21   -1    0    0  501  502  0.00000000000E+00  0.00000000000E+00  0.14625780705E+03  0.14625780705E+03  0.00000000000E+00 0. -1.
         21   -1    0    0  502  503 -0.00000000000E+00 -0.00000000000E+00 -0.54632867436E+03  0.54632867436E+03  0.00000000000E+00 0.  1.
         -6    2    1    2    0  503 -0.43967279037E+01 -0.21828353596E+03 -0.14731411807E+03  0.31702026766E+03  0.17644650021E+03 0.  0.
        -24    2    3    3    0    0  0.15459479279E+02 -0.13828509784E+03 -0.16483947623E+03  0.23262093565E+03  0.87055631597E+02 0.  0.
          6    2    1    2  501    0  0.43967279037E+01  0.21828353596E+03 -0.25275674924E+03  0.37556621375E+03  0.17174682920E+03 0.  0.
         24    2    5    5    0    0  0.24772004197E+02  0.21736599777E+03 -0.16823215809E+03  0.28848871798E+03  0.84036017319E+02 0.  0.
         12    1    6    6    0    0  0.41454103273E+02  0.19604130077E+03 -0.16788548230E+03  0.26141187702E+03  0.00000000000E+00 0. -1.
        -11    1    6    6    0    0 -0.16682099076E+02  0.21324697006E+02 -0.34667579380E+00  0.27076840955E+02  0.00000000000E+00 0.  1.
          5    1    5    5  501    0 -0.20375276294E+02  0.91753818524E+00 -0.84524591155E+02  0.87077495775E+02  0.47000000000E+01 0. -1.
         13    1    4    4    0    0  0.23612759442E+02 -0.17734916281E+02 -0.79190765631E+02  0.84517850335E+02  0.00000000000E+00 0. -1.
        -14    1    4    4    0    0 -0.81532801633E+01 -0.12055018156E+03 -0.85648710602E+02  0.14810308532E+03  0.00000000000E+00 0.  1.
         -5    1    3    3    0  503 -0.19856207183E+02 -0.79998438114E+02  0.17525358163E+02  0.84399332006E+02  0.47000000000E+01 0.  1.
</event>
<event>
12    1  0.9749377E-001  0.2475733E+03  0.7818608E-02  0.1114848E+00
         21   -1    0    0  501  502  0.00000000000E+00  0.00000000000E+00  0.31428086391E+04  0.31428086391E+04  0.00000000000E+00 0. -1.
         21   -1    0    0  502  503 -0.00000000000E+00 -0.00000000000E+00 -0.58609764728E+02  0.58609764728E+02  0.00000000000E+00 0.  1.
         -6    2    1    2    0  503  0.64363971582E+02 -0.19631205610E+03  0.29276277063E+03  0.39689371621E+03  0.17068520116E+03 0.  0.
        -24    2    3    3    0    0 -0.22609902985E+02 -0.96608549900E+02  0.95477516470E+02  0.15930414255E+03  0.80108888735E+02 0.  0.
          6    2    1    2  501    0 -0.64363971582E+02  0.19631205610E+03  0.27914361038E+04  0.28045246876E+04  0.17482007315E+03 0.  0.
         24    2    5    5    0    0 -0.27266935129E+02  0.27544562875E+02  0.63805349380E+03  0.64421512376E+03  0.79991724815E+02 0.  0.
         14    1    6    6    0    0  0.19084128883E+02  0.26192717612E+02  0.42194312315E+03  0.42318584760E+03  0.00000000000E+00 0. -1.
        -13    1    6    6    0    0 -0.46351064012E+02  0.13518452626E+01  0.21611037065E+03  0.22102927616E+03  0.00000000000E+00 0.  1.
          5    1    5    5  501    0 -0.37097036454E+02  0.16876749322E+03  0.21533826100E+04  0.21603095639E+04  0.47000000000E+01 0. -1.
         13    1    4    4    0    0 -0.36483717072E+02 -0.46393749266E+02  0.89021480536E+02  0.10680948263E+03  0.00000000000E+00 0. -1.
        -14    1    4    4    0    0  0.13873814087E+02 -0.50214800634E+02  0.64560359340E+01  0.52494659919E+02  0.00000000000E+00 0.  1.
         -5    1    3    3    0  503  0.86973874567E+02 -0.99703506196E+02  0.19728525416E+03  0.23758957366E+03  0.47000000000E+01 0.  1.
</event>
<event>
12    1  0.9749377E-001  0.4356436E+03  0.7818608E-02  0.1032092E+00
         21   -1    0    0  503  502  0.00000000000E+00  0.00000000000E+00  0.18524279668E+03  0.18524279668E+03  0.00000000000E+00 0.  1.
         21   -1    0    0  501  503 -0.00000000000E+00 -0.00000000000E+00 -0.12609889957E+04  0.12609889957E+04  0.00000000000E+00 0. -1.
          6    2    1    2  501    0 -0.22592729349E+03 -0.35112263067E+03 -0.27028068821E+03  0.52299504462E+03  0.16168463926E+03 0.  0.
         24    2    3    3    0    0 -0.17185981212E+03 -0.34417139475E+03 -0.24121765962E+03  0.46104053024E+03  0.79891596692E+02 0.  0.
         -6    2    1    2    0  502  0.22592729349E+03  0.35112263067E+03 -0.80546551085E+03  0.92323674779E+03  0.17105893604E+03 0.  0.
        -24    2    5    5    0    0  0.67811134186E+02  0.15587578490E+03 -0.23408753534E+03  0.29904372355E+03  0.75726905099E+02 0.  0.
         14    1    4    4    0    0 -0.13460846681E+03 -0.20576406381E+03 -0.12137802500E+03  0.27420961735E+03  0.00000000000E+00 0. -1.
        -13    1    4    4    0    0 -0.37251345310E+02 -0.13840733094E+03 -0.11983963462E+03  0.18683091289E+03  0.00000000000E+00 0.  1.
          5    1    3    3  501    0 -0.54067481370E+02 -0.69512359180E+01 -0.29063028587E+02  0.61954514389E+02  0.47000000000E+01 0. -1.
         13    1    6    6    0    0  0.54721888934E+02  0.15324361122E+03 -0.23480037799E+03  0.28567342721E+03  0.00000000000E+00 0. -1.
        -14    1    6    6    0    0  0.13089245252E+02  0.26321736832E+01  0.71284265676E+00  0.13370296340E+02  0.00000000000E+00 0.  1.
         -5    1    5    5    0  502  0.15811615930E+03  0.19524684576E+03 -0.57137797551E+03  0.62419302424E+03  0.47000000000E+01 0.  1.
</event>
<event>
12    1  0.9749377E-001  0.2777185E+03  0.7818608E-02  0.1096942E+00
         21   -1    0    0  503  502  0.00000000000E+00  0.00000000000E+00  0.16230506817E+04  0.16230506817E+04  0.00000000000E+00 0.  1.
         21   -1    0    0  501  503 -0.00000000000E+00 -0.00000000000E+00 -0.73432484227E+02  0.73432484227E+02  0.00000000000E+00 0. -1.
          6    2    1    2  501    0 -0.14536784649E+03  0.20337354551E+03  0.37173756811E+03  0.48009386970E+03  0.17265194575E+03 0.  0.
         24    2    3    3    0    0 -0.11202978924E+03  0.17430817582E+03  0.18799180776E+03  0.29104145310E+03  0.80188489209E+02 0.  0.
         -6    2    1    2    0  502  0.14536784649E+03 -0.20337354551E+03  0.11778806294E+04  0.12163892962E+04  0.17235873390E+03 0.  0.
        -24    2    5    5    0    0  0.62502073016E+02 -0.17242238835E+03  0.67400319383E+03  0.70478469248E+03  0.93835858397E+02 0.  0.
         12    1    4    4    0    0 -0.11347234980E+03  0.11166884288E+03  0.12774368319E+03  0.20411847842E+03  0.00000000000E+00 0. -1.
        -11    1    4    4    0    0  0.14425605579E+01  0.62639332937E+02  0.60248124573E+02  0.86922974675E+02  0.00000000000E+00 0.  1.
          5    1    3    3  501    0 -0.33338057249E+02  0.29065369689E+02  0.18374576035E+03  0.18905241660E+03  0.47000000000E+01 0. -1.
         13    1    6    6    0    0  0.29595669031E+02 -0.51527162296E+01  0.17255890963E+03  0.17515430740E+03  0.00000000000E+00 0. -1.
        -14    1    6    6    0    0  0.32906403986E+02 -0.16726967212E+03  0.50144428421E+03  0.52963038508E+03  0.00000000000E+00 0.  1.
         -5    1    5    5    0  502  0.82865773473E+02 -0.30951157155E+02  0.50387743554E+03  0.51160460376E+03  0.47000000000E+01 0.  1.
</event>
<event>
12    1  0.9749377E-001  0.4440483E+03  0.7818608E-02  0.1029512E+00
         21   -1    0    0  501  502  0.00000000000E+00  0.00000000000E+00  0.50898420314E+03  0.50898420314E+03  0.00000000000E+00 0.  1.
         21   -1    0    0  502  503 -0.00000000000E+00 -0.00000000000E+00 -0.76972688558E+03  0.76972688558E+03  0.00000000000E+00 0. -1.
         -6    2    1    2    0  503 -0.88359861021E+02 -0.41559545565E+03  0.30490516523E+03  0.55004908040E+03  0.17046930301E+03 0.  0.
        -24    2    3    3    0    0 -0.91928692317E+02 -0.17579596660E+03  0.18122238940E+03  0.28016753131E+03  0.79354803461E+02 0.  0.
          6    2    1    2  501    0  0.88359861021E+02  0.41559545565E+03 -0.56564784767E+03  0.72866200832E+03  0.17453878366E+03 0.  0.
         24    2    5    5    0    0  0.80336648023E+02  0.15696633099E+03 -0.30680369936E+03  0.36263498858E+03  0.79266757964E+02 0.  0.
         14    1    6    6    0    0  0.80204218561E+02  0.10929183847E+03 -0.27099137830E+03  0.30300783776E+03  0.00000000000E+00 0. -1.
        -13    1    6    6    0    0  0.13242946128E+00  0.47674492521E+02 -0.35812321061E+02  0.59627150817E+02  0.00000000000E+00 0.  1.
          5    1    5    5  501    0  0.80232129978E+01  0.25862912466E+03 -0.25884414831E+03  0.36602701975E+03  0.47000000000E+01 0. -1.
         11    1    4    4    0    0  0.78454136418E+01 -0.15650337496E+02 -0.14219362288E+01  0.17564324115E+02  0.00000000000E+00 0. -1.
        -12    1    4    4    0    0 -0.99774105959E+02 -0.16014562910E+03  0.18264432563E+03  0.26260320719E+03  0.00000000000E+00 0.  1.
         -5    1    3    3    0  503  0.35688312968E+01 -0.23979948905E+03  0.12368277582E+03  0.26988154909E+03  0.47000000000E+01 0.  1.
</event>
<event>
12    1  0.9749377E-001  0.3560795E+03  0.7818608E-02  0.1060147E+00
         21   -1    0    0  501  502  0.00000000000E+00  0.00000000000E+00  0.32432348604E+03  0.32432348604E+03  0.00000000000E+00 0.  1.
         21   -1    0    0  502  503 -0.00000000000E+00 -0.00000000000E+00 -0.43078454650E+03  0.43078454650E+03  0.00000000000E+00 0. -1.
         -6    2    1    2    0  503 -0.23178250442E+01 -0.33044233156E+03 -0.85724152518E+02  0.38192618470E+03  0.17123514077E+03 0.  0.
        -24    2    3    3    0    0 -0.55741866016E+02 -0.27502028459E+03 -0.47184858650E+02  0.29571076487E+03  0.80468211196E+02 0.  0.
          6    2    1    2  501    0  0.23178250442E+01  0.33044233156E+03 -0.20736907938E+02  0.37318184785E+03  0.17215448124E+03 0.  0.
         24    2    5    5    0    0 -0.54407313075E+02  0.14346421528E+03  0.18827048743E+02  0.17376782143E+03  0.79364105357E+02 0.  0.
         14    1    6    6    0    0 -0.45697809104E+02  0.13594621924E+03 -0.89519840678E+01  0.14370039075E+03  0.00000000000E+00 0. -1.
        -13    1    6    6    0    0 -0.87095039711E+01  0.75179960361E+01  0.27779032811E+02  0.30067430681E+02  0.00000000000E+00 0.  1.
          5    1    5    5  501    0  0.56725138120E+02  0.18697811628E+03 -0.39563956681E+02  0.19941402642E+03  0.47000000000E+01 0. -1.
         13    1    4    4    0    0 -0.58366108898E+02 -0.17250633111E+03 -0.61395327148E+02  0.19218330608E+03  0.00000000000E+00 0. -1.
        -14    1    4    4    0    0  0.26242428827E+01 -0.10251395348E+03  0.14210468498E+02  0.10352745879E+03  0.00000000000E+00 0.  1.
         -5    1    3    3    0  503  0.53424040971E+02 -0.55422046974E+02 -0.38539293868E+02  0.86215419829E+02  0.47000000000E+01 0.  1.
</event>
<event>
12    1  0.9749377E-001  0.5577056E+03  0.7818608E-02  0.9997260E-01
         21   -1    0    0  501  502  0.00000000000E+00  0.00000000000E+00  0.11278396058E+04  0.11278396058E+04  0.00000000000E+00 0. -1.
         21   -1    0    0  502  503 -0.00000000000E+00 -0.00000000000E+00 -0.39130013043E+03  0.39130013043E+03  0.00000000000E+00 0.  1.
         -6    2    1    2    0  503  0.54848870180E+03 -0.52584286823E+02  0.74400783769E+03  0.94201366126E+03  0.17388821763E+03 0.  0.
        -24    2    3    3    0    0  0.44826791119E+03 -0.44010242695E+02  0.49909285960E+03  0.67720588646E+03  0.81443897752E+02 0.  0.
          6    2    1    2  501    0 -0.54848870180E+03  0.52584286823E+02 -0.74683623150E+01  0.57712607497E+03  0.17150442197E+03 0.  0.
         24    2    5    5    0    0 -0.32754510916E+03  0.49096169004E+02 -0.69062827946E+02  0.34768282210E+03  0.80108914799E+02 0.  0.
         14    1    6    6    0    0 -0.18464210690E+02  0.23215789162E+02 -0.13466972219E+02  0.32576974745E+02  0.00000000000E+00 0. -1.
        -13    1    6    6    0    0 -0.30908089847E+03  0.25880379843E+02 -0.55595855728E+02  0.31510584735E+03  0.00000000000E+00 0.  1.
          5    1    5    5  501    0 -0.22094359264E+03  0.34881178183E+01  0.61594465631E+02  0.22944325288E+03  0.47000000000E+01 0. -1.
         13    1    4    4    0    0  0.98600102536E+02 -0.33177400488E+02  0.79654160302E+02  0.13102482733E+03  0.00000000000E+00 0. -1.
        -14    1    4    4    0    0  0.34966780866E+03 -0.10832842208E+02  0.41943869930E+03  0.54618105913E+03  0.00000000000E+00 0.  1.
         -5    1    3    3    0  503  0.10022079061E+03 -0.85740441274E+01  0.24491497809E+03  0.26480777480E+03  0.47000000000E+01 0.  1.
</event>
<event>
12    1  0.9749377E-001  0.2643393E+03  0.7818608E-02  0.1104564E+00
         21   -1    0    0  501  502  0.00000000000E+00  0.00000000000E+00  0.81881881513E+02  0.81881881513E+02  0.00000000000E+00 0.  1.
         21   -1    0    0  502  503 -0.00000000000E+00 -0.00000000000E+00 -0.13957648933E+04  0.13957648933E+04  0.00000000000E+00 0. -1.
         -6    2    1    2    0  503 -0.12929022427E+02  0.23392658777E+03 -0.10337510202E+04  0.10739599667E+04  0.17280055006E+03 0.  0.
        -24    2    3    3    0    0 -0.20413265360E+02  0.21668215928E+03 -0.65568895642E+03  0.69540165109E+03  0.79294320166E+02 0.  0.
          6    2    1    2  501    0  0.12929022427E+02 -0.23392658777E+03 -0.28013199162E+03  0.40368680820E+03  0.17204737226E+03 0.  0.
         24    2    5    5    0    0  0.66372203222E+02 -0.95170011227E+02 -0.12370071976E+03  0.18781093201E+03  0.80675136912E+02 0.  0.
         14    1    6    6    0    0  0.68661465592E+02 -0.28908582720E+02 -0.57397402456E+02  0.94045546523E+02  0.00000000000E+00 0. -1.
        -13    1    6    6    0    0 -0.22892623692E+01 -0.66261428507E+02 -0.66303317308E+02  0.93765385490E+02  0.00000000000E+00 0.  1.
          5    1    5    5  501    0 -0.53443180795E+02 -0.13875657654E+03 -0.15643127185E+03  0.21587587619E+03  0.47000000000E+01 0. -1.
         11    1    4    4    0    0 -0.28452724037E+02  0.17043240548E+03 -0.58917708321E+03  0.61399218050E+03  0.00000000000E+00 0. -1.
        -12    1    4    4    0    0  0.80394586770E+01  0.46249753803E+02 -0.66511873216E+02  0.81409470587E+02  0.00000000000E+00 0.  1.
         -5    1    3    3    0  503  0.74842429329E+01  0.17244428485E+02 -0.37806206379E+03  0.37855831557E+03  0.47000000000E+01 0.  1.
</event>
<event>
12    1  0.9749377E-001  0.4350843E+03  0.7818608E-02  0.1032266E+00
         21   -1    0    0  503  502  0.00000000000E+00  0.00000000000E+00  0.22656368016E+03  0.22656368016E+03  0.00000000000E+00 0. -1.
         21   -1    0    0  501  503 -0.00000000000E+00 -0.00000000000E+00 -0.15227770493E+04  0.15227770493E+04  0.00000000000E+00 0.  1.
          6    2    1    2  501    0 -0.22747047278E+03 -0.33238312698E+03 -0.65498051504E+02  0.44303397697E+03  0.17253333277E+03 0.  0.
         24    2    3    3    0    0 -0.50497020666E+02 -0.17757865155E+03 -0.90649934595E+01  0.20118524655E+03  0.79430490002E+02 0.  0.
         -6    2    1    2    0  502  0.22747047278E+03  0.33238312698E+03 -0.12307153177E+04  0.13063067525E+04  0.17191794387E+03 0.  0.
        -24    2    5    5    0    0  0.24642132196E+03  0.27845200406E+03 -0.10914742739E+04  0.11557150563E+04  0.78116670715E+02 0.  0.
         12    1    4    4    0    0 -0.22485637919E+02 -0.40048493129E+01 -0.11010521502E+02  0.25354966267E+02  0.00000000000E+00 0. -1.
        -11    1    4    4    0    0 -0.28011382747E+02 -0.17357380223E+03  0.19455280427E+01  0.17583028028E+03  0.00000000000E+00 0.  1.
          5    1    3    3  501    0 -0.17697345211E+03 -0.15480447543E+03 -0.56433058044E+02  0.24184873042E+03  0.47000000000E+01 0. -1.
         13    1    6    6    0    0  0.47241217491E+02  0.10391217967E+03 -0.29199765096E+03  0.31351571233E+03  0.00000000000E+00 0. -1.
        -14    1    6    6    0    0  0.19918010447E+03  0.17453982439E+03 -0.79947662296E+03  0.84219934396E+03  0.00000000000E+00 0.  1.
         -5    1    5    5    0  502 -0.18950849180E+02  0.53931122919E+02 -0.13924104374E+03  0.15059169620E+03  0.47000000000E+01 0.  1.
</event>
<event>
12    1  0.9749377E-001  0.2229129E+03  0.7818608E-02  0.1131730E+00
         21   -1    0    0  503  502  0.00000000000E+00  0.00000000000E+00  0.52934706483E+02  0.52934706483E+02  0.00000000000E+00 0.  1.
         21   -1    0    0  501  503 -0.00000000000E+00 -0.00000000000E+00 -0.14297599178E+04  0.14297599178E+04  0.00000000000E+00 0. -1.
          6    2    1    2  501    0 -0.16431690416E+02 -0.17804454432E+03 -0.36235539388E+03  0.43890072133E+03  0.17135504513E+03 0.  0.
         24    2    3    3    0    0  0.32463759115E+02 -0.76150678892E+02 -0.26707309939E+03  0.29100234256E+03  0.80631888287E+02 0.  0.
         -6    2    1    2    0  502  0.16431690416E+02  0.17804454432E+03 -0.10144698174E+04  0.10437939030E+04  0.16848394925E+03 0.  0.
        -24    2    5    5    0    0  0.69844810018E+02  0.10783185206E+03 -0.52331626206E+03  0.54475814426E+03  0.79971993834E+02 0.  0.
         14    1    4    4    0    0 -0.18240697621E+02 -0.59408094577E+02 -0.14623285527E+03  0.15889019074E+03  0.00000000000E+00 0. -1.
        -13    1    4    4    0    0  0.50704456736E+02 -0.16742584315E+02 -0.12084024411E+03  0.13211215183E+03  0.00000000000E+00 0.  1.
          5    1    3    3  501    0 -0.48895449531E+02 -0.10189386543E+03 -0.95282294495E+02  0.14789837876E+03  0.47000000000E+01 0. -1.
         13    1    6    6    0    0  0.41332367621E+02  0.55150458719E+02 -0.13225157680E+03  0.14913221408E+03  0.00000000000E+00 0. -1.
        -14    1    6    6    0    0  0.28512442397E+02  0.52681393345E+02 -0.39106468525E+03  0.39562593018E+03  0.00000000000E+00 0.  1.
         -5    1    5    5    0  502 -0.53413119602E+02  0.70212692256E+02 -0.49115355537E+03  0.49903575869E+03  0.47000000000E+01 0.  1.
</event>
<event>
12    1  0.9749377E-001  0.6629905E+03  0.7818608E-02  0.9782704E-01
         21   -1    0    0  501  502  0.00000000000E+00  0.00000000000E+00  0.16049590725E+04  0.16049590725E+04  0.00000000000E+00 0. -1.
         21   -1    0    0  502  503 -0.00000000000E+00 -0.00000000000E+00 -0.28555241031E+03  0.28555241031E+03  0.00000000000E+00 0.  1.
         -6    2    1    2    0  503  0.14234002696E+03 -0.63238240487E+03  0.77962740323E+03  0.10286447421E+04  0.17355958162E+03 0.  0.
        -24    2    3    3    0    0  0.16504521219E+03 -0.57541275530E+03  0.74119845619E+03  0.95611929571E+03  0.80306880951E+02 0.  0.
          6    2    1    2  501    0 -0.14234002696E+03  0.63238240487E+03  0.53977925894E+03  0.86186674067E+03  0.17687408244E+03 0.  0.
         24    2    5    5    0    0 -0.17347430555E+03  0.56301233328E+03  0.49415825416E+03  0.77306968997E+03  0.79800647213E+02 0.  0.
         12    1    6    6    0    0 -0.65409856743E+02  0.19607770648E+03  0.22383310434E+03  0.30467388293E+03  0.00000000000E+00 0. -1.
        -11    1    6    6    0    0 -0.10806444881E+03  0.36693462679E+03  0.27032514982E+03  0.46839580705E+03  0.00000000000E+00 0.  1.
          5    1    5    5  501    0  0.31134278591E+02  0.69370071591E+02  0.45621004782E+02  0.88797050701E+02  0.47000000000E+01 0. -1.
         11    1    4    4    0    0  0.72846447061E+02 -0.21272963424E+03  0.22079717207E+03  0.31513789573E+03  0.00000000000E+00 0. -1.
        -12    1    4    4    0    0  0.92198765130E+02 -0.36268312107E+03  0.52040128412E+03  0.64098139997E+03  0.00000000000E+00 0.  1.
         -5    1    3    3    0  503 -0.22705185233E+02 -0.56969649565E+02  0.38428947044E+02  0.72525446423E+02  0.47000000000E+01 0.  1.
</event>
<event>
12    1  0.9749377E-001  0.3805134E+03  0.7818608E-02  0.1050744E+00
         21   -1    0    0  503  502  0.00000000000E+00  0.00000000000E+00  0.34230491571E+03  0.34230491571E+03  0.00000000000E+00 0. -1.
         21   -1    0    0  501  503 -0.00000000000E+00 -0.00000000000E+00 -0.49504853895E+03  0.49504853895E+03  0.00000000000E+00 0.  1.
          6    2    1    2  501    0  0.16959614714E+03 -0.32014873248E+03 -0.16598661601E+03  0.43457529977E+03  0.17333802364E+03 0.  0.
         24    2    3    3    0    0  0.13649814502E+03 -0.11844247814E+03 -0.86709054464E+02  0.21528573652E+03  0.78543771244E+02 0.  0.
         -6    2    1    2    0  502 -0.16959614714E+03  0.32014873248E+03  0.13242992765E+02  0.40277815489E+03  0.17549017399E+03 0.  0.
        -24    2    5    5    0    0 -0.28807481426E+02  0.64508828178E+02 -0.17610394299E+02  0.10926967025E+03  0.81476836891E+02 0.  0.
         12    1    4    4    0    0  0.10564349436E+03 -0.11896782787E+03 -0.92279764212E+02  0.18392783055E+03  0.00000000000E+00 0. -1.
        -11    1    4    4    0    0  0.30854650663E+02  0.52534972685E+00  0.55707097476E+01  0.31357905972E+02  0.00000000000E+00 0.  1.
          5    1    3    3  501    0  0.33098002118E+02 -0.20170625434E+03 -0.79277561542E+02  0.21928956325E+03  0.47000000000E+01 0. -1.
         13    1    6    6    0    0 -0.15318407745E+02  0.57534512747E+02  0.24592512868E+02  0.64417897063E+02  0.00000000000E+00 0. -1.
        -14    1    6    6    0    0 -0.13489073681E+02  0.69743154310E+01 -0.42202907167E+02  0.44851773185E+02  0.00000000000E+00 0.  1.
         -5    1    5    5    0  502 -0.14078866572E+03  0.25563990430E+03  0.30853387064E+02  0.29350848465E+03  0.47000000000E+01 0.  1.
</event>
<event>
12    1  0.9749377E-001  0.3157265E+03  0.7818608E-02  0.1077633E+00
         21   -1    0    0  501  502  0.00000000000E+00  0.00000000000E+00  0.37619172193E+03  0.37619172193E+03  0.00000000000E+00 0.  1.
         21   -1    0    0  502  503 -0.00000000000E+00 -0.00000000000E+00 -0.26557816053E+03  0.26557816053E+03  0.00000000000E+00 0. -1.
         -6    2    1    2    0  503  0.21979612782E+03 -0.14754770390E+03  0.60929747278E+02  0.32174422388E+03  0.17241301797E+03 0.  0.
        -24    2    3    3    0    0  0.22936964685E+02 -0.40829064129E+02  0.13820015861E+02  0.92869116060E+02  0.78997234463E+02 0.  0.
          6    2    1    2  501    0 -0.21979612782E+03  0.14754770390E+03  0.49683814120E+02  0.32002565858E+03  0.17282152075E+03 0.  0.
         24    2    5    5    0    0 -0.18168604525E+03  0.17730697143E+03  0.41576972897E+02  0.27077321425E+03  0.84509808455E+02 0.  0.
         12    1    6    6    0    0 -0.11996247262E+03  0.58713402378E+02  0.27268313598E+02  0.13631514730E+03  0.00000000000E+00 0. -1.
        -11    1    6    6    0    0 -0.61723572628E+02  0.11859356905E+03  0.14308659299E+02  0.13445806695E+03  0.00000000000E+00 0.  1.
          5    1    5    5  501    0 -0.38110082574E+02 -0.29759267532E+02  0.81068412225E+01  0.49252444329E+02  0.47000000000E+01 0. -1.
         11    1    4    4    0    0  0.11072999074E+02 -0.64352217273E+02  0.71205492581E+01  0.65685016542E+02  0.00000000000E+00 0. -1.
        -12    1    4    4    0    0  0.11863965611E+02  0.23523153144E+02  0.66994666026E+01  0.27184099518E+02  0.00000000000E+00 0.  1.
         -5    1    3    3    0  503  0.19685916314E+03 -0.10671863977E+03  0.47109731417E+02  0.22887510782E+03  0.47000000000E+01 0.  1.
</event>
<event>
12    1  0.9749377E-001  0.2566604E+03  0.7818608E-02  0.1109166E+00
         21   -1    0    0  501  502  0.00000000000E+00  0.00000000000E+00  0.35876263718E+03  0.35876263718E+03  0.00000000000E+00 0.  1.
         21   -1    0    0  502  503 -0.00000000000E+00 -0.00000000000E+00 -0.20530101683E+03  0.20530101683E+03  0.00000000000E+00 0. -1.
         -6    2    1    2    0  503  0.39752874960E+02 -0.20643432186E+03  0.87676083924E+02  0.28413352099E+03  0.16985093979E+03 0.  0.
        -24    2    3    3    0    0  0.19131965888E+02 -0.37685876864E+02  0.66962878008E+02  0.11280813910E+03  0.80345452781E+02 0.  0.
          6    2    1    2  501    0 -0.39752874960E+02  0.20643432186E+03  0.65785536429E+02  0.27993013302E+03  0.17273599006E+03 0.  0.
         24    2    5    5    0    0  0.43174132064E+02  0.13253494597E+03  0.44002123375E+02  0.16664018054E+03  0.80020280707E+02 0.  0.
         14    1    6    6    0    0  0.15362609267E+02  0.85287253009E+02 -0.12909847088E+02  0.87616148290E+02  0.00000000000E+00 0. -1.
        -13    1    6    6    0    0  0.27811522797E+02  0.47247692964E+02  0.56911970463E+02  0.79024032247E+02  0.00000000000E+00 0.  1.
          5    1    5    5  501    0 -0.82927007024E+02  0.73899375885E+02  0.21783413055E+02  0.11328995249E+03  0.47000000000E+01 0. -1.
         11    1    4    4    0    0 -0.30436000465E+02 -0.40878671054E+01  0.26222790547E+02  0.40381871253E+02  0.00000000000E+00 0. -1.
        -12    1    4    4    0    0  0.49567966353E+02 -0.33598009759E+02  0.40740087460E+02  0.72426267848E+02  0.00000000000E+00 0.  1.
         -5    1    3    3    0  503  0.20620909071E+02 -0.16874844499E+03  0.20713205916E+02  0.17132538188E+03  0.47000000000E+01 0.  1.
</event>
<event>
12    1  0.9749377E-001  0.3769478E+03  0.7818608E-02  0.1052068E+00
         21   -1    0    0  501  502  0.00000000000E+00  0.00000000000E+00  0.41492255431E+03  0.41492255431E+03  0.00000000000E+00 0.  1.
         21   -1    0    0  502  503 -0.00000000000E+00 -0.00000000000E+00 -0.35739010239E+03  0.35739010239E+03  0.00000000000E+00 0. -1.
         -6    2    1    2    0  503 -0.30740899172E+03 -0.14398658357E+03 -0.15593398828E+02  0.38337488528E+03  0.17748443350E+03 0.  0.
        -24    2    3    3    0    0 -0.32276450328E+03 -0.13665384898E+03 -0.28407084411E+02  0.36156109904E+03  0.84072985454E+02 0.  0.
          6    2    1    2  501    0  0.30740899172E+03  0.14398658357E+03  0.73125850747E+02  0.38893777142E+03  0.17519353740E+03 0.  0.
         24    2    5    5    0    0  0.11973017628E+03  0.12662010282E+03  0.71051799743E+01  0.18917353190E+03  0.73267837684E+02 0.  0.
         12    1    6    6    0    0  0.12943206751E+03  0.11520395345E+03  0.11213650218E+02  0.17363858137E+03  0.00000000000E+00 0. -1.
        -11    1    6    6    0    0 -0.97018912352E+01  0.11416149375E+02 -0.41084702437E+01  0.15534950526E+02  0.00000000000E+00 0.  1.
          5    1    5    5  501    0  0.18767881545E+03  0.17366480747E+02  0.66020670773E+02  0.19976423952E+03  0.47000000000E+01 0. -1.
         11    1    4    4    0    0 -0.17250063384E+03 -0.29784446293E+02 -0.27279894439E+02  0.17716595202E+03  0.00000000000E+00 0. -1.
        -12    1    4    4    0    0 -0.15026386944E+03 -0.10686940268E+03 -0.11271899714E+01  0.18439514702E+03  0.00000000000E+00 0.  1.
         -5    1    3    3    0  503  0.15355511552E+02 -0.73327345927E+01  0.12813685583E+02  0.21813786233E+02  0.47000000000E+01 0.  1.
</event>
<event>
12    1  0.9749377E-001  0.1225374E+04  0.7818608E-02  0.9090932E-01
         21   -1    0    0  501  502  0.00000000000E+00  0.00000000000E+00  0.17055386725E+04  0.17055386725E+04  0.00000000000E+00 0. -1.
         21   -1    0    0  502  503 -0.00000000000E+00 -0.00000000000E+00 -0.90631811992E+03  0.90631811992E+03  0.00000000000E+00 0.  1.
         -6    2    1    2    0  503  0.10569603105E+04 -0.59845454360E+03  0.18718057550E+03  0.12409435480E+04  0.17202145998E+03 0.  0.
        -24    2    3    3    0    0  0.84855973058E+03 -0.54520247892E+03  0.15646884040E+03  0.10236145697E+04  0.77491483452E+02 0.  0.
          6    2    1    2  501    0 -0.10569603105E+04  0.59845454360E+03  0.61203997712E+03  0.13709132445E+04  0.17174763896E+03 0.  0.
         24    2    5    5    0    0 -0.21251657209E+03  0.13429822374E+03  0.13149388546E+03  0.29412498633E+03  0.77585819325E+02 0.  0.
         14    1    6    6    0    0 -0.78498205369E+02  0.99562963826E+01  0.52579107511E+02  0.95003466413E+02  0.00000000000E+00 0. -1.
        -13    1    6    6    0    0 -0.13401836672E+03  0.12434192735E+03  0.78914777951E+02  0.19912151992E+03  0.00000000000E+00 0.  1.
          5    1    5    5  501    0 -0.84444373843E+03  0.46415631987E+03  0.48054609166E+03  0.10767882581E+04  0.47000000000E+01 0. -1.
         11    1    4    4    0    0  0.14507964525E+03 -0.69856369563E+02  0.44018118533E+01  0.16108194121E+03  0.00000000000E+00 0. -1.
        -12    1    4    4    0    0  0.70348008533E+03 -0.47534610936E+03  0.15206702855E+03  0.86253262854E+03  0.00000000000E+00 0.  1.
         -5    1    3    3    0  503  0.20840057995E+03 -0.53252064686E+02  0.30711735098E+02  0.21732897825E+03  0.47000000000E+01 0.  1.
</event>
<event>
12    1  0.9749377E-001  0.5726907E+03  0.7818608E-02  0.9963742E-01
         21   -1    0    0  501  502  0.00000000000E+00  0.00000000000E+00  0.70767369738E+03  0.70767369738E+03  0.00000000000E+00 0. -1.
         21   -1    0    0  502  503 -0.00000000000E+00 -0.00000000000E+00 -0.69924629149E+03  0.69924629149E+03  0.00000000000E+00 0.  1.
         -6    2    1    2    0  503 -0.79884497811E+02 -0.55618049339E+03 -0.38208420373E+03  0.70077879571E+03  0.17141851580E+03 0.  0.
        -24    2    3    3    0    0 -0.40261960108E+01 -0.31870822442E+03 -0.15446230877E+03  0.36316751399E+03  0.80255191846E+02 0.  0.
          6    2    1    2  501    0  0.79884497811E+02  0.55618049339E+03  0.39051160962E+03  0.70614119316E+03  0.17440697582E+03 0.  0.
         24    2    5    5    0    0  0.20147580690E+02  0.22108332271E+03  0.23062681259E+03  0.33005097608E+03  0.80381338234E+02 0.  0.
         14    1    6    6    0    0  0.13262588232E+02 -0.65700120714E+00  0.68392703217E+01  0.14936650084E+02  0.00000000000E+00 0. -1.
        -13    1    6    6    0    0  0.68849924587E+01  0.22174032392E+03  0.22378754227E+03  0.31511432600E+03  0.00000000000E+00 0.  1.
          5    1    5    5  501    0  0.59736917120E+02  0.33509717068E+03  0.15988479703E+03  0.37609021708E+03  0.47000000000E+01 0. -1.
         11    1    4    4    0    0 -0.12449284365E+02 -0.45671850533E+02 -0.54735978552E+02  0.72366635685E+02  0.00000000000E+00 0. -1.
        -12    1    4    4    0    0  0.84230883538E+01 -0.27303637389E+03 -0.99726330214E+02  0.29080087830E+03  0.00000000000E+00 0.  1.
         -5    1    3    3    0  503 -0.75858301800E+02 -0.23747226897E+03 -0.22762189496E+03  0.33761128173E+03  0.47000000000E+01 0.  1.
</event>
<event>
12    1  0.9749377E-001  0.5686364E+03  0.7818608E-02  0.9972701E-01
         21   -1    0    0  503  502  0.00000000000E+00  0.00000000000E+00  0.98229181743E+03  0.98229181743E+03  0.00000000000E+00 0. -1.
         21   -1    0    0  501  503 -0.00000000000E+00 -0.00000000000E+00 -0.39070601472E+03  0.39070601472E+03  0.00000000000E+00 0.  1.
          6    2    1    2  501    0  0.19290998775E+03  0.51847796897E+03  0.53936203749E+03  0.79143661121E+03  0.17154251487E+03 0.  0.
         24    2    3    3    0    0  0.15865026466E+03  0.47725159717E+03  0.53311441468E+03  0.73726590743E+03  0.80069005507E+02 0.  0.
         -6    2    1    2    0  502 -0.19290998775E+03 -0.51847796897E+03  0.52223765219E+02  0.58156122094E+03  0.17161720302E+03 0.  0.
        -24    2    5    5    0    0 -0.21614311679E+03 -0.49042252632E+03  0.56553481215E+02  0.54457848730E+03  0.78328355806E+02 0.  0.
         12    1    4    4    0    0  0.15060976751E+03  0.35414557575E+03  0.38277973938E+03  0.54279159884E+03  0.00000000000E+00 0. -1.
        -11    1    4    4    0    0  0.80404971547E+01  0.12310602142E+03  0.15033467530E+03  0.19447430859E+03  0.00000000000E+00 0.  1.
          5    1    3    3  501    0  0.34259723083E+02  0.41226371796E+02  0.62476228068E+01  0.54170703779E+02  0.47000000000E+01 0. -1.
         11    1    6    6    0    0 -0.14093965549E+03 -0.37654798238E+03  0.67447946299E+02  0.40767829839E+03  0.00000000000E+00 0. -1.
        -12    1    6    6    0    0 -0.75203461309E+02 -0.11387454395E+03 -0.10894465085E+02  0.13690018890E+03  0.00000000000E+00 0.  1.
         -5    1    5    5    0  502  0.23233129049E+02 -0.28055442641E+02 -0.43297159957E+01  0.36982733644E+02  0.47000000000E+01 0.  1.
</event>
<event>
12    1  0.9749377E-001  0.3929010E+03  0.7818608E-02  0.1046266E+00
         21   -1    0    0  503  502  0.00000000000E+00  0.00000000000E+00  0.30667139102E+03  0.30667139102E+03  0.00000000000E+00 0. -1.
         21   -1    0    0  501  503 -0.00000000000E+00 -0.00000000000E+00 -0.59309649253E+03  0.59309649253E+03  0.00000000000E+00 0.  1.
          6    2    1    2  501    0 -0.15379491570E+03 -0.35841308949E+03 -0.16645192130E+03  0.45696651748E+03  0.17029191753E+03 0.  0.
         24    2    3    3    0    0 -0.13465705338E+03 -0.29689036237E+03 -0.19453123285E+03  0.38652617773E+03  0.72688900275E+02 0.  0.
         -6    2    1    2    0  502  0.15379491570E+03  0.35841308949E+03 -0.11997318021E+03  0.44280136607E+03  0.17194960602E+03 0.  0.
        -24    2    5    5    0    0  0.68956952396E+02  0.18923730784E+03 -0.12802438828E+03  0.25331564875E+03  0.84927933849E+02 0.  0.
         12    1    4    4    0    0 -0.14568975885E+02 -0.81444587169E+02 -0.78086867825E+02  0.11376745916E+03  0.00000000000E+00 0. -1.
        -11    1    4    4    0    0 -0.12008807750E+03 -0.21544577520E+03 -0.11644436502E+03  0.27275871857E+03  0.00000000000E+00 0.  1.
          5    1    3    3  501    0 -0.19137862320E+02 -0.61522727122E+02  0.28079311546E+02  0.70440339747E+02  0.47000000000E+01 0. -1.
         11    1    6    6    0    0  0.51890030841E+02  0.11261833429E+03 -0.29708274090E+02  0.12750704321E+03  0.00000000000E+00 0. -1.
        -12    1    6    6    0    0  0.17066921556E+02  0.76618973540E+02 -0.98316114191E+02  0.12580860554E+03  0.00000000000E+00 0.  1.
         -5    1    5    5    0  502  0.84837963307E+02  0.16917578166E+03  0.80512080695E+01  0.18948571732E+03  0.47000000000E+01 0.  1.
</event>
<event>
12    1  0.9749377E-001  0.4199580E+03  0.7818608E-02  0.1037080E+00
         21   -1    0    0  501  502  0.00000000000E+00  0.00000000000E+00  0.97265813128E+03  0.97265813128E+03  0.00000000000E+00 0.  1.
         21   -1    0    0  502  503 -0.00000000000E+00 -0.00000000000E+00 -0.19839420856E+03  0.19839420856E+03  0.00000000000E+00 0. -1.
         -6    2    1    2    0  503  0.24333915960E+03  0.31932750277E+03  0.43622912255E+03  0.61710562601E+03  0.17128778612E+03 0.  0.
        -24    2    3    3    0    0  0.91155312933E+02  0.22808538166E+03  0.28465989409E+03  0.38369532446E+03  0.76541585501E+02 0.  0.
          6    2    1    2  501    0 -0.24333915960E+03 -0.31932750277E+03  0.33803480018E+03  0.55394671384E+03  0.17721578660E+03 0.  0.
         24    2    5    5    0    0 -0.21229288799E+03 -0.30779482377E+03  0.24181212813E+03  0.45207539166E+03  0.78058507570E+02 0.  0.
         14    1    6    6    0    0 -0.12408092802E+03 -0.12201763635E+03  0.13556647259E+03  0.22059612138E+03  0.00000000000E+00 0. -1.
        -13    1    6    6    0    0 -0.88211959972E+02 -0.18577718742E+03  0.10624565554E+03  0.23147927028E+03  0.00000000000E+00 0.  1.
          5    1    5    5  501    0 -0.31046271608E+02 -0.11532678994E+02  0.96222672044E+02  0.10187132217E+03  0.47000000000E+01 0. -1.
         11    1    4    4    0    0  0.93176635089E+02  0.19481804306E+03  0.27364491682E+03  0.34859359680E+03  0.00000000000E+00 0. -1.
        -12    1    4    4    0    0 -0.20213221564E+01  0.33267338599E+02  0.11014977266E+02  0.35101727663E+02  0.00000000000E+00 0.  1.
         -5    1    3    3    0  503  0.15218384667E+03  0.91242121111E+02  0.15156922846E+03  0.23341030154E+03  0.47000000000E+01 0.  1.
</event>
<event>
12    1  0.9749377E-001  0.6738284E+03  0.7818608E-02  0.9763066E-01
         21   -1    0    0  503  502  0.00000000000E+00  0.00000000000E+00  0.12488343856E+04  0.12488343856E+04  0.00000000000E+00 0. -1.
         21   -1    0    0  501  503 -0.00000000000E+00 -0.00000000000E+00 -0.38273786072E+03  0.38273786072E+03  0.00000000000E+00 0.  1.
          6    2    1    2  501    0 -0.19530737438E+03  0.63435337965E+03  0.32813104353E+03  0.76010994699E+03  0.17189522686E+03 0.  0.
         24    2    3    3    0    0 -0.85619613285E+02  0.43980502874E+03  0.27103304851E+03  0.52953948744E+03  0.78701803655E+02 0.  0.
         -6    2    1    2    0  502  0.19530737438E+03 -0.63435337965E+03  0.53796548136E+03  0.87146229934E+03  0.17172798045E+03 0.  0.
        -24    2    5    5    0    0  0.46602216687E+02 -0.26423296076E+03  0.28431568134E+03  0.39874392710E+03  0.78552457557E+02 0.  0.
         12    1    4    4    0    0 -0.43073890147E+02  0.36252437611E+03  0.23545519335E+03  0.43441734699E+03  0.00000000000E+00 0. -1.
        -11    1    4    4    0    0 -0.42545723138E+02  0.77280652630E+02  0.35577855153E+02  0.95122140459E+02  0.00000000000E+00 0.  1.
          5    1    3    3  501    0 -0.10968776110E+03  0.19454835092E+03  0.57097995019E+02  0.23057045954E+03  0.47000000000E+01 0. -1.
         11    1    6    6    0    0  0.42714355922E+02 -0.11323354840E+03  0.81688847644E+02  0.14601171362E+03  0.00000000000E+00 0. -1.
        -12    1    6    6    0    0  0.38878607651E+01 -0.15099941236E+03  0.20262683370E+03  0.25273221348E+03  0.00000000000E+00 0.  1.
         -5    1    5    5    0  502  0.14870515770E+03 -0.37012041889E+03  0.25364980002E+03  0.47271837224E+03  0.47000000000E+01 0.  1.
</event>
<event>
12    1  0.9749377E-001  0.2857603E+03  0.7818608E-02  0.1092584E+00
         21   -1    0    0  503  502  0.00000000000E+00  0.00000000000E+00  0.35651522468E+03  0.35651522468E+03  0.00000000000E+00 0. -1.
         21   -1    0    0  501  503 -0.00000000000E+00 -0.00000000000E+00 -0.27637620338E+03  0.27637620338E+03  0.00000000000E+00 0.  1.
          6    2    1    2  501    0 -0.49301775453E+02 -0.24551142270E+03 -0.39084305257E+02  0.30681216726E+03  0.17291500607E+03 0.  0.
         24    2    3    3    0    0  0.31581525128E+02 -0.16939172217E+03 -0.46782446905E+02  0.19537757431E+03  0.79327491670E+02 0.  0.
         -6    2    1    2    0  502  0.49301775453E+02  0.24551142270E+03  0.11922332655E+03  0.32607926079E+03  0.17148457361E+03 0.  0.
        -24    2    5    5    0    0  0.19115542924E+02  0.99854620543E+02 -0.71647167414E+01  0.13082778158E+03  0.82025764497E+02 0.  0.
         12    1    4    4    0    0 -0.18789172458E+02 -0.10790960704E+03 -0.18926229247E+02  0.11115627939E+03  0.00000000000E+00 0. -1.
        -11    1    4    4    0    0  0.50370697586E+02 -0.61482115132E+02 -0.27856217658E+02  0.84221294924E+02  0.00000000000E+00 0.  1.
          5    1    3    3  501    0 -0.80883300581E+02 -0.76119700527E+02  0.76981416485E+01  0.11143459295E+03  0.47000000000E+01 0. -1.
         13    1    6    6    0    0 -0.20581394412E+02  0.73589912248E+01  0.16551553979E+02  0.27417193272E+02  0.00000000000E+00 0. -1.
        -14    1    6    6    0    0  0.39696937335E+02  0.92495629318E+02 -0.23716270720E+02  0.10341058831E+03  0.00000000000E+00 0.  1.
         -5    1    5    5    0  502  0.30186232529E+02  0.14565680216E+03  0.12638804329E+03  0.19525147922E+03  0.47000000000E+01 0.  1.
</event>
<event>
12    1  0.9749377E-001  0.3897758E+03  0.7818608E-02  0.1047379E+00
         21   -1    0    0  503  502  0.00000000000E+00  0.00000000000E+00  0.32541749847E+03  0.32541749847E+03  0.00000000000E+00 0.  1.
         21   -1    0    0  501  503 -0.00000000000E+00 -0.00000000000E+00 -0.49488091393E+03  0.49488091393E+03  0.00000000000E+00 0. -1.
          6    2    1    2  501    0  0.27479912582E+03 -0.23584351667E+03 -0.96123764509E+02  0.41247118720E+03  0.17249921234E+03 0.  0.
         24    2    3    3    0    0  0.20236998602E+03 -0.22535855497E+03 -0.32972552632E+02  0.31569267576E+03  0.82671559586E+02 0.  0.
         -6    2    1    2    0  502 -0.27479912582E+03  0.23584351667E+03 -0.73339650954E+02  0.40782722521E+03  0.17264882656E+03 0.  0.
        -24    2    5    5    0    0 -0.27238393063E+03  0.16623523223E+03 -0.77500345534E+02  0.33789477345E+03  0.79620451298E+02 0.  0.
         14    1    4    4    0    0  0.10811077709E+03 -0.16111253984E+03 -0.49986161570E+02  0.20035919486E+03  0.00000000000E+00 0. -1.
        -13    1    4    4    0    0  0.94259208933E+02 -0.64246015128E+02  0.17013608937E+02  0.11533348090E+03  0.00000000000E+00 0.  1.
          5    1    3    3  501    0  0.72429139799E+02 -0.10484961700E+02 -0.63151211877E+02  0.96778511434E+02  0.47000000000E+01 0. -1.
         11    1    6    6    0    0 -0.34661810523E+02 -0.54347798413E+01 -0.22061079551E+01  0.35154585092E+02  0.00000000000E+00 0. -1.
        -12    1    6    6    0    0 -0.23772212011E+03  0.17167001208E+03 -0.75294237579E+02  0.30274018836E+03  0.00000000000E+00 0.  1.
         -5    1    5    5    0  502 -0.24151951877E+01  0.69608284432E+02  0.41606945806E+01  0.69932451757E+02  0.47000000000E+01 0.  1.
</event>
<event>
12    1  0.9749377E-001  0.3985834E+03  0.7818608E-02  0.1044271E+00
         21   -1    0    0  501  502  0.00000000000E+00  0.00000000000E+00  0.18449408957E+03  0.18449408957E+03  0.00000000000E+00 0. -1.
         21   -1    0    0  502  503 -0.00000000000E+00 -0.00000000000E+00 -0.13068405870E+04  0.13068405870E+04  0.00000000000E+00 0.  1.
         -6    2    1    2    0  503 -0.34790267624E+03 -0.13858542991E+03 -0.15564132989E+03  0.43978786566E+03  0.17013803129E+03 0.  0.
        -24    2    3    3    0    0 -0.18724861716E+03 -0.13880856901E+03 -0.60117888160E+02  0.25282103862E+03  0.77294589955E+02 0.  0.
          6    2    1    2  501    0  0.34790267624E+03  0.13858542991E+03 -0.96670516754E+03  0.10515468109E+04  0.17603869193E+03 0.  0.
         24    2    5    5    0    0  0.16108476790E+03  0.43956958229E+02 -0.59472664532E+03  0.62464449242E+03  0.92738571479E+02 0.  0.
         12    1    6    6    0    0  0.16722671546E+03  0.27842253408E+02 -0.56863888232E+03  0.59337184289E+03  0.00000000000E+00 0. -1.
        -11    1    6    6    0    0 -0.61419475563E+01  0.16114704821E+02 -0.26087762991E+02  0.31272649538E+02  0.00000000000E+00 0.  1.
          5    1    5    5  501    0  0.18681790834E+03  0.94628471677E+02 -0.37197852222E+03  0.42690231848E+03  0.47000000000E+01 0. -1.
         11    1    4    4    0    0 -0.10036313874E+03 -0.10942349101E+03 -0.62432808359E+02  0.16107177147E+03  0.00000000000E+00 0. -1.
        -12    1    4    4    0    0 -0.86885478418E+02 -0.29385077994E+02  0.23149201992E+01  0.91749267159E+02  0.00000000000E+00 0.  1.
         -5    1    3    3    0  503 -0.16065405908E+03  0.22313909987E+00 -0.95523441732E+02  0.18696682704E+03  0.47000000000E+01 0.  1.
</event>
<event>
12    1  0.9749377E-001  0.4432320E+03  0.7818608E-02  0.1029760E+00
         21   -1    0    0  501  502  0.00000000000E+00  0.00000000000E+00  0.98166404961E+03  0.98166404961E+03  0.00000000000E+00 0.  1.
         21   -1    0    0  502  503 -0.00000000000E+00 -0.00000000000E+00 -0.27962245313E+03  0.27962245313E+03  0.00000000000E+00 0. -1.
         -6    2    1    2    0  503 -0.26495023862E+03 -0.33307937609E+03  0.66016591930E+03  0.80060874185E+03  0.15496714747E+03 0.  0.
        -24    2    3    3    0    0 -0.23124975095E+03 -0.21811374274E+03  0.42697409923E+03  0.53840017092E+03  0.80732958239E+02 0.  0.
          6    2    1    2  501    0  0.26495023862E+03  0.33307937609E+03  0.41875677183E+02  0.46067776089E+03  0.17125982399E+03 0.  0.
         24    2    5    5    0    0  0.77268895982E+02  0.78967105563E+02 -0.29826147466E+02  0.13670156722E+03  0.74775887554E+02 0.  0.
         12    1    6    6    0    0 -0.77795839887E+01  0.31411016299E+02 -0.21614479113E+02  0.38914773279E+02  0.00000000000E+00 0. -1.
        -11    1    6    6    0    0  0.85048479971E+02  0.47556089263E+02 -0.82116683523E+01  0.97786793937E+02  0.00000000000E+00 0.  1.
          5    1    5    5  501    0  0.18768134264E+03  0.25411227053E+03  0.71701824648E+02  0.32397619367E+03  0.47000000000E+01 0. -1.
         13    1    4    4    0    0 -0.72890550269E+02 -0.97650488256E+02  0.11004712469E+03  0.16419202121E+03  0.00000000000E+00 0. -1.
        -14    1    4    4    0    0 -0.15835920068E+03 -0.12046325449E+03  0.31692697454E+03  0.37420814971E+03  0.00000000000E+00 0.  1.
         -5    1    3    3    0  503 -0.33700487675E+02 -0.11496563335E+03  0.23319182008E+03  0.26220857094E+03  0.47000000000E+01 0.  1.
</event>
<event>
12    1  0.9749377E-001  0.5488256E+03  0.7818608E-02  0.1001766E+00
         21   -1    0    0  503  502  0.00000000000E+00  0.00000000000E+00  0.37255440580E+03  0.37255440580E+03  0.00000000000E+00 0.  1.
         21   -1    0    0  501  503 -0.00000000000E+00 -0.00000000000E+00 -0.10380406062E+04  0.10380406062E+04  0.00000000000E+00 0. -1.
          6    2    1    2  501    0 -0.53360174696E+03  0.98059625647E+02 -0.61689180520E+03  0.83914988723E+03  0.17108629216E+03 0.  0.
         24    2    3    3    0    0 -0.23894066216E+03  0.35617988199E+02 -0.17474580357E+03  0.30413653249E+03  0.60013776869E+02 0.  0.
         -6    2    1    2    0  502  0.53360174696E+03 -0.98059625647E+02 -0.48594395155E+02  0.57144512474E+03  0.17274721651E+03 0.  0.
        -24    2    5    5    0    0  0.38889991481E+03 -0.39763787693E+02 -0.92268349831E+02  0.40937560488E+03  0.79060957129E+02 0.  0.
         14    1    4    4    0    0 -0.10110382456E+03  0.45155277182E+02 -0.75483363501E+02  0.13401015097E+03  0.00000000000E+00 0. -1.
        -13    1    4    4    0    0 -0.13783683761E+03 -0.95372889826E+01 -0.99262440068E+02  0.17012638152E+03  0.00000000000E+00 0.  1.
          5    1    3    3  501    0 -0.29466108479E+03  0.62441637448E+02 -0.44214600163E+03  0.53501335473E+03  0.47000000000E+01 0. -1.
         11    1    6    6    0    0  0.32358017508E+03 -0.40584790207E+02 -0.46042671901E+02  0.32934963570E+03  0.00000000000E+00 0. -1.
        -12    1    6    6    0    0  0.65319739733E+02  0.82100251421E+00 -0.46225677930E+02  0.80025969185E+02  0.00000000000E+00 0.  1.
         -5    1    5    5    0  502  0.14470183215E+03 -0.58295837954E+02  0.43673954676E+02  0.16206951986E+03  0.47000000000E+01 0.  1.
</event>
<event>
12    1  0.9749377E-001  0.1375740E+04  0.7818608E-02  0.8971569E-01
         21   -1    0    0  503  502  0.00000000000E+00  0.00000000000E+00  0.20067674041E+04  0.20067674041E+04  0.00000000000E+00 0. -1.
         21   -1    0    0  501  503 -0.00000000000E+00 -0.00000000000E+00 -0.12829948155E+04  0.12829948155E+04  0.00000000000E+00 0.  1.
          6    2    1    2  501    0  0.13188936377E+04 -0.37041898100E+03 -0.47620267977E+03  0.14604672188E+04  0.17176977539E+03 0.  0.
         24    2    3    3    0    0  0.65522494858E+03 -0.23268803934E+03 -0.28753967596E+03  0.75687517769E+03  0.81960432344E+02 0.  0.
         -6    2    1    2    0  502 -0.13188936377E+04  0.37041898100E+03  0.11999752683E+04  0.18292950009E+04  0.17230469077E+03 0.  0.
        -24    2    5    5    0    0 -0.10350153851E+04  0.32060553824E+03  0.10203037066E+04  0.14896301639E+04  0.62718520933E+02 0.  0.
         12    1    4    4    0    0  0.62621713951E+03 -0.23916072444E+03 -0.27754593821E+03  0.72551878388E+03  0.00000000000E+00 0. -1.
        -11    1    4    4    0    0  0.29007809064E+02  0.64726851074E+01 -0.99937377471E+01  0.31356393819E+02  0.00000000000E+00 0.  1.
          5    1    3    3  501    0  0.66366868914E+03 -0.13773094167E+03 -0.18866300381E+03  0.70359204106E+03  0.47000000000E+01 0. -1.
         13    1    6    6    0    0 -0.52761819361E+03  0.19624075486E+03  0.52906302314E+03  0.77252771766E+03  0.00000000000E+00 0. -1.
        -14    1    6    6    0    0 -0.50739719152E+03  0.12436478338E+03  0.49124068350E+03  0.71710244626E+03  0.00000000000E+00 0.  1.
         -5    1    5    5    0  502 -0.28387825259E+03  0.49813442768E+02  0.17967156169E+03  0.33966483694E+03  0.47000000000E+01 0.  1.
</event>
<event>
12    1  0.1269260E+000  0.5948045E+03  0.7818608E-02  0.9916244E-01
         21   -1    0    0  501  502  0.00000000000E+00  0.00000000000E+00  0.82299642873E+03  0.82299642873E+03  0.00000000000E+00 0.  1.
         21   -1    0    0  502  503 -0.00000000000E+00 -0.00000000000E+00 -0.70393272926E+03  0.70393272926E+03  0.00000000000E+00 0. -1.
         -6    2    1    2    0  503  0.37418775319E+03 -0.44686705719E+03  0.51906854989E+03  0.79934448575E+03  0.17266385253E+03 0.  0.
        -24    2    3    3    0    0  0.17820379700E+03 -0.13371849146E+03  0.23345640884E+03  0.33236684129E+03  0.79552461561E+02 0.  0.
          6    2    1    2  501    0 -0.37418775319E+03  0.44686705719E+03 -0.40000485042E+03  0.72758467223E+03  0.17224672267E+03 0.  0.
         24    2    5    5    0    0 -0.29985929195E+03  0.26999090571E+03 -0.31099936929E+03  0.51603335746E+03  0.82213953654E+02 0.  0.
         14    1    6    6    0    0 -0.21763529783E+03  0.19283061237E+03 -0.17501452926E+03  0.33938010163E+03  0.00000000000E+00 0. -1.
        -13    1    6    6    0    0 -0.82223994119E+02  0.77160293339E+02 -0.13598484003E+03  0.17665325583E+03  0.00000000000E+00 0.  1.
          5    1    5    5  501    0 -0.74328461242E+02  0.17687615148E+03 -0.89005481130E+02  0.21155131478E+03  0.47000000000E+01 0. -1.
         13    1    4    4    0    0 -0.11727085119E+01 -0.49626706101E+00 -0.52509159797E+01  0.54031143681E+01  0.00000000000E+00 0. -1.
        -14    1    4    4    0    0  0.17937650551E+03 -0.13322222440E+03  0.23870732482E+03  0.32696372692E+03  0.00000000000E+00 0.  1.
         -5    1    3    3    0  503  0.19598395620E+03 -0.31314856573E+03  0.28561214105E+03  0.46697764446E+03  0.47000000000E+01 0.  1.
</event>
<event>
12    1  0.9749377E-001  0.4287920E+03  0.7818608E-02  0.1034242E+00
         21   -1    0    0  503  502  0.00000000000E+00  0.00000000000E+00  0.26274490301E+03  0.26274490301E+03  0.00000000000E+00 0.  1.
         21   -1    0    0  501  503 -0.00000000000E+00 -0.00000000000E+00 -0.74125892367E+03  0.74125892367E+03  0.00000000000E+00 0. -1.
          6    2    1    2  501    0  0.23227717701E+03 -0.33100771849E+03 -0.29229582906E+03  0.52726083278E+03  0.17043572817E+03 0.  0.
         24    2    3    3    0    0  0.57577914451E+02 -0.18516452587E+03 -0.15845254467E+03  0.26320367240E+03  0.81042250574E+02 0.  0.
         -6    2    1    2    0  502 -0.23227717701E+03  0.33100771849E+03 -0.18621819160E+03  0.47674299390E+03  0.17055166574E+03 0.  0.
        -24    2    5    5    0    0 -0.99402745322E+02  0.82058178595E+02 -0.10366662056E+03  0.18268799923E+03  0.77547961874E+02 0.  0.
         12    1    4    4    0    0  0.33804967892E+02 -0.29381380899E+02 -0.68229859183E+02  0.81617124930E+02  0.00000000000E+00 0. -1.
        -11    1    4    4    0    0  0.23772946559E+02 -0.15578314497E+03 -0.90222685492E+02  0.18158654747E+03  0.00000000000E+00 0.  1.
          5    1    3    3  501    0  0.17469926256E+03 -0.14584319262E+03 -0.13384328439E+03  0.26405716038E+03  0.47000000000E+01 0. -1.
         13    1    6    6    0    0 -0.94212513373E+02  0.93536089702E+02 -0.77695745771E+02  0.15382336189E+03  0.00000000000E+00 0. -1.
        -14    1    6    6    0    0 -0.51902319483E+01 -0.11477911107E+02 -0.25970874789E+02  0.28864637333E+02  0.00000000000E+00 0.  1.
         -5    1    5    5    0  502 -0.13287443169E+03  0.24894953990E+03 -0.82551571042E+02  0.29405499467E+03  0.47000000000E+01 0.  1.
</event>
<event>
12    1  0.9749377E-001  0.3292085E+03  0.7818608E-02  0.1071488E+00
         21   -1    0    0  503  502  0.00000000000E+00  0.00000000000E+00  0.18643008802E+03  0.18643008802E+03  0.00000000000E+00 0.  1.
         21   -1    0    0  501  503 -0.00000000000E+00 -0.00000000000E+00 -0.83032877051E+03  0.83032877051E+03  0.00000000000E+00 0. -1.
          6    2    1    2  501    0  0.30405236728E+03 -0.58803004316E+02 -0.10646228441E+03  0.37000985185E+03  0.17224237894E+03 0.  0.
         24    2    3    3    0    0  0.30937745923E+03 -0.61952625022E+02 -0.12729449438E+03  0.34777592087E+03  0.72053194337E+02 0.  0.
         -6    2    1    2    0  502 -0.30405236728E+03  0.58803004316E+02 -0.53743639809E+03  0.64674900668E+03  0.18314136694E+03 0.  0.
        -24    2    5    5    0    0 -0.23548636698E+03  0.15518388950E+01 -0.48233315881E+03  0.54168974094E+03  0.72981244917E+02 0.  0.
         12    1    4    4    0    0  0.24645422135E+03 -0.57487491349E+02 -0.13025689383E+03  0.28462493438E+03  0.00000000000E+00 0. -1.
        -11    1    4    4    0    0  0.62923237880E+02 -0.44651336732E+01  0.29623994547E+01  0.63150986489E+02  0.00000000000E+00 0.  1.
          5    1    3    3  501    0 -0.53250919436E+01  0.31496207060E+01  0.20832209969E+02  0.22233930984E+02  0.47000000000E+01 0. -1.
         11    1    6    6    0    0 -0.38267371776E+02  0.26078756096E+02 -0.69562888167E+02  0.83567270341E+02  0.00000000000E+00 0. -1.
        -12    1    6    6    0    0 -0.19721899521E+03 -0.24526917201E+02 -0.41277027065E+03  0.45812247060E+03  0.00000000000E+00 0.  1.
         -5    1    5    5    0  502 -0.68566000300E+02  0.57251165421E+02 -0.55103239274E+02  0.10505926574E+03  0.47000000000E+01 0.  1.
</event>
<event>
12    1  0.9749377E-001  0.6211613E+03  0.7818608E-02  0.9862450E-01
         21   -1    0    0  501  502  0.00000000000E+00  0.00000000000E+00  0.84143207070E+03  0.84143207070E+03  0.00000000000E+00 0.  1.
         21   -1    0    0  502  503 -0.00000000000E+00 -0.00000000000E+00 -0.50931785894E+03  0.50931785894E+03  0.00000000000E+00 0. -1.
         -6    2    1    2    0  503  0.56436140393E+03  0.22836689117E+03 -0.83457353509E+01  0.63251857252E+03  0.17133260653E+03 0.  0.
        -24    2    3    3    0    0  0.11309466225E+03  0.30688369556E+02 -0.16171371143E+02  0.13976934561E+03  0.74443119701E+02 0.  0.
          6    2    1    2  501    0 -0.56436140393E+03 -0.22836689117E+03  0.34045994712E+03  0.71823135712E+03  0.17113759240E+03 0.  0.
         24    2    5    5    0    0 -0.48810442471E+03 -0.14100986928E+03  0.29951306790E+03  0.59516587426E+03  0.79903863456E+02 0.  0.
         12    1    6    6    0    0 -0.45782775225E+03 -0.12274147184E+03  0.25473601806E+03  0.53810980156E+03  0.00000000000E+00 0. -1.
        -11    1    6    6    0    0 -0.30276672461E+02 -0.18268397445E+02  0.44777049841E+02  0.57056072709E+02  0.00000000000E+00 0.  1.
          5    1    5    5  501    0 -0.76256979225E+02 -0.87357021881E+02  0.40946879220E+02  0.12306548285E+03  0.47000000000E+01 0. -1.
         11    1    4    4    0    0  0.97105585701E+02  0.93409796249E+01  0.15048745852E+02  0.98707717157E+02  0.00000000000E+00 0. -1.
        -12    1    4    4    0    0  0.15989076554E+02  0.21347389931E+02 -0.31220116995E+02  0.41061628452E+02  0.00000000000E+00 0.  1.
         -5    1    3    3    0  503  0.45126674168E+03  0.19767852161E+03  0.78256357925E+01  0.49274922691E+03  0.47000000000E+01 0.  1.
</event>
<event>
12    1  0.9749377E-001  0.2595404E+03  0.7818608E-02  0.1107420E+00
         21   -1    0    0  503  502  0.00000000000E+00  0.00000000000E+00  0.81239327318E+03  0.81239327318E+03  0.00000000000E+00 0.  1.
         21   -1    0    0  501  503 -0.00000000000E+00 -0.00000000000E+00 -0.10862586340E+03  0.10862586340E+03  0.00000000000E+00 0.  1.
          6    2    1    2  501    0 -0.18569053315E+03 -0.73193236057E+02  0.13799039498E+03  0.29749107060E+03  0.17210858221E+03 0.  0.
         24    2    3    3    0    0 -0.19170261017E+02 -0.14629362103E+02  0.62638093813E+02  0.10550464489E+03  0.81401364569E+02 0.  0.
         -6    2    1    2    0  502  0.18569053315E+03  0.73193236057E+02  0.56577701480E+03  0.62352806598E+03  0.16983932019E+03 0.  0.
        -24    2    5    5    0    0  0.20882349069E+03  0.73802507988E+02  0.53652017398E+03  0.58593075662E+03  0.80043076001E+02 0.  0.
         14    1    4    4    0    0 -0.14179526057E+02  0.33239641761E+02  0.20568140533E+02  0.41581019090E+02  0.00000000000E+00 0. -1.
        -13    1    4    4    0    0 -0.49907349604E+01 -0.47869003864E+02  0.42069953280E+02  0.63923625799E+02  0.00000000000E+00 0.  1.
          5    1    3    3  501    0 -0.16652027214E+03 -0.58563873953E+02  0.75352301167E+02  0.19198642571E+03  0.47000000000E+01 0. -1.
         11    1    6    6    0    0  0.14339256785E+03  0.87209246620E+02  0.36005168506E+03  0.39724563827E+03  0.00000000000E+00 0. -1.
        -12    1    6    6    0    0  0.65430922835E+02 -0.13406738632E+02  0.17646848892E+03  0.18868511835E+03  0.00000000000E+00 0.  1.
         -5    1    5    5    0  502 -0.23132957533E+02 -0.60927193143E+00  0.29256840815E+02  0.37597309358E+02  0.47000000000E+01 0.  1.
</event>
<event>
12    1  0.9749377E-001  0.2785951E+03  0.7818608E-02  0.1096459E+00
         21   -1    0    0  501  502  0.00000000000E+00  0.00000000000E+00  0.30100938076E+03  0.30100938076E+03  0.00000000000E+00 0.  1.
         21   -1    0    0  502  503 -0.00000000000E+00 -0.00000000000E+00 -0.39912146431E+03  0.39912146431E+03  0.00000000000E+00 0. -1.
         -6    2    1    2    0  503  0.16384363450E+02 -0.24808626668E+03  0.12401369085E+03  0.32664805354E+03  0.17176819346E+03 0.  0.
        -24    2    3    3    0    0  0.40941999237E+02 -0.10510056415E+03  0.19932796412E+01  0.13701931269E+03  0.77768521921E+02 0.  0.
          6    2    1    2  501    0 -0.16384363450E+02  0.24808626668E+03 -0.22212577440E+03  0.37348279152E+03  0.16832793242E+03 0.  0.
         24    2    5    5    0    0  0.10940150160E+02  0.11070873323E+03 -0.37658420509E+02  0.14181598253E+03  0.79482738787E+02 0.  0.
         12    1    6    6    0    0 -0.64775279537E+01  0.11671684435E+03 -0.25221179113E+02  0.11958632028E+03  0.00000000000E+00 0. -1.
        -11    1    6    6    0    0  0.17417678114E+02 -0.60081111122E+01 -0.12437241396E+02  0.22229662246E+02  0.00000000000E+00 0.  1.
          5    1    5    5  501    0 -0.27324513610E+02  0.13737753345E+03 -0.18446735389E+03  0.23166680899E+03  0.47000000000E+01 0. -1.
         13    1    4    4    0    0  0.47494001382E+02 -0.20528591621E+02  0.60727047505E+01  0.52095882603E+02  0.00000000000E+00 0. -1.
        -14    1    4    4    0    0 -0.65520021456E+01 -0.84571972525E+02 -0.40794251093E+01  0.84923430089E+02  0.00000000000E+00 0.  1.
         -5    1    3    3    0  503 -0.24557635787E+02 -0.14298570254E+03  0.12202041121E+03  0.18962874085E+03  0.47000000000E+01 0.  1.
</event>
<event>
12    1  0.9749377E-001  0.3821338E+03  0.7818608E-02  0.1050148E+00
         21   -1    0    0  501  502  0.00000000000E+00  0.00000000000E+00  0.14121457402E+04  0.14121457402E+04  0.00000000000E+00 0.  1.
         21   -1    0    0  502  503 -0.00000000000E+00 -0.00000000000E+00 -0.11156502936E+03  0.11156502936E+03  0.00000000000E+00 0. -1.
         -6    2    1    2    0  503  0.13723686722E+03  0.32929260139E+03  0.59265360241E+03  0.71296522825E+03  0.17266600470E+03 0.  0.
        -24    2    3    3    0    0  0.85139115808E+02  0.29071153063E+03  0.39083085348E+03  0.50093412980E+03  0.80152250630E+02 0.  0.
          6    2    1    2  501    0 -0.13723686722E+03 -0.32929260139E+03  0.70792710843E+03  0.81074554131E+03  0.16994106875E+03 0.  0.
         24    2    5    5    0    0 -0.16467106529E+03 -0.24666536027E+03  0.57843432400E+03  0.65463542818E+03  0.77465585603E+02 0.  0.
         14    1    6    6    0    0 -0.70882394874E+02 -0.57276287531E+02  0.12845679740E+03  0.15749932004E+03  0.00000000000E+00 0. -1.
        -13    1    6    6    0    0 -0.93788670419E+02 -0.18938907273E+03  0.44997752660E+03  0.49713610814E+03  0.00000000000E+00 0.  1.
          5    1    5    5  501    0  0.27434198077E+02 -0.82627241126E+02  0.12949278443E+03  0.15611011313E+03  0.47000000000E+01 0. -1.
         11    1    4    4    0    0  0.75382715904E+01  0.13898599899E+03  0.13779298226E+03  0.19585923367E+03  0.00000000000E+00 0. -1.
        -12    1    4    4    0    0  0.77600844217E+02  0.15172553164E+03  0.25303787122E+03  0.30507489612E+03  0.00000000000E+00 0.  1.
         -5    1    3    3    0  503  0.52097751408E+02  0.38581070762E+02  0.20182274893E+03  0.21203109845E+03  0.47000000000E+01 0.  1.
</event>
<event>
12    1  0.9749377E-001  0.2475239E+03  0.7818608E-02  0.1114880E+00
         21   -1    0    0  503  502  0.00000000000E+00  0.00000000000E+00  0.12519098343E+03  0.12519098343E+03  0.00000000000E+00 0.  1.
         21   -1    0    0  501  503 -0.00000000000E+00 -0.00000000000E+00 -0.91476767980E+03  0.91476767980E+03  0.00000000000E+00 0. -1.
          6    2    1    2  501    0 -0.93735510963E+02  0.17928218135E+03 -0.72450977334E+02  0.27522072420E+03  0.17195597212E+03 0.  0.
         24    2    3    3    0    0 -0.46821462499E+02  0.18409938935E+02 -0.46276373327E+02  0.10555043742E+03  0.80425225575E+02 0.  0.
         -6    2    1    2    0  502  0.93735510963E+02 -0.17928218135E+03 -0.71712571903E+03  0.76473793903E+03  0.17212313013E+03 0.  0.
        -24    2    5    5    0    0  0.70581837004E+02 -0.24476336930E+02 -0.28730553596E+03  0.30727928312E+03  0.79342296790E+02 0.  0.
         12    1    4    4    0    0 -0.10965088669E+02 -0.31380282448E+02 -0.20076760186E+02  0.38833382490E+02  0.00000000000E+00 0. -1.
        -11    1    4    4    0    0 -0.35856373830E+02  0.49790221383E+02 -0.26199613141E+02  0.66717054929E+02  0.00000000000E+00 0.  1.
          5    1    3    3  501    0 -0.46914048464E+02  0.16087224241E+03 -0.26174604007E+02  0.16967028678E+03  0.47000000000E+01 0. -1.
         13    1    6    6    0    0  0.99404781811E+01 -0.94969643806E+01 -0.19697993951E+03  0.19745911478E+03  0.00000000000E+00 0. -1.
        -14    1    6    6    0    0  0.60641358823E+02 -0.14979372549E+02 -0.90325596445E+02  0.10982016834E+03  0.00000000000E+00 0.  1.
         -5    1    5    5    0  502  0.23153673959E+02 -0.15480584442E+03 -0.42982018307E+03  0.45745865590E+03  0.47000000000E+01 0.  1.
</event>
<event>
12    1  0.9749377E-001  0.1592969E+03  0.7818608E-02  0.1189493E+00
         21   -1    0    0  501  502  0.00000000000E+00  0.00000000000E+00  0.11841184889E+04  0.11841184889E+04  0.00000000000E+00 0.  1.
         21   -1    0    0  502  503 -0.00000000000E+00 -0.00000000000E+00 -0.43224400778E+02  0.43224400778E+02  0.00000000000E+00 0.  1.
         -6    2    1    2    0  503 -0.34483313848E+02  0.74717698503E+02  0.89507092316E+03  0.91545665844E+03  0.17360041069E+03 0.  0.
        -24    2    3    3    0    0  0.42149494641E+02  0.69762203918E+02  0.60323611082E+03  0.61365077388E+03  0.77653859450E+02 0.  0.
          6    2    1    2  501    0  0.34483313848E+02 -0.74717698503E+02  0.24582316493E+03  0.31188623121E+03  0.17341326188E+03 0.  0.
         24    2    5    5    0    0  0.15374359448E+02 -0.25050211373E+01  0.21722014949E+03  0.23176104539E+03  0.79283937570E+02 0.  0.
         12    1    6    6    0    0  0.31240852978E+02 -0.14513255941E+02  0.37413095981E+02  0.50856319604E+02  0.00000000000E+00 0. -1.
        -11    1    6    6    0    0 -0.15866493530E+02  0.12008234804E+02  0.17980705351E+03  0.18090472578E+03  0.00000000000E+00 0.  1.
          5    1    5    5  501    0  0.19108954400E+02 -0.72212677366E+02  0.28603015447E+02  0.80125185823E+02  0.47000000000E+01 0. -1.
         13    1    4    4    0    0 -0.18536159987E+02 -0.18151553294E+01  0.11043283869E+03  0.11199239205E+03  0.00000000000E+00 0. -1.
        -14    1    4    4    0    0  0.60685654628E+02  0.71577359247E+02  0.49280327213E+03  0.50165838182E+03  0.00000000000E+00 0.  1.
         -5    1    3    3    0  503 -0.76632808489E+02  0.49554945854E+01  0.29183481234E+03  0.30180588456E+03  0.47000000000E+01 0.  1.
</event>
<event>
12    1  0.9749377E-001  0.5913528E+03  0.7818608E-02  0.9923510E-01
         21   -1    0    0  501  502  0.00000000000E+00  0.00000000000E+00  0.19205555125E+04  0.19205555125E+04  0.00000000000E+00 0.  1.
         21   -1    0    0  502  503 -0.00000000000E+00 -0.00000000000E+00 -0.71490308826E+03  0.71490308826E+03  0.00000000000E+00 0. -1.
         -6    2    1    2    0  503  0.57108648641E+03  0.71523125738E+02 -0.52859073275E+03  0.80010877294E+03  0.17178635947E+03 0.  0.
        -24    2    3    3    0    0  0.27286010879E+03 -0.26935258238E+02 -0.22647644787E+03  0.36430129616E+03  0.79029778176E+02 0.  0.
          6    2    1    2  501    0 -0.57108648641E+03 -0.71523125738E+02  0.17342431569E+04  0.18353498278E+04  0.17220432764E+03 0.  0.
         24    2    5    5    0    0 -0.30866074596E+03 -0.40506466521E+02  0.74433895721E+03  0.81077102796E+03  0.79980914150E+02 0.  0.
         14    1    6    6    0    0 -0.19276705590E+03 -0.61937329874E+02  0.50193270848E+03  0.54123175675E+03  0.00000000000E+00 0. -1.
        -13    1    6    6    0    0 -0.11589369006E+03  0.21430863353E+02  0.24240624873E+03  0.26953927121E+03  0.00000000000E+00 0.  1.
          5    1    5    5  501    0 -0.26242574045E+03 -0.31016659218E+02  0.98990419974E+03  0.10245787998E+04  0.47000000000E+01 0. -1.
         13    1    4    4    0    0  0.28536543606E+02 -0.27544413358E+02 -0.44798090212E+02  0.59832248118E+02  0.00000000000E+00 0. -1.
        -14    1    4    4    0    0  0.24432356518E+03  0.60915512084E+00 -0.18167835766E+03  0.30446904804E+03  0.00000000000E+00 0.  1.
         -5    1    3    3    0  503  0.29822637763E+03  0.98458383976E+02 -0.30211428488E+03  0.43580747678E+03  0.47000000000E+01 0.  1.
</event>
<event>
12    1  0.9749377E-001  0.1872538E+03  0.7818608E-02  0.1160962E+00
         21   -1    0    0  503  502  0.00000000000E+00  0.00000000000E+00  0.75769391944E+02  0.75769391944E+02  0.00000000000E+00 0.  1.
         21   -1    0    0  501  503 -0.00000000000E+00 -0.00000000000E+00 -0.58612405712E+03  0.58612405712E+03  0.00000000000E+00 0. -1.
          6    2    1    2  501    0 -0.61222587221E+02  0.10241600928E+03 -0.28939900263E+03  0.35728281730E+03  0.17222655042E+03 0.  0.
         24    2    3    3    0    0 -0.58276002643E+01  0.11599130393E+03 -0.14652946654E+03  0.20337801702E+03  0.80023682323E+02 0.  0.
         -6    2    1    2    0  502  0.61222587221E+02 -0.10241600928E+03 -0.22095566255E+03  0.30461063176E+03  0.17242096169E+03 0.  0.
        -24    2    5    5    0    0 -0.88451724537E+01 -0.97951585932E+02 -0.89134986883E+02  0.15518438724E+03  0.80401479418E+02 0.  0.
         12    1    4    4    0    0 -0.32422799226E+02  0.10727825739E+03 -0.10702695778E+03  0.15496655159E+03  0.00000000000E+00 0. -1.
        -11    1    4    4    0    0  0.26595198962E+02  0.87130465391E+01 -0.39502508756E+02  0.48411465438E+02  0.00000000000E+00 0.  1.
          5    1    3    3  501    0 -0.55394986957E+02 -0.13575294648E+02 -0.14286953609E+03  0.15390480027E+03  0.47000000000E+01 0. -1.
         11    1    6    6    0    0 -0.88346057247E+01  0.69718635975E-01  0.11631757269E+02  0.14606604539E+02  0.00000000000E+00 0. -1.
        -12    1    6    6    0    0 -0.10566728984E-01 -0.98021304568E+02 -0.10076674415E+03  0.14057778270E+03  0.00000000000E+00 0.  1.
         -5    1    5    5    0  502  0.70067759675E+02 -0.44644233508E+01 -0.13182067566E+03  0.14942624453E+03  0.47000000000E+01 0.  1.
</event>
<event>
12    1  0.9749377E-001  0.6546684E+03  0.7818608E-02  0.9798058E-01
         21   -1    0    0  503  502  0.00000000000E+00  0.00000000000E+00  0.62609552934E+03  0.62609552934E+03  0.00000000000E+00 0. -1.
         21   -1    0    0  501  503 -0.00000000000E+00 -0.00000000000E+00 -0.86833327082E+03  0.86833327082E+03  0.00000000000E+00 0.  1.
          6    2    1    2  501    0 -0.38982837863E+03  0.51629898503E+03  0.18622310480E+03  0.69977648851E+03  0.19099026777E+03 0.  0.
         24    2    3    3    0    0 -0.30526941899E+03  0.39903228827E+03  0.21448323119E+03  0.55239120917E+03  0.81956123912E+02 0.  0.
         -6    2    1    2    0  502  0.38982837863E+03 -0.51629898503E+03 -0.42846084628E+03  0.79465231165E+03  0.17135574951E+03 0.  0.
        -24    2    5    5    0    0  0.19155422604E+03 -0.33918517608E+03 -0.30798233686E+03  0.50272920168E+03  0.78383194710E+02 0.  0.
         14    1    4    4    0    0 -0.13663541860E+03  0.12084679769E+03  0.96400597190E+02  0.20631592587E+03  0.00000000000E+00 0. -1.
        -13    1    4    4    0    0 -0.16863400039E+03  0.27818549058E+03  0.11808263400E+03  0.34607528330E+03  0.00000000000E+00 0.  1.
          5    1    3    3  501    0 -0.84558959637E+02  0.11726669676E+03 -0.28260126390E+02  0.14738527935E+03  0.47000000000E+01 0. -1.
         11    1    6    6    0    0  0.16694836188E+03 -0.26796372906E+03 -0.28111173888E+03  0.42272937604E+03  0.00000000000E+00 0. -1.
        -12    1    6    6    0    0  0.24605864163E+02 -0.71221447023E+02 -0.26870597980E+02  0.79999825644E+02  0.00000000000E+00 0.  1.
         -5    1    5    5    0  502  0.19827415259E+03 -0.17711380895E+03 -0.12047850942E+03  0.29192310997E+03  0.47000000000E+01 0.  1.
</event>
<event>
12    1  0.9749377E-001  0.5101773E+03  0.7818608E-02  0.1011156E+00
         21   -1    0    0  503  502  0.00000000000E+00  0.00000000000E+00  0.12854144965E+04  0.12854144965E+04  0.00000000000E+00 0.  1.
         21   -1    0    0  501  503 -0.00000000000E+00 -0.00000000000E+00 -0.23003476550E+03  0.23003476550E+03  0.00000000000E+00 0. -1.
          6    2    1    2  501    0  0.78259669339E+02 -0.49310951599E+03  0.71002618926E+03  0.88474870672E+03  0.17135201779E+03 0.  0.
         24    2    3    3    0    0  0.28629064366E+02 -0.25527625743E+03  0.48191776120E+03  0.55145694148E+03  0.76644887689E+02 0.  0.
         -6    2    1    2    0  502 -0.78259669339E+02  0.49310951599E+03  0.34535354175E+03  0.63070055528E+03  0.17097529363E+03 0.  0.
        -24    2    5    5    0    0 -0.25480495569E+02  0.12959863385E+03  0.14735481665E+03  0.21338606026E+03  0.79844268248E+02 0.  0.
         12    1    4    4    0    0  0.25561817891E+02 -0.22129099727E+03  0.34745952949E+03  0.41273627977E+03  0.00000000000E+00 0. -1.
        -11    1    4    4    0    0  0.30672464741E+01 -0.33985260161E+02  0.13445823171E+03  0.13872066171E+03  0.00000000000E+00 0.  1.
          5    1    3    3  501    0  0.49630604973E+02 -0.23783325855E+03  0.22810842806E+03  0.33329176524E+03  0.47000000000E+01 0. -1.
         13    1    6    6    0    0  0.59418789947E+01  0.12015729088E+03  0.10406841605E+03  0.15907015967E+03  0.00000000000E+00 0. -1.
        -14    1    6    6    0    0 -0.31422374564E+02  0.94413429749E+01  0.43286400600E+02  0.54315900593E+02  0.00000000000E+00 0.  1.
         -5    1    5    5    0  502 -0.52779173770E+02  0.36351088214E+03  0.19799872510E+03  0.41731449502E+03  0.47000000000E+01 0.  1.
</event>
<event>
12    1  0.9749377E-001  0.3223929E+03  0.7818608E-02  0.1074553E+00
         21   -1    0    0  501  502  0.00000000000E+00  0.00000000000E+00  0.37551620008E+03  0.37551620008E+03  0.00000000000E+00 0. -1.
         21   -1    0    0  502  503 -0.00000000000E+00 -0.00000000000E+00 -0.31490918800E+03  0.31490918800E+03  0.00000000000E+00 0.  1.
         -6    2    1    2    0  503  0.12214305111E+03  0.27099889189E+03  0.31040365800E+01  0.34226385046E+03  0.16963367573E+03 0.  0.
        -24    2    3    3    0    0  0.74628230426E+02  0.24640308698E+03  0.45998273412E+02  0.27352799840E+03  0.80111614032E+02 0.  0.
          6    2    1    2  501    0 -0.12214305111E+03 -0.27099889189E+03  0.57502975506E+02  0.34816153762E+03  0.17190270429E+03 0.  0.
         24    2    5    5    0    0 -0.55015140523E+02 -0.25849908790E+03  0.48693062679E+02  0.27915352327E+03  0.75546218116E+02 0.  0.
         14    1    6    6    0    0 -0.14302744816E+02 -0.79505517580E+02  0.51073225530E+02  0.95572852845E+02  0.00000000000E+00 0. -1.
        -13    1    6    6    0    0 -0.40712395707E+02 -0.17899357032E+03 -0.23801628507E+01  0.18358067043E+03  0.00000000000E+00 0.  1.
          5    1    5    5  501    0 -0.67127910590E+02 -0.12499803995E+02  0.88099128267E+01  0.69008014347E+02  0.47000000000E+01 0. -1.
         13    1    4    4    0    0  0.49675852019E+02  0.19379376339E+03  0.12013832398E+01  0.20006288092E+03  0.00000000000E+00 0. -1.
        -14    1    4    4    0    0  0.24952378408E+02  0.52609323594E+02  0.44796890172E+02  0.73465117480E+02  0.00000000000E+00 0.  1.
         -5    1    3    3    0  503  0.47514820687E+02  0.24595804913E+02 -0.42894236832E+02  0.68735852054E+02  0.47000000000E+01 0.  1.
</event>
<event>
12    1  0.9749377E-001  0.2371840E+03  0.7818608E-02  0.1121683E+00
         21   -1    0    0  503  502  0.00000000000E+00  0.00000000000E+00  0.50415532576E+02  0.50415532576E+02  0.00000000000E+00 0. -1.
         21   -1    0    0  501  503 -0.00000000000E+00 -0.00000000000E+00 -0.13435256824E+04  0.13435256824E+04  0.00000000000E+00 0.  1.
          6    2    1    2  501    0 -0.59629201578E+02  0.18131507372E+03 -0.54053507383E+03  0.59856277066E+03  0.17224525171E+03 0.  0.
         24    2    3    3    0    0 -0.33223890154E+02  0.17776073634E+02 -0.14903390792E+03  0.17343044075E+03  0.80294435669E+02 0.  0.
         -6    2    1    2    0  502  0.59629201578E+02 -0.18131507372E+03 -0.75257507600E+03  0.79537844433E+03  0.17270444999E+03 0.  0.
        -24    2    5    5    0    0  0.10361152867E+02 -0.13604774652E+03 -0.30956190175E+03  0.34731680337E+03  0.78638718635E+02 0.  0.
         12    1    4    4    0    0 -0.58191464067E+01  0.45132194364E+02 -0.52831819978E+02  0.69727889938E+02  0.00000000000E+00 0. -1.
        -11    1    4    4    0    0 -0.27404743748E+02 -0.27356120731E+02 -0.96202087940E+02  0.10370255081E+03  0.00000000000E+00 0.  1.
          5    1    3    3  501    0 -0.26405311424E+02  0.16353900008E+03 -0.39150116592E+03  0.42513232991E+03  0.47000000000E+01 0. -1.
         11    1    6    6    0    0  0.63376586984E+01 -0.14624542175E+03 -0.28408061628E+03  0.31957735503E+03  0.00000000000E+00 0. -1.
        -12    1    6    6    0    0  0.40234941689E+01  0.10197675228E+02 -0.25481285468E+02  0.27739448345E+02  0.00000000000E+00 0.  1.
         -5    1    5    5    0  502  0.49268048711E+02 -0.45267327199E+02 -0.44301317425E+03  0.44806164096E+03  0.47000000000E+01 0.  1.
</event>
<event>
12    1  0.9749377E-001  0.4720387E+03  0.7818608E-02  0.1021346E+00
         21   -1    0    0  503  502  0.00000000000E+00  0.00000000000E+00  0.52899751863E+03  0.52899751863E+03  0.00000000000E+00 0. -1.
         21   -1    0    0  501  503 -0.00000000000E+00 -0.00000000000E+00 -0.56189653678E+03  0.56189653678E+03  0.00000000000E+00 0.  1.
          6    2    1    2  501    0 -0.41874121597E+03 -0.15944418951E+03 -0.27965888402E+03  0.55542793235E+03  0.17182677642E+03 0.  0.
         24    2    3    3    0    0 -0.23608531443E+03 -0.20339814069E+02 -0.13424804189E+03  0.28361989596E+03  0.79168964287E+02 0.  0.
         -6    2    1    2    0  502  0.41874121597E+03  0.15944418951E+03  0.24675986587E+03  0.53546612306E+03  0.15832524126E+03 0.  0.
        -24    2    5    5    0    0  0.25767016779E+03  0.12300591576E+03  0.10413743338E+03  0.31721196249E+03  0.90854022669E+02 0.  0.
         14    1    4    4    0    0 -0.14454651287E+03  0.26407281969E+02 -0.83161063624E+02  0.16883957305E+03  0.00000000000E+00 0. -1.
        -13    1    4    4    0    0 -0.91538801559E+02 -0.46747096038E+02 -0.51086978264E+02  0.11478032291E+03  0.00000000000E+00 0.  1.
          5    1    3    3  501    0 -0.18265590155E+03 -0.13910437544E+03 -0.14541084213E+03  0.27180803639E+03  0.47000000000E+01 0. -1.
         11    1    6    6    0    0  0.23801343509E+03  0.78124670728E+02  0.90486953189E+02  0.26634892182E+03  0.00000000000E+00 0. -1.
        -12    1    6    6    0    0  0.19656732699E+02  0.44881245036E+02  0.13650480189E+02  0.50863040666E+02  0.00000000000E+00 0.  1.
         -5    1    5    5    0  502  0.16107104819E+03  0.36438273746E+02  0.14262243250E+03  0.21825416058E+03  0.47000000000E+01 0.  1.
</event>
<event>
12    1  0.9749377E-001  0.5238005E+03  0.7818608E-02  0.1007747E+00
         21   -1    0    0  503  502  0.00000000000E+00  0.00000000000E+00  0.32633806104E+03  0.32633806104E+03  0.00000000000E+00 0. -1.
         21   -1    0    0  501  503 -0.00000000000E+00 -0.00000000000E+00 -0.86564774276E+03  0.86564774276E+03  0.00000000000E+00 0.  1.
          6    2    1    2  501    0 -0.10780729940E+03  0.48986349581E+03 -0.31265795468E+03  0.61557297892E+03  0.17200708537E+03 0.  0.
         24    2    3    3    0    0 -0.64337432532E+02  0.46899559533E+03 -0.29650225135E+03  0.56450248503E+03  0.81567744120E+02 0.  0.
         -6    2    1    2    0  502  0.10780729940E+03 -0.48986349581E+03 -0.22665172704E+03  0.57641282487E+03  0.17114929439E+03 0.  0.
        -24    2    5    5    0    0  0.10672564587E+03 -0.27014771924E+03 -0.18286291244E+03  0.35232413098E+03  0.79519147520E+02 0.  0.
         12    1    4    4    0    0 -0.80055796920E+02  0.29995554953E+03 -0.19816540661E+03  0.36830936818E+03  0.00000000000E+00 0. -1.
        -11    1    4    4    0    0  0.15718364388E+02  0.16904004580E+03 -0.98336844743E+02  0.19619311685E+03  0.00000000000E+00 0.  1.
          5    1    3    3  501    0 -0.43469866872E+02  0.20867900480E+02 -0.16155703324E+02  0.51070493891E+02  0.47000000000E+01 0. -1.
         13    1    6    6    0    0  0.13258150555E+01 -0.93133844859E+02 -0.38630113780E+02  0.10083628580E+03  0.00000000000E+00 0. -1.
        -14    1    6    6    0    0  0.10539983081E+03 -0.17701387438E+03 -0.14423279866E+03  0.25148784517E+03  0.00000000000E+00 0.  1.
         -5    1    5    5    0  502  0.10816535382E+01 -0.21971577657E+03 -0.43788814600E+02  0.22408869390E+03  0.47000000000E+01 0.  1.
</event>
<event>
12    1  0.9749377E-001  0.4027534E+03  0.7818608E-02  0.1042830E+00
         21   -1    0    0  501  502  0.00000000000E+00  0.00000000000E+00  0.31785432263E+03  0.31785432263E+03  0.00000000000E+00 0.  1.
         21   -1    0    0  502  503 -0.00000000000E+00 -0.00000000000E+00 -0.55193054196E+03  0.55193054196E+03  0.00000000000E+00 0. -1.
         -6    2    1    2    0  503  0.26768964032E+03  0.26705446242E+03 -0.61987321681E+02  0.41968437775E+03  0.17122125875E+03 0.  0.
        -24    2    3    3    0    0  0.18081953827E+03  0.26053341664E+03 -0.41497516515E+02  0.33006930768E+03  0.81549600801E+02 0.  0.
          6    2    1    2  501    0 -0.26768964032E+03 -0.26705446242E+03 -0.17208889765E+03  0.45010048683E+03  0.17320516771E+03 0.  0.
         24    2    5    5    0    0 -0.62691082773E+02 -0.81247461705E+02 -0.14384058813E+02  0.13160157584E+03  0.81121832591E+02 0.  0.
         12    1    6    6    0    0  0.14519653736E+02 -0.14875684654E+02 -0.21027628124E+02  0.29568014527E+02  0.00000000000E+00 0. -1.
        -11    1    6    6    0    0 -0.77210736509E+02 -0.66371777050E+02  0.66435693110E+01  0.10203356131E+03  0.00000000000E+00 0.  1.
          5    1    5    5  501    0 -0.20499855755E+03 -0.18580700071E+03 -0.15770483884E+03  0.31849891099E+03  0.47000000000E+01 0. -1.
         13    1    4    4    0    0  0.14043819630E+03  0.17518319329E+03  0.55105219021E+01  0.22459386466E+03  0.00000000000E+00 0. -1.
        -14    1    4    4    0    0  0.40381341976E+02  0.85350223351E+02 -0.47008038417E+02  0.10547544303E+03  0.00000000000E+00 0.  1.
         -5    1    3    3    0  503  0.86870102047E+02  0.65210457787E+01 -0.20489805167E+02  0.89615070069E+02  0.47000000000E+01 0.  1.
</event>
<event>
12    1  0.9749377E-001  0.4500474E+03  0.7818608E-02  0.1027708E+00
         21   -1    0    0  501  502  0.00000000000E+00  0.00000000000E+00  0.69423317160E+03  0.69423317160E+03  0.00000000000E+00 0.  1.
         21   -1    0    0  502  503 -0.00000000000E+00 -0.00000000000E+00 -0.33978873811E+03  0.33978873811E+03  0.00000000000E+00 0. -1.
         -6    2    1    2    0  503  0.10937260907E+03  0.42098605874E+03  0.31665337630E+03  0.56484818470E+03  0.17202465455E+03 0.  0.
        -24    2    3    3    0    0  0.12287165744E+03  0.40222591068E+03  0.25497277185E+03  0.49881217614E+03  0.83182601880E+02 0.  0.
          6    2    1    2  501    0 -0.10937260907E+03 -0.42098605874E+03  0.37791057192E+02  0.46917372501E+03  0.17176784031E+03 0.  0.
         24    2    5    5    0    0 -0.12677159808E+03 -0.41882963022E+03  0.49516029818E+02  0.44756493084E+03  0.79832530190E+02 0.  0.
         12    1    6    6    0    0 -0.52084384253E+02 -0.15881096353E+03 -0.19774953248E+02  0.16829959595E+03  0.00000000000E+00 0. -1.
        -11    1    6    6    0    0 -0.74687213830E+02 -0.26001866669E+03  0.69290983067E+02  0.27926533489E+03  0.00000000000E+00 0.  1.
          5    1    5    5  501    0  0.17398989008E+02 -0.21564285213E+01 -0.11724972626E+02  0.21608794172E+02  0.47000000000E+01 0. -1.
         13    1    4    4    0    0  0.84192452561E+02  0.25936566309E+03  0.11790093248E+03  0.29708508232E+03  0.00000000000E+00 0. -1.
        -14    1    4    4    0    0  0.38679204877E+02  0.14286024759E+03  0.13707183937E+03  0.20172709382E+03  0.00000000000E+00 0.  1.
         -5    1    3    3    0  503 -0.13499048363E+02  0.18760148061E+02  0.61680604450E+02  0.66036008566E+02  0.47000000000E+01 0.  1.
</event>
<event>
12    1  0.9749377E-001  0.2512376E+03  0.7818608E-02  0.1112525E+00
         21   -1    0    0  503  502  0.00000000000E+00  0.00000000000E+00  0.12510143881E+03  0.12510143881E+03  0.00000000000E+00 0.  1.
         21   -1    0    0  501  503 -0.00000000000E+00 -0.00000000000E+00 -0.65490016436E+03  0.65490016436E+03  0.00000000000E+00 0. -1.
          6    2    1    2  501    0  0.10023924974E+03  0.19300682846E+03 -0.34948784603E+03  0.44653349492E+03  0.17306318077E+03 0.  0.
         24    2    3    3    0    0  0.10209496029E+03  0.13632997610E+03 -0.15654885032E+03  0.24537869054E+03  0.81816354949E+02 0.  0.
         -6    2    1    2    0  502 -0.10023924974E+03 -0.19300682846E+03 -0.18031087952E+03  0.33346810826E+03  0.17717060403E+03 0.  0.
        -24    2    5    5    0    0  0.15491023077E+02 -0.91377608077E+02 -0.68289701702E+02  0.14296133998E+03  0.84762151433E+02 0.  0.
         12    1    4    4    0    0  0.37564079835E+02  0.60573205671E+02 -0.15805168381E+02  0.73006689328E+02  0.00000000000E+00 0. -1.
        -11    1    4    4    0    0  0.64530880456E+02  0.75756770430E+02 -0.14074368193E+03  0.17237200122E+03  0.00000000000E+00 0.  1.
          5    1    3    3  501    0 -0.18557105533E+01  0.56676852358E+02 -0.19293899571E+03  0.20115480437E+03  0.47000000000E+01 0. -1.
         13    1    6    6    0    0 -0.71671421588E+01 -0.97066030729E+02 -0.37482439049E+02  0.10429820461E+03  0.00000000000E+00 0. -1.
        -14    1    6    6    0    0  0.22658165236E+02  0.56884226519E+01 -0.30807262652E+02  0.38663135365E+02  0.00000000000E+00 0.  1.
         -5    1    5    5    0  502 -0.11573027281E+03 -0.10162922038E+03 -0.11202117782E+03  0.19050676828E+03  0.47000000000E+01 0.  1.
</event>
<event>
12    1  0.9749377E-001  0.3097376E+03  0.7818608E-02  0.1080472E+00
         21   -1    0    0  503  502  0.00000000000E+00  0.00000000000E+00  0.12030011424E+04  0.12030011424E+04  0.00000000000E+00 0. -1.
         21   -1    0    0  501  503 -0.00000000000E+00 -0.00000000000E+00 -0.11332276180E+03  0.11332276180E+03  0.00000000000E+00 0.  1.
          6    2    1    2  501    0 -0.22412220713E+03 -0.18818823178E+03  0.80239658009E+03  0.87144706337E+03  0.17301484969E+03 0.  0.
         24    2    3    3    0    0 -0.36860529740E+02 -0.73880344926E+02  0.35651339127E+03  0.37448918097E+03  0.79519459800E+02 0.  0.
         -6    2    1    2    0  502  0.22412220713E+03  0.18818823178E+03  0.28728180048E+03  0.44487684080E+03  0.17244998198E+03 0.  0.
        -24    2    5    5    0    0  0.20244188165E+03  0.11901750557E+03  0.27731181849E+03  0.37155483580E+03  0.77480766982E+02 0.  0.
         12    1    4    4    0    0 -0.19813548967E+02 -0.16721795954E+02  0.20037058544E+02  0.32767039806E+02  0.00000000000E+00 0. -1.
        -11    1    4    4    0    0 -0.17046980773E+02 -0.57158548972E+02  0.33647633272E+03  0.34172214116E+03  0.00000000000E+00 0.  1.
          5    1    3    3  501    0 -0.18726167739E+03 -0.11430788685E+03  0.44588318882E+03  0.49695788241E+03  0.47000000000E+01 0. -1.
         13    1    6    6    0    0  0.85832341658E+02  0.83920478140E+02  0.17656100332E+03  0.21350322110E+03  0.00000000000E+00 0. -1.
        -14    1    6    6    0    0  0.11660953999E+03  0.35097027431E+02  0.10075081517E+03  0.15805161470E+03  0.00000000000E+00 0.  1.
         -5    1    5    5    0  502  0.21680325475E+02  0.69170726205E+02  0.99699819897E+01  0.73322005000E+02  0.47000000000E+01 0.  1.
</event>
<event>
12    1  0.9749377E-001  0.4188170E+03  0.7818608E-02  0.1037452E+00
         21   -1    0    0  503  502  0.00000000000E+00  0.00000000000E+00  0.28422838414E+03  0.28422838414E+03  0.00000000000E+00 0.  1.
         21   -1    0    0  501  503 -0.00000000000E+00 -0.00000000000E+00 -0.71001595320E+03  0.71001595320E+03  0.00000000000E+00 0. -1.
          6    2    1    2  501    0  0.28631388627E+03  0.26087455629E+03 -0.37801357514E+03  0.56788721274E+03  0.17196059960E+03 0.  0.
         24    2    3    3    0    0  0.30081860436E+03  0.22319187663E+03 -0.33153298211E+03  0.50613847412E+03  0.77172470693E+02 0.  0.
         -6    2    1    2    0  502 -0.28631388627E+03 -0.26087455629E+03 -0.47773993926E+02  0.42635712461E+03  0.17165916118E+03 0.  0.
        -24    2    5    5    0    0 -0.10256614899E+03 -0.18499030944E+03 -0.25326317586E+02  0.22623806492E+03  0.76164362749E+02 0.  0.
         12    1    4    4    0    0  0.17134888054E+03  0.13599365428E+03 -0.24187459244E+03  0.32612579066E+03  0.00000000000E+00 0. -1.
        -11    1    4    4    0    0  0.12946972382E+03  0.87198222346E+02 -0.89658389671E+02  0.18001268346E+03  0.00000000000E+00 0.  1.
          5    1    3    3  501    0 -0.14504718089E+02  0.37682679661E+02 -0.46480593027E+02  0.61748738623E+02  0.47000000000E+01 0. -1.
         11    1    6    6    0    0 -0.83720989547E+02 -0.18643870992E+03 -0.30512210135E+02  0.20663879504E+03  0.00000000000E+00 0. -1.
        -12    1    6    6    0    0 -0.18845159440E+02  0.14484004866E+01  0.51858925495E+01  0.19599269879E+02  0.00000000000E+00 0.  1.
         -5    1    5    5    0  502 -0.18374773728E+03 -0.75884246852E+02 -0.22447676341E+02  0.20011905969E+03  0.47000000000E+01 0.  1.
</event>
<event>
12    1  0.9749377E-001  0.2939904E+03  0.7818608E-02  0.1088284E+00
         21   -1    0    0  501  502  0.00000000000E+00  0.00000000000E+00  0.12825152285E+03  0.12825152285E+03  0.00000000000E+00 0.  1.
         21   -1    0    0  502  503 -0.00000000000E+00 -0.00000000000E+00 -0.12242932239E+04  0.12242932239E+04  0.00000000000E+00 0. -1.
         -6    2    1    2    0  503  0.72656595054E+02 -0.27373214389E+03 -0.17759095657E+03  0.37619518110E+03  0.17255723406E+03 0.  0.
        -24    2    3    3    0    0 -0.20320030098E+02 -0.78473318181E+02 -0.77011178752E+02  0.13763901676E+03  0.80267128958E+02 0.  0.
          6    2    1    2  501    0 -0.72656595054E+02  0.27373214389E+03 -0.91845074448E+03  0.97634956566E+03  0.17175109002E+03 0.  0.
         24    2    5    5    0    0 -0.17837004275E+02  0.75420501052E+02 -0.18944592525E+03  0.21885183518E+03  0.77459385924E+02 0.  0.
         12    1    6    6    0    0 -0.15883891542E+02  0.66878234401E+02 -0.66656437078E+02  0.95750074940E+02  0.00000000000E+00 0. -1.
        -11    1    6    6    0    0 -0.19531127337E+01  0.85422666515E+01 -0.12278948817E+03  0.12310176024E+03  0.00000000000E+00 0.  1.
          5    1    5    5  501    0 -0.54819590779E+02  0.19831164284E+03 -0.72900481923E+03  0.75749773048E+03  0.47000000000E+01 0. -1.
         11    1    4    4    0    0  0.92374436579E+01 -0.31804704385E+02 -0.75423824348E+02  0.82374892204E+02  0.00000000000E+00 0. -1.
        -12    1    4    4    0    0 -0.29557473756E+02 -0.46668613795E+02 -0.15873544042E+01  0.55264124551E+02  0.00000000000E+00 0.  1.
         -5    1    3    3    0  503  0.92976625152E+02 -0.19525882571E+03 -0.10057977782E+03  0.23855616435E+03  0.47000000000E+01 0.  1.
</event>
<event>
12    1  0.9749377E-001  0.9466331E+03  0.7818608E-02  0.9369095E-01
         21   -1    0    0  501  502  0.00000000000E+00  0.00000000000E+00  0.64621365221E+03  0.64621365221E+03  0.00000000000E+00 0.  1.
         21   -1    0    0  502  503 -0.00000000000E+00 -0.00000000000E+00 -0.14131174541E+04  0.14131174541E+04  0.00000000000E+00 0. -1.
         -6    2    1    2    0  503  0.77518490186E+03  0.52253423021E+03 -0.27810727208E+03  0.99073670180E+03  0.17395948868E+03 0.  0.
        -24    2    3    3    0    0  0.76846189374E+03  0.52915603869E+03 -0.26371736464E+03  0.97289835486E+03  0.80278048428E+02 0.  0.
          6    2    1    2  501    0 -0.77518490186E+03 -0.52253423021E+03 -0.48879652982E+03  0.10685944045E+04  0.17034758576E+03 0.  0.
         24    2    5    5    0    0 -0.17235612527E+03 -0.13039464778E+03 -0.13599316787E+03  0.26755240299E+03  0.79879587829E+02 0.  0.
         12    1    6    6    0    0 -0.13481027343E+03 -0.13403300737E+03 -0.97457825921E+02  0.21362744375E+03  0.00000000000E+00 0. -1.
        -11    1    6    6    0    0 -0.37545851839E+02  0.36383595895E+01 -0.38535341948E+02  0.53924959248E+02  0.00000000000E+00 0.  1.
          5    1    5    5  501    0 -0.60282877659E+03 -0.39213958243E+03 -0.35280336195E+03  0.80104200152E+03  0.47000000000E+01 0. -1.
         11    1    4    4    0    0  0.28862447816E+03  0.24108985083E+03 -0.12497095822E+03  0.39629048180E+03  0.00000000000E+00 0. -1.
        -12    1    4    4    0    0  0.47983741558E+03  0.28806618787E+03 -0.13874640642E+03  0.57660787306E+03  0.00000000000E+00 0.  1.
         -5    1    3    3    0  503  0.67230081174E+01 -0.66218084792E+01 -0.14389907433E+02  0.17838346942E+02  0.47000000000E+01 0.  1.
</event>
<event>
12    1  0.9749377E-001  0.2778314E+03  0.7818608E-02  0.1096879E+00
         21   -1    0    0  503  502  0.00000000000E+00  0.00000000000E+00  0.28621493869E+03  0.28621493869E+03  0.00000000000E+00 0.  1.
         21   -1    0    0  501  503 -0.00000000000E+00 -0.00000000000E+00 -0.41810715136E+03  0.41810715136E+03  0.00000000000E+00 0. -1.
          6    2    1    2  501    0 -0.65118447856E+02 -0.22199748142E+03  0.12890608248E+03  0.31597231977E+03  0.17233233810E+03 0.  0.
         24    2    3    3    0    0  0.11579802939E+02 -0.18004975111E+03  0.65300966690E+02  0.20775986898E+03  0.79673974388E+02 0.  0.
         -6    2    1    2    0  502  0.65118447856E+02  0.22199748142E+03 -0.26079829514E+03  0.38834977027E+03  0.17110376768E+03 0.  0.
        -24    2    5    5    0    0 -0.27663263806E+02  0.10898034772E+03 -0.98902982597E+02  0.17014458988E+03  0.80780004599E+02 0.  0.
         12    1    4    4    0    0  0.30959770474E+02 -0.14988049695E+03  0.75255224199E+02  0.17054623866E+03  0.00000000000E+00 0. -1.
        -11    1    4    4    0    0 -0.19379967535E+02 -0.30169254166E+02 -0.99542575087E+01  0.37213630314E+02  0.00000000000E+00 0.  1.
          5    1    3    3  501    0 -0.76698250794E+02 -0.41947730311E+02  0.63605115787E+02  0.10821245080E+03  0.47000000000E+01 0. -1.
         13    1    6    6    0    0  0.14658795610E+02 -0.13748655965E+01  0.18469318128E+01  0.14838520858E+02  0.00000000000E+00 0. -1.
        -14    1    6    6    0    0 -0.42322059416E+02  0.11035521332E+03 -0.10074991441E+03  0.15530606902E+03  0.00000000000E+00 0.  1.
         -5    1    5    5    0  502  0.92781711662E+02  0.11301713370E+03 -0.16189531254E+03  0.21820518040E+03  0.47000000000E+01 0.  1.
</event>
<event>
12    1  0.9749377E-001  0.4535427E+03  0.7818608E-02  0.1026671E+00
         21   -1    0    0  501  502  0.00000000000E+00  0.00000000000E+00  0.11143356680E+04  0.11143356680E+04  0.00000000000E+00 0.  1.
         21   -1    0    0  502  503 -0.00000000000E+00 -0.00000000000E+00 -0.20165374319E+03  0.20165374319E+03  0.00000000000E+00 0. -1.
         -6    2    1    2    0  503 -0.14925034151E+01  0.43710513877E+03  0.53842432551E+03  0.71506180754E+03  0.17421109148E+03 0.  0.
        -24    2    3    3    0    0  0.34136067676E+02  0.12872157801E+03  0.23166975548E+03  0.27860989511E+03  0.78854817796E+02 0.  0.
          6    2    1    2  501    0  0.14925034151E+01 -0.43710513877E+03  0.37425759934E+03  0.60092760369E+03  0.17315341265E+03 0.  0.
         24    2    5    5    0    0 -0.57485376708E+02 -0.34269059625E+03  0.26074500696E+03  0.44186882584E+03  0.80738388035E+02 0.  0.
         14    1    6    6    0    0 -0.28631207471E+02 -0.23047525326E+03  0.21751803388E+03  0.31820226817E+03  0.00000000000E+00 0. -1.
        -13    1    6    6    0    0 -0.28854169236E+02 -0.11221534299E+03  0.43226973084E+02  0.12366655767E+03  0.00000000000E+00 0.  1.
          5    1    5    5  501    0  0.58977880123E+02 -0.94414542522E+02  0.11351259238E+03  0.15905877785E+03  0.47000000000E+01 0. -1.
         13    1    4    4    0    0  0.22688261013E+02  0.29568478995E+02  0.15224846232E+02  0.40259757583E+02  0.00000000000E+00 0. -1.
        -14    1    4    4    0    0  0.11447806663E+02  0.99153099014E+02  0.21644490925E+03  0.23835013753E+03  0.00000000000E+00 0.  1.
         -5    1    3    3    0  503 -0.35628571091E+02  0.30838356076E+03  0.30675457003E+03  0.43645191243E+03  0.47000000000E+01 0.  1.
</event>
<event>
12    1  0.9749377E-001  0.6095812E+03  0.7818608E-02  0.9885725E-01
         21   -1    0    0  501  502  0.00000000000E+00  0.00000000000E+00  0.32513368089E+04  0.32513368089E+04  0.00000000000E+00 0.  1.
         21   -1    0    0  502  503 -0.00000000000E+00 -0.00000000000E+00 -0.13638414734E+03  0.13638414734E+03  0.00000000000E+00 0. -1.
         -6    2    1    2    0  503 -0.38062162483E+03 -0.45997962427E+03  0.21700439881E+04  0.22571666864E+04  0.17104520932E+03 0.  0.
        -24    2    3    3    0    0 -0.15157482578E+03 -0.14906443650E+03  0.98266080043E+03  0.10085548113E+04  0.79783611469E+02 0.  0.
          6    2    1    2  501    0  0.38062162483E+03  0.45997962427E+03  0.94490867338E+03  0.11305542698E+04  0.16984251517E+03 0.  0.
         24    2    5    5    0    0  0.12045594917E+03  0.23912970773E+03  0.44840163784E+03  0.52805763850E+03  0.78026841168E+02 0.  0.
         14    1    6    6    0    0  0.70089943033E+02  0.18570509064E+03  0.26977033150E+03  0.33492538357E+03  0.00000000000E+00 0. -1.
        -13    1    6    6    0    0  0.50366006140E+02  0.53424617092E+02  0.17863130634E+03  0.19313225492E+03  0.00000000000E+00 0.  1.
          5    1    5    5  501    0  0.26016567565E+03  0.22084991654E+03  0.49650703554E+03  0.60249663133E+03  0.47000000000E+01 0. -1.
         13    1    4    4    0    0 -0.11045962139E+03 -0.13876819154E+03  0.87611833343E+03  0.89389108571E+03  0.00000000000E+00 0. -1.
        -14    1    4    4    0    0 -0.41115204385E+02 -0.10296244961E+02  0.10654246701E+03  0.11466372560E+03  0.00000000000E+00 0.  1.
         -5    1    3    3    0  503 -0.22904679905E+03 -0.31091518777E+03  0.11873831877E+04  0.12486118751E+04  0.47000000000E+01 0.  1.
</event>
<event>
12    1  0.9749377E-001  0.2778823E+03  0.7818608E-02  0.1096851E+00
         21   -1    0    0  503  502  0.00000000000E+00  0.00000000000E+00  0.17678230357E+04  0.17678230357E+04  0.00000000000E+00 0. -1.
         21   -1    0    0  501  503 -0.00000000000E+00 -0.00000000000E+00 -0.18024376715E+03  0.18024376715E+03  0.00000000000E+00 0.  1.
          6    2    1    2  501    0 -0.21362694465E+02 -0.26902886841E+03  0.15966428327E+04  0.16275682664E+04  0.16394276431E+03 0.  0.
         24    2    3    3    0    0  0.16665834104E+02 -0.11205191773E+03  0.50608904440E+03  0.52510847706E+03  0.82337169774E+02 0.  0.
         -6    2    1    2    0  502  0.21362694465E+02  0.26902886841E+03 -0.90635641766E+01  0.32049853639E+03  0.17263912327E+03 0.  0.
        -24    2    5    5    0    0  0.36151012321E+01  0.14058536836E+03  0.60794735000E+02  0.17313849522E+03  0.80645049256E+02 0.  0.
         14    1    4    4    0    0  0.13569727572E+02 -0.10513158387E+03  0.50654083439E+03  0.51751367551E+03  0.00000000000E+00 0. -1.
        -13    1    4    4    0    0  0.30961065325E+01 -0.69203338635E+01 -0.45178999025E+00  0.75948015536E+01  0.00000000000E+00 0.  1.
          5    1    3    3  501    0 -0.38028528569E+02 -0.15697695068E+03  0.10905537883E+04  0.11024597894E+04  0.47000000000E+01 0. -1.
         11    1    6    6    0    0 -0.14064855714E+02  0.63187772384E+01  0.30780794212E+02  0.34426797765E+02  0.00000000000E+00 0. -1.
        -12    1    6    6    0    0  0.17679956946E+02  0.13426659113E+03  0.30013940789E+02  0.13871169746E+03  0.00000000000E+00 0.  1.
         -5    1    5    5    0  502  0.17747593233E+02  0.12844350004E+03 -0.69858299177E+02  0.14736004117E+03  0.47000000000E+01 0.  1.
</event>
<event>
12    1  0.9749377E-001  0.8120372E+03  0.7818608E-02  0.9542755E-01
         21   -1    0    0  503  502  0.00000000000E+00  0.00000000000E+00  0.54398221493E+03  0.54398221493E+03  0.00000000000E+00 0. -1.
         21   -1    0    0  501  503 -0.00000000000E+00 -0.00000000000E+00 -0.12998740082E+04  0.12998740082E+04  0.00000000000E+00 0.  1.
          6    2    1    2  501    0  0.67207179717E+03 -0.44457915943E+03 -0.19641081034E+03  0.84789202751E+03  0.17610381693E+03 0.  0.
         24    2    3    3    0    0  0.24102917452E+03 -0.17710852596E+03 -0.19232222713E+02  0.31053495421E+03  0.81237838825E+02 0.  0.
         -6    2    1    2    0  502 -0.67207179717E+03  0.44457915943E+03 -0.55948098290E+03  0.99596419560E+03  0.17203075051E+03 0.  0.
        -24    2    5    5    0    0 -0.34457674502E+03  0.26368509266E+03 -0.23078437135E+03  0.49792883037E+03  0.80054561061E+02 0.  0.
         12    1    4    4    0    0  0.12256734499E+03 -0.11762885942E+03  0.22963401417E+02  0.17142526194E+03  0.00000000000E+00 0. -1.
        -11    1    4    4    0    0  0.11846182953E+03 -0.59479666540E+02 -0.42195624129E+02  0.13910969227E+03  0.00000000000E+00 0.  1.
          5    1    3    3  501    0  0.43104262265E+03 -0.26747063348E+03 -0.17717858763E+03  0.53735707331E+03  0.47000000000E+01 0. -1.
         13    1    6    6    0    0 -0.33324426884E+03  0.23074371676E+03 -0.20274839965E+03  0.45321222303E+03  0.00000000000E+00 0. -1.
        -14    1    6    6    0    0 -0.11332476183E+02  0.32941375903E+02 -0.28035971704E+02  0.44716607342E+02  0.00000000000E+00 0.  1.
         -5    1    5    5    0  502 -0.32749505215E+03  0.18089406677E+03 -0.32869661154E+03  0.49803536523E+03  0.47000000000E+01 0.  1.
</event>
<event>
12    1  0.9749377E-001  0.2024033E+03  0.7818608E-02  0.1147727E+00
         21   -1    0    0  501  502  0.00000000000E+00  0.00000000000E+00  0.30324050075E+03  0.30324050075E+03  0.00000000000E+00 0. -1.
         21   -1    0    0  502  503 -0.00000000000E+00 -0.00000000000E+00 -0.22218015978E+03  0.22218015978E+03  0.00000000000E+00 0.  1.
         -6    2    1    2    0  503  0.74413532489E+02 -0.16064785129E+03  0.12555926772E+03  0.27523600443E+03  0.16924722297E+03 0.  0.
        -24    2    3    3    0    0  0.36108406520E+02 -0.18129373555E+02  0.80073453606E+02  0.12073730393E+03  0.80828505988E+02 0.  0.
          6    2    1    2  501    0 -0.74413532489E+02  0.16064785129E+03 -0.44498926757E+02  0.25018465610E+03  0.17107630381E+03 0.  0.
         24    2    5    5    0    0 -0.39255918338E+02  0.11597337980E+03  0.36848276063E+02  0.15083012102E+03  0.80006737282E+02 0.  0.
         12    1    6    6    0    0 -0.23339951454E+02  0.10272900089E+03 -0.35800540837E+01  0.10540786378E+03  0.00000000000E+00 0. -1.
        -11    1    6    6    0    0 -0.15915966884E+02  0.13244378906E+02  0.40428330147E+02  0.45422257242E+02  0.00000000000E+00 0.  1.
          5    1    5    5  501    0 -0.35157614151E+02  0.44674471489E+02 -0.81347202821E+02  0.99354535087E+02  0.47000000000E+01 0. -1.
         13    1    4    4    0    0  0.80638633393E+01  0.22946723566E+02  0.64003091101E+02  0.68468778905E+02  0.00000000000E+00 0. -1.
        -14    1    4    4    0    0  0.28044543180E+02 -0.41076097121E+02  0.16070362505E+02  0.52268525021E+02  0.00000000000E+00 0.  1.
         -5    1    3    3    0  503  0.38305125970E+02 -0.14251847773E+03  0.45485814119E+02  0.15449870050E+03  0.47000000000E+01 0.  1.
</event>
<event>
12    1  0.9749377E-001  0.2182894E+03  0.7818608E-02  0.1135165E+00
         21   -1    0    0  503  502  0.00000000000E+00  0.00000000000E+00  0.19473129194E+03  0.19473129194E+03  0.00000000000E+00 0.  1.
         21   -1    0    0  501  503 -0.00000000000E+00 -0.00000000000E+00 -0.30139305680E+03  0.30139305680E+03  0.00000000000E+00 0.  1.
          6    2    1    2  501    0  0.15561776429E+03  0.31154482405E+02  0.10860713745E+02  0.23435192427E+03  0.17209119376E+03 0.  0.
         24    2    3    3    0    0  0.13363649425E+03 -0.29429533268E+02 -0.24485023464E+02  0.16069725486E+03  0.80618120293E+02 0.  0.
         -6    2    1    2    0  502 -0.15561776429E+03 -0.31154482405E+02 -0.11752247861E+03  0.26177242447E+03  0.17183066927E+03 0.  0.
        -24    2    5    5    0    0 -0.62758538884E+02 -0.69114929950E+02 -0.10042605579E+03  0.15989892943E+03  0.82260362296E+02 0.  0.
         14    1    4    4    0    0  0.11870348656E+03  0.71697256136E+01 -0.23112240568E+02  0.12114494769E+03  0.00000000000E+00 0. -1.
        -13    1    4    4    0    0  0.14933007698E+02 -0.36599258882E+02 -0.13727828962E+01  0.39552307170E+02  0.00000000000E+00 0.  1.
          5    1    3    3  501    0  0.21981270033E+02  0.60584015673E+02  0.35345737209E+02  0.73654669411E+02  0.47000000000E+01 0. -1.
         13    1    6    6    0    0 -0.62391983252E+02 -0.22287427246E+02 -0.24391479833E+02  0.70600518949E+02  0.00000000000E+00 0. -1.
        -14    1    6    6    0    0 -0.36655563165E+00 -0.46827502704E+02 -0.76034575961E+02  0.89298410479E+02  0.00000000000E+00 0.  1.
         -5    1    5    5    0  502 -0.92859225403E+02  0.37960447545E+02 -0.17096422811E+02  0.10187349505E+03  0.47000000000E+01 0.  1.
</event>
<event>
12    1  0.9749377E-001  0.2910404E+03  0.7818608E-02  0.1089807E+00
         21   -1    0    0  501  502  0.00000000000E+00  0.00000000000E+00  0.64514570314E+03  0.64514570314E+03  0.00000000000E+00 0.  1.
         21   -1    0    0  502  503 -0.00000000000E+00 -0.00000000000E+00 -0.15909465238E+03  0.15909465238E+03  0.00000000000E+00 0. -1.
         -6    2    1    2    0  503 -0.40697714499E+02 -0.24397773199E+03  0.39502048193E+03  0.49769729494E+03  0.17458516138E+03 0.  0.
        -24    2    3    3    0    0 -0.26126918630E+02 -0.19193342737E+02  0.13680453046E+03  0.15500516293E+03  0.65269600123E+02 0.  0.
          6    2    1    2  501    0  0.40697714499E+02  0.24397773199E+03  0.91030568827E+02  0.30654306058E+03  0.15652682153E+03 0.  0.
         24    2    5    5    0    0  0.48408884127E+02  0.83268873366E+02  0.51159188376E+01  0.12408699338E+03  0.78065895026E+02 0.  0.
         14    1    6    6    0    0 -0.17960920256E+02  0.39742199077E+02 -0.57024033689E+01  0.43983570206E+02  0.00000000000E+00 0. -1.
        -13    1    6    6    0    0  0.66369804384E+02  0.43526674290E+02  0.10818322207E+02  0.80103423173E+02  0.00000000000E+00 0.  1.
          5    1    5    5  501    0 -0.77111696276E+01  0.16070885862E+03  0.85914649989E+02  0.18245606720E+03  0.47000000000E+01 0. -1.
         11    1    4    4    0    0 -0.37729062564E+02 -0.36171740673E+02  0.10062274141E+03  0.11338788768E+03  0.00000000000E+00 0. -1.
        -12    1    4    4    0    0  0.11602143935E+02  0.16978397936E+02  0.36181789048E+02  0.41617275248E+02  0.00000000000E+00 0.  1.
         -5    1    3    3    0  503 -0.14570795870E+02 -0.22478438925E+03  0.25821595148E+03  0.34269213201E+03  0.47000000000E+01 0.  1.
</event>
<event>
12    1  0.9749377E-001  0.2884087E+03  0.7818608E-02  0.1091183E+00
         21   -1    0    0  503  502  0.00000000000E+00  0.00000000000E+00  0.96856677417E+02  0.96856677417E+02  0.00000000000E+00 0.  1.
         21   -1    0    0  501  503 -0.00000000000E+00 -0.00000000000E+00 -0.10494019654E+04  0.10494019654E+04  0.00000000000E+00 0.  1.
          6    2    1    2  501    0 -0.21798064288E+03 -0.14671142854E+03 -0.36543055457E+03  0.48252438802E+03  0.17392668250E+03 0.  0.
         24    2    3    3    0    0 -0.65371750423E+02 -0.22702628939E+00 -0.70666244076E+02  0.11968111207E+03  0.71107898578E+02 0.  0.
         -6    2    1    2    0  502  0.21798064288E+03  0.14671142854E+03 -0.58711473345E+03  0.66373425483E+03  0.16370597689E+03 0.  0.
        -24    2    5    5    0    0  0.20035222972E+03  0.13960622294E+03 -0.59035671630E+03  0.64388871755E+03  0.80254063235E+02 0.  0.
         12    1    4    4    0    0  0.26523785899E+01 -0.22645384499E+02 -0.69965987342E+01  0.23849548112E+02  0.00000000000E+00 0. -1.
        -11    1    4    4    0    0 -0.68024129013E+02  0.22418358209E+02 -0.63669645342E+02  0.95831563959E+02  0.00000000000E+00 0.  1.
          5    1    3    3  501    0 -0.15260889246E+03 -0.14648440225E+03 -0.29476431049E+03  0.36284327595E+03  0.47000000000E+01 0. -1.
         13    1    6    6    0    0  0.17939831123E+03  0.14372730692E+03 -0.48939045238E+03  0.54068873458E+03  0.00000000000E+00 0. -1.
        -14    1    6    6    0    0  0.20953918493E+02 -0.41210839790E+01 -0.10096626393E+03  0.10319998297E+03  0.00000000000E+00 0.  1.
         -5    1    5    5    0  502  0.17628413159E+02  0.71052056006E+01  0.32419828558E+01  0.19845537281E+02  0.47000000000E+01 0.  1.
</event>
<event>
12    1  0.9749377E-001  0.1857829E+03  0.7818608E-02  0.1162321E+00
         21   -1    0    0  503  502  0.00000000000E+00  0.00000000000E+00  0.29308886011E+03  0.29308886011E+03  0.00000000000E+00 0.  1.
         21   -1    0    0  501  503 -0.00000000000E+00 -0.00000000000E+00 -0.17754835217E+03  0.17754835217E+03  0.00000000000E+00 0. -1.
          6    2    1    2  501    0  0.93788792603E+02 -0.11298877913E+03  0.93124409521E+02  0.24225189161E+03  0.16867430602E+03 0.  0.
         24    2    3    3    0    0  0.13166700586E+03 -0.92635555023E+02  0.81975940413E+02  0.19758209046E+03  0.80006757068E+02 0.  0.
         -6    2    1    2    0  502 -0.93788792603E+02  0.11298877913E+03  0.22416098420E+02  0.22838532067E+03  0.17347787007E+03 0.  0.
        -24    2    5    5    0    0 -0.73323725083E+02  0.32571904020E+02  0.59027375456E+02  0.13756589325E+03  0.94883330155E+02 0.  0.
         14    1    4    4    0    0  0.10180270557E+03 -0.85711632372E+02  0.28736622981E+02  0.13614723018E+03  0.00000000000E+00 0. -1.
        -13    1    4    4    0    0  0.29864300287E+02 -0.69239226514E+01  0.53239317432E+02  0.61434860277E+02  0.00000000000E+00 0.  1.
          5    1    3    3  501    0 -0.37878213259E+02 -0.20353224103E+02  0.11148469108E+02  0.44669801147E+02  0.47000000000E+01 0. -1.
         11    1    6    6    0    0 -0.69387410171E+02  0.34003743443E+02 -0.11134219552E+01  0.77279408427E+02  0.00000000000E+00 0. -1.
        -12    1    6    6    0    0 -0.39363149122E+01 -0.14318394236E+01  0.60140797411E+02  0.60286484824E+02  0.00000000000E+00 0.  1.
         -5    1    5    5    0  502 -0.20465067520E+02  0.80416875106E+02 -0.36611277036E+02  0.90819427418E+02  0.47000000000E+01 0.  1.
</event>
<event>
12    1  0.9749377E-001  0.1740333E+03  0.7818608E-02  0.1173706E+00
         21   -1    0    0  503  502  0.00000000000E+00  0.00000000000E+00  0.11009232412E+03  0.11009232412E+03  0.00000000000E+00 0. -1.
         21   -1    0    0  501  503 -0.00000000000E+00 -0.00000000000E+00 -0.84985099458E+03  0.84985099458E+03  0.00000000000E+00 0.  1.
          6    2    1    2  501    0  0.91018518923E+01  0.10870599734E+03 -0.10042152248E+02  0.20242578104E+03  0.17022195640E+03 0.  0.
         24    2    3    3    0    0  0.18329767527E+02  0.10937566196E+02 -0.49155796588E+02  0.96615631579E+02  0.80390778048E+02 0.  0.
         -6    2    1    2    0  502 -0.91018518923E+01 -0.10870599734E+03 -0.72971651821E+03  0.75751753766E+03  0.17160065661E+03 0.  0.
        -24    2    5    5    0    0 -0.19441111678E+02 -0.12962274910E+03 -0.71358793377E+03  0.72876632842E+03  0.68648439886E+02 0.  0.
         14    1    4    4    0    0 -0.27727903363E+02 -0.11710982893E+02 -0.89028603959E+01  0.31388607304E+02  0.00000000000E+00 0. -1.
        -13    1    4    4    0    0  0.46057670890E+02  0.22648549089E+02 -0.40252936192E+02  0.65227024275E+02  0.00000000000E+00 0.  1.
          5    1    3    3  501    0 -0.92279156347E+01  0.97768431140E+02  0.39113644340E+02  0.10581014946E+03  0.47000000000E+01 0. -1.
         11    1    6    6    0    0 -0.38490935103E+02 -0.52583635850E+02 -0.24564888884E+03  0.25414556348E+03  0.00000000000E+00 0. -1.
        -12    1    6    6    0    0  0.19049823425E+02 -0.77039113246E+02 -0.46793904493E+03  0.47462076494E+03  0.00000000000E+00 0.  1.
         -5    1    5    5    0  502  0.10339259786E+02  0.20916751760E+02 -0.16128584438E+02  0.28751209246E+02  0.47000000000E+01 0.  1.
</event>
<event>
12    1  0.9749377E-001  0.2611438E+03  0.7818608E-02  0.1106458E+00
         21   -1    0    0  503  502  0.00000000000E+00  0.00000000000E+00  0.79791991388E+03  0.79791991388E+03  0.00000000000E+00 0. -1.
         21   -1    0    0  501  503 -0.00000000000E+00 -0.00000000000E+00 -0.39609946942E+03  0.39609946942E+03  0.00000000000E+00 0.  1.
          6    2    1    2  501    0  0.21475018949E+03  0.14734652521E+02  0.72152556699E+03  0.77244273907E+03  0.17243516881E+03 0.  0.
         24    2    3    3    0    0  0.79935038298E+02  0.39568705414E+02  0.48130650218E+03  0.49582179938E+03  0.78917773057E+02 0.  0.
         -6    2    1    2    0  502 -0.21475018949E+03 -0.14734652521E+02 -0.31970512253E+03  0.42157664423E+03  0.17082373289E+03 0.  0.
        -24    2    5    5    0    0 -0.21310893062E+03  0.34712973266E+02 -0.24657269100E+03  0.33315603595E+03  0.59786666786E+02 0.  0.
         12    1    4    4    0    0  0.70302345652E+02  0.61698069904E+02  0.34817591614E+03  0.36052120634E+03  0.00000000000E+00 0. -1.
        -11    1    4    4    0    0  0.96326926466E+01 -0.22129364491E+02  0.13313058603E+03  0.13530059304E+03  0.00000000000E+00 0.  1.
          5    1    3    3  501    0  0.13481515119E+03 -0.24834052892E+02  0.24021906481E+03  0.27662093969E+03  0.47000000000E+01 0. -1.
         13    1    6    6    0    0 -0.53085045870E+02  0.21198472286E+02 -0.10272702340E+03  0.11755951114E+03  0.00000000000E+00 0. -1.
        -14    1    6    6    0    0 -0.16002388475E+03  0.13514500980E+02 -0.14384566760E+03  0.21559652481E+03  0.00000000000E+00 0.  1.
         -5    1    5    5    0  502 -0.16412588776E+01 -0.49447625787E+02 -0.73132431527E+02  0.88420608275E+02  0.47000000000E+01 0.  1.
</event>
<event>
12    1  0.9749377E-001  0.4915491E+03  0.7818608E-02  0.1016009E+00
         21   -1    0    0  501  502  0.00000000000E+00  0.00000000000E+00  0.76707327168E+03  0.76707327168E+03  0.00000000000E+00 0. -1.
         21   -1    0    0  502  503 -0.00000000000E+00 -0.00000000000E+00 -0.47225090882E+03  0.47225090882E+03  0.00000000000E+00 0.  1.
         -6    2    1    2    0  503 -0.16677102049E+03  0.43806875653E+03  0.49353098187E+03  0.70192971944E+03  0.17151003540E+03 0.  0.
        -24    2    3    3    0    0 -0.70179063455E+02  0.98688403922E+02  0.11870502791E+03  0.18712333286E+03  0.79118620021E+02 0.  0.
          6    2    1    2  501    0  0.16677102049E+03 -0.43806875653E+03 -0.19870861901E+03  0.53739446106E+03  0.17202000695E+03 0.  0.
         24    2    5    5    0    0  0.17798495987E+03 -0.43460628837E+03 -0.20904216673E+03  0.52106616261E+03  0.85147204964E+02 0.  0.
         14    1    6    6    0    0  0.11570200489E+03 -0.35107548614E+03 -0.13624056726E+03  0.39395741276E+03  0.00000000000E+00 0. -1.
        -13    1    6    6    0    0  0.62282954975E+02 -0.83530802238E+02 -0.72801599470E+02  0.12710874985E+03  0.00000000000E+00 0.  1.
          5    1    5    5  501    0 -0.11213939375E+02 -0.34624681527E+01  0.10333547715E+02  0.16328298453E+02  0.47000000000E+01 0. -1.
         13    1    4    4    0    0 -0.44335011199E+02  0.10760662939E+03  0.10400317479E+03  0.15608151804E+03  0.00000000000E+00 0. -1.
        -14    1    4    4    0    0 -0.25844052256E+02 -0.89182254660E+01  0.14701853123E+02  0.31041814827E+02  0.00000000000E+00 0.  1.
         -5    1    3    3    0  503 -0.96591957039E+02  0.33938035261E+03  0.37482595395E+03  0.51480638657E+03  0.47000000000E+01 0.  1.
</event>
<event>
12    1  0.9749377E-001  0.4322286E+03  0.7818608E-02  0.1033158E+00
         21   -1    0    0  503  502  0.00000000000E+00  0.00000000000E+00  0.19345433392E+04  0.19345433392E+04  0.00000000000E+00 0. -1.
         21   -1    0    0  501  503 -0.00000000000E+00 -0.00000000000E+00 -0.25712614696E+03  0.25712614696E+03  0.00000000000E+00 0.  1.
          6    2    1    2  501    0  0.40147392533E+03 -0.12471107098E+03 -0.22748642903E+00  0.45370610112E+03  0.17063121197E+03 0.  0.
         24    2    3    3    0    0  0.20701040540E+03 -0.13938204068E+02  0.41656501574E+02  0.22597150322E+03  0.79248184012E+02 0.  0.
         -6    2    1    2    0  502 -0.40147392533E+03  0.12471107098E+03  0.16776446787E+04  0.17379633851E+04  0.17114583227E+03 0.  0.
        -24    2    5    5    0    0 -0.26543917424E+03  0.93601093186E+02  0.85735128688E+03  0.90587166964E+03  0.79580983053E+02 0.  0.
         14    1    4    4    0    0  0.17005592471E+02  0.71322907070E+01 -0.17940326823E+02  0.25727710208E+02  0.00000000000E+00 0. -1.
        -13    1    4    4    0    0  0.19000481293E+03 -0.21070494775E+02  0.59596828397E+02  0.20024379301E+03  0.00000000000E+00 0.  1.
          5    1    3    3  501    0  0.19446351993E+03 -0.11077286691E+03 -0.41883988003E+02  0.22773459790E+03  0.47000000000E+01 0. -1.
         11    1    6    6    0    0 -0.15273164125E+03  0.92695313939E+02  0.56357362854E+03  0.59121452134E+03  0.00000000000E+00 0. -1.
        -12    1    6    6    0    0 -0.11270753299E+03  0.90577924646E+00  0.29377765835E+03  0.31465714829E+03  0.00000000000E+00 0.  1.
         -5    1    5    5    0  502 -0.13603475110E+03  0.31109977795E+02  0.82029339182E+03  0.83209171543E+03  0.47000000000E+01 0.  1.
</event>
<event>
12    1  0.9749377E-001  0.8362070E+03  0.7818608E-02  0.9509039E-01
         21   -1    0    0  503  502  0.00000000000E+00  0.00000000000E+00  0.80278614513E+03  0.80278614513E+03  0.00000000000E+00 0. -1.
         21   -1    0    0  501  503 -0.00000000000E+00 -0.00000000000E+00 -0.16610329142E+04  0.16610329142E+04  0.00000000000E+00 0.  1.
          6    2    1    2  501    0 -0.75518403148E+03 -0.33757746727E+03  0.41113464095E+03  0.93868208025E+03  0.16682591823E+03 0.  0.
         24    2    3    3    0    0 -0.17753823442E+03 -0.94688657040E+02  0.84710204114E+02  0.23210961832E+03  0.78824423785E+02 0.  0.
         -6    2    1    2    0  502  0.75518403148E+03  0.33757746727E+03 -0.12693814101E+04  0.15251369791E+04  0.17450551020E+03 0.  0.
        -24    2    5    5    0    0  0.44992322982E+03  0.26199443105E+03 -0.71443557735E+03  0.88726244630E+03  0.75792214588E+02 0.  0.
         14    1    4    4    0    0 -0.72252439703E+02 -0.11862315157E+02 -0.72717739890E+00  0.73223345668E+02  0.00000000000E+00 0. -1.
        -13    1    4    4    0    0 -0.10528579472E+03 -0.82826341883E+02  0.85437381513E+02  0.15888627266E+03  0.00000000000E+00 0.  1.
          5    1    3    3  501    0 -0.57764579706E+03 -0.24288881023E+03  0.32642443683E+03  0.70657246193E+03  0.47000000000E+01 0. -1.
         11    1    6    6    0    0  0.19184875487E+03  0.77894493385E+02 -0.24446475861E+03  0.32036934161E+03  0.00000000000E+00 0. -1.
        -12    1    6    6    0    0  0.25807447496E+03  0.18409993766E+03 -0.46997081874E+03  0.56689310469E+03  0.00000000000E+00 0.  1.
         -5    1    5    5    0  502  0.30526080166E+03  0.75583036220E+02 -0.55494583270E+03  0.63787453282E+03  0.47000000000E+01 0.  1.
</event>
<event>
12    1  0.9749377E-001  0.3884060E+03  0.7818608E-02  0.1047870E+00
         21   -1    0    0  503  502  0.00000000000E+00  0.00000000000E+00  0.75817494204E+03  0.75817494204E+03  0.00000000000E+00 0.  1.
         21   -1    0    0  501  503 -0.00000000000E+00 -0.00000000000E+00 -0.21835479355E+03  0.21835479355E+03  0.00000000000E+00 0. -1.
          6    2    1    2  501    0  0.26264927765E+03 -0.23555006861E+03  0.14165121399E+03  0.41798222768E+03  0.17371124994E+03 0.  0.
         24    2    3    3    0    0  0.21185495498E+03 -0.10027455580E+03  0.10081606674E+03  0.26775198161E+03  0.81177188008E+02 0.  0.
         -6    2    1    2    0  502 -0.26264927765E+03  0.23555006861E+03  0.39816893449E+03  0.55854750791E+03  0.17020088228E+03 0.  0.
        -24    2    5    5    0    0 -0.20905755664E+03  0.24160311260E+03  0.37357827047E+03  0.49908741491E+03  0.86315685439E+02 0.  0.
         14    1    4    4    0    0  0.13141303575E+03 -0.17443457433E+02  0.55463271736E+02  0.14370050342E+03  0.00000000000E+00 0. -1.
        -13    1    4    4    0    0  0.80441919232E+02 -0.82831098367E+02  0.45352795008E+02  0.12405147819E+03  0.00000000000E+00 0.  1.
          5    1    3    3  501    0  0.50794322674E+02 -0.13527551281E+03  0.40835147250E+02  0.15023024607E+03  0.47000000000E+01 0. -1.
         13    1    6    6    0    0 -0.13688893670E+03  0.94865766487E+02  0.20665203854E+03  0.26541130284E+03  0.00000000000E+00 0. -1.
        -14    1    6    6    0    0 -0.72168619938E+02  0.14673734611E+03  0.16692623193E+03  0.23367611207E+03  0.00000000000E+00 0.  1.
         -5    1    5    5    0  502 -0.53591721011E+02 -0.60530439847E+01  0.24590664020E+02  0.59460092998E+02  0.47000000000E+01 0.  1.
</event>
<event>
12    1  0.9749377E-001  0.2814269E+03  0.7818608E-02  0.1094912E+00
         21   -1    0    0  503  502  0.00000000000E+00  0.00000000000E+00  0.18070379958E+04  0.18070379958E+04  0.00000000000E+00 0. -1.
         21   -1    0    0  501  503 -0.00000000000E+00 -0.00000000000E+00 -0.94035362745E+02  0.94035362745E+02  0.00000000000E+00 0.  1.
          6    2    1    2  501    0  0.12268124357E+03 -0.22696917754E+03  0.14833419374E+04  0.15154053569E+04  0.17200115488E+03 0.  0.
         24    2    3    3    0    0  0.15885465549E+02 -0.10521554879E+03  0.45469294402E+03  0.47407441720E+03  0.81720376763E+02 0.  0.
         -6    2    1    2    0  502 -0.12268124357E+03  0.22696917754E+03  0.22966069560E+03  0.38566800163E+03  0.17155196675E+03 0.  0.
        -24    2    5    5    0    0 -0.12466292213E+03  0.10765671572E+03  0.17715063314E+03  0.25521192758E+03  0.81363189255E+02 0.  0.
         14    1    4    4    0    0 -0.54322152354E+01 -0.11431722469E+01 -0.14392251704E+01  0.57347340166E+01  0.00000000000E+00 0. -1.
        -13    1    4    4    0    0  0.21317680784E+02 -0.10407237654E+03  0.45613216919E+03  0.46833968318E+03  0.00000000000E+00 0.  1.
          5    1    3    3  501    0  0.10679577802E+03 -0.12175362876E+03  0.10286489934E+04  0.10413309397E+04  0.47000000000E+01 0. -1.
         13    1    6    6    0    0 -0.30128382788E+02  0.51509750006E+02  0.19057293753E+02  0.62643070170E+02  0.00000000000E+00 0. -1.
        -14    1    6    6    0    0 -0.94534539337E+02  0.56146965715E+02  0.15809333938E+03  0.19256885741E+03  0.00000000000E+00 0.  1.
         -5    1    5    5    0  502  0.19816785550E+01  0.11931246182E+03  0.52510062464E+02  0.13045607405E+03  0.47000000000E+01 0.  1.
</event>
<event>
12    1  0.9749377E-001  0.3089961E+03  0.7818608E-02  0.1080828E+00
         21   -1    0    0  503  502  0.00000000000E+00  0.00000000000E+00  0.12786600473E+04  0.12786600473E+04  0.00000000000E+00 0. -1.
         21   -1    0    0  501  503 -0.00000000000E+00 -0.00000000000E+00 -0.11762416897E+03  0.11762416897E+03  0.00000000000E+00 0.  1.
          6    2    1    2  501    0  0.25798022590E+03  0.80683686667E+02  0.18587070406E+03  0.36992243485E+03  0.17097085989E+03 0.  0.
         24    2    3    3    0    0  0.69047994524E+02  0.78423983996E+02  0.84404271186E+02  0.15540432068E+03  0.78156734053E+02 0.  0.
         -6    2    1    2    0  502 -0.25798022590E+03 -0.80683686667E+02  0.97516517426E+03  0.10263617814E+04  0.17148683627E+03 0.  0.
        -24    2    5    5    0    0 -0.21123865269E+03 -0.73409569787E-01  0.72529594718E+03  0.75964186825E+03  0.79873545171E+02 0.  0.
         12    1    4    4    0    0  0.43038239256E+02  0.19788283059E+02 -0.24474911549E+01  0.47432651176E+02  0.00000000000E+00 0. -1.
        -11    1    4    4    0    0  0.26009755268E+02  0.58635700937E+02  0.86851762341E+02  0.10797166950E+03  0.00000000000E+00 0.  1.
          5    1    3    3  501    0  0.18893223137E+03  0.22597026706E+01  0.10146643287E+03  0.21451811417E+03  0.47000000000E+01 0. -1.
         13    1    6    6    0    0 -0.73317222768E+01 -0.18043198756E+02  0.41090925129E+02  0.45472797372E+02  0.00000000000E+00 0. -1.
        -14    1    6    6    0    0 -0.20390693041E+03  0.17969789186E+02  0.68420502205E+03  0.71416907087E+03  0.00000000000E+00 0.  1.
         -5    1    5    5    0  502 -0.46741573211E+02 -0.80610277097E+02  0.24986922708E+03  0.26671991317E+03  0.47000000000E+01 0.  1.
</event>
<event>
12    1  0.9749377E-001  0.5686843E+03  0.7818608E-02  0.9972594E-01
         21   -1    0    0  503  502  0.00000000000E+00  0.00000000000E+00  0.50151516934E+03  0.50151516934E+03  0.00000000000E+00 0.  1.
         21   -1    0    0  501  503 -0.00000000000E+00 -0.00000000000E+00 -0.81826222192E+03  0.81826222192E+03  0.00000000000E+00 0. -1.
          6    2    1    2  501    0 -0.55003400532E+03  0.49719022117E+02 -0.44244055780E+03  0.72839580723E+03  0.17261928237E+03 0.  0.
         24    2    3    3    0    0 -0.43223502738E+03 -0.20678850195E+02 -0.30396771998E+03  0.53338484230E+03  0.69629601976E+02 0.  0.
         -6    2    1    2    0  502  0.55003400532E+03 -0.49719022117E+02  0.12569350522E+03  0.59138158402E+03  0.17007037515E+03 0.  0.
        -24    2    5    5    0    0  0.24653891693E+03  0.31246201475E+02  0.28243228492E+02  0.26246931222E+03  0.79590811257E+02 0.  0.
         14    1    4    4    0    0 -0.33363196298E+03 -0.13642928881E+02 -0.26811126022E+03  0.42822898558E+03  0.00000000000E+00 0. -1.
        -13    1    4    4    0    0 -0.98603064394E+02 -0.70359213145E+01 -0.35856459754E+02  0.10515585672E+03  0.00000000000E+00 0.  1.
          5    1    3    3  501    0 -0.11779897794E+03  0.70397872313E+02 -0.13847283782E+03  0.19501096493E+03  0.47000000000E+01 0. -1.
         13    1    6    6    0    0  0.17970952213E+03  0.44221542275E+02  0.48725991618E+02  0.19137732208E+03  0.00000000000E+00 0. -1.
        -14    1    6    6    0    0  0.66829394792E+02 -0.12975340799E+02 -0.20482763127E+02  0.71091990143E+02  0.00000000000E+00 0.  1.
         -5    1    5    5    0  502  0.30349508839E+03 -0.80965223593E+02  0.97450276731E+02  0.32891227180E+03  0.47000000000E+01 0.  1.
</event>
<event>
12    1  0.1320694E+000  0.7069202E+03  0.7818608E-02  0.9705470E-01
         21   -1    0    0  501  502  0.00000000000E+00  0.00000000000E+00  0.71144344527E+03  0.71144344527E+03  0.00000000000E+00 0. -1.
         21   -1    0    0  502  503 -0.00000000000E+00 -0.00000000000E+00 -0.84300938054E+03  0.84300938054E+03  0.00000000000E+00 0.  1.
         -6    2    1    2    0  503 -0.60465751173E+03 -0.34378360227E+03  0.22508387430E+03  0.75096522637E+03  0.17172113753E+03 0.  0.
        -24    2    3    3    0    0 -0.44392095953E+03 -0.28429566408E+03  0.22713674176E+03  0.57949698363E+03  0.79597811907E+02 0.  0.
          6    2    1    2  501    0  0.60465751173E+03  0.34378360227E+03 -0.35664980957E+03  0.80348759944E+03  0.18599829061E+03 0.  0.
         24    2    5    5    0    0  0.19403884646E+03  0.17851936889E+03 -0.18503733704E+03  0.32873199302E+03  0.65617590095E+02 0.  0.
         14    1    6    6    0    0 -0.36936055968E+00  0.21079533297E+02 -0.94914677165E+01  0.23120793902E+02  0.00000000000E+00 0. -1.
        -13    1    6    6    0    0  0.19440820702E+03  0.15743983560E+03 -0.17554586933E+03  0.30561119912E+03  0.00000000000E+00 0.  1.
          5    1    5    5  501    0  0.41061866527E+03  0.16526423337E+03 -0.17161247253E+03  0.47475560642E+03  0.47000000000E+01 0. -1.
         11    1    4    4    0    0 -0.35121447229E+03 -0.20622411580E+03  0.14177976101E+03  0.43125571546E+03  0.00000000000E+00 0. -1.
        -12    1    4    4    0    0 -0.92706487234E+02 -0.78071548278E+02  0.85356980758E+02  0.14824126817E+03  0.00000000000E+00 0.  1.
         -5    1    3    3    0  503 -0.16073655220E+03 -0.59487938192E+02 -0.20528674670E+01  0.17146824274E+03  0.47000000000E+01 0.  1.
</event>
<event>
12    1  0.9749377E-001  0.4930612E+03  0.7818608E-02  0.1015606E+00
         21   -1    0    0  501  502  0.00000000000E+00  0.00000000000E+00  0.75207599185E+03  0.75207599185E+03  0.00000000000E+00 0.  1.
         21   -1    0    0  502  503 -0.00000000000E+00 -0.00000000000E+00 -0.51311062625E+03  0.51311062625E+03  0.00000000000E+00 0. -1.
         -6    2    1    2    0  503  0.41609499316E+03 -0.23655821036E+03 -0.24374930711E+03  0.56424873349E+03  0.17282383603E+03 0.  0.
        -24    2    3    3    0    0  0.58068431721E+02 -0.41071673668E+02  0.61706669547E+00  0.88712174037E+02  0.53015506322E+02 0.  0.
          6    2    1    2  501    0 -0.41609499316E+03  0.23655821036E+03  0.48271467271E+03  0.70093788462E+03  0.17089655532E+03 0.  0.
         24    2    5    5    0    0 -0.33636977261E+03  0.14931410462E+03  0.29190271945E+03  0.47644081050E+03  0.79682636286E+02 0.  0.
         14    1    6    6    0    0 -0.22203452926E+03  0.60747435265E+02  0.15676685953E+03  0.27850571147E+03  0.00000000000E+00 0. -1.
        -13    1    6    6    0    0 -0.11433524335E+03  0.88566669353E+02  0.13513585992E+03  0.19793509904E+03  0.00000000000E+00 0.  1.
          5    1    5    5  501    0 -0.79725220549E+02  0.87244105743E+02  0.19081195327E+03  0.22449707412E+03  0.47000000000E+01 0. -1.
         11    1    4    4    0    0  0.21298896185E+02  0.88600324060E+01 -0.11108949057E+02  0.25603747813E+02  0.00000000000E+00 0. -1.
        -12    1    4    4    0    0  0.36769535536E+02 -0.49931706074E+02  0.11726015752E+02  0.63108426223E+02  0.00000000000E+00 0.  1.
         -5    1    3    3    0  503  0.35802656144E+03 -0.19548653669E+03 -0.24436637381E+03  0.47553655945E+03  0.47000000000E+01 0.  1.
</event>
<event>
12    1  0.9749377E-001  0.1298931E+03  0.7818608E-02  0.1227614E+00
         21   -1    0    0  501  502  0.00000000000E+00  0.00000000000E+00  0.14584100813E+03  0.14584100813E+03  0.00000000000E+00 0. -1.
         21   -1    0    0  502  503 -0.00000000000E+00 -0.00000000000E+00 -0.23970408769E+03  0.23970408769E+03  0.00000000000E+00 0. -1.
         -6    2    1    2    0  503  0.31520386161E+02  0.60073090119E+01  0.24672777036E+02  0.17428994871E+03  0.16952468195E+03 0.  0.
        -24    2    3    3    0    0 -0.30815810515E+02 -0.13213671319E+02  0.54125226201E+02  0.10256279721E+03  0.80407536786E+02 0.  0.
          6    2    1    2  501    0 -0.31520386161E+02 -0.60073090119E+01 -0.11853585659E+03  0.21125514711E+03  0.17189637977E+03 0.  0.
         24    2    5    5    0    0 -0.27957866299E+02 -0.66130679333E+02 -0.44394417101E+02  0.11561752765E+03  0.79004046688E+02 0.  0.
         14    1    6    6    0    0 -0.24592848850E+02 -0.80545357686E+02 -0.19169599331E+02  0.86370344435E+02  0.00000000000E+00 0. -1.
        -13    1    6    6    0    0 -0.33650174492E+01  0.14414678353E+02 -0.25224817770E+02  0.29247183214E+02  0.00000000000E+00 0.  1.
          5    1    5    5  501    0 -0.35625198622E+01  0.60123370321E+02 -0.74141439492E+02  0.95637619463E+02  0.47000000000E+01 0. -1.
         13    1    4    4    0    0 -0.16802604670E+02 -0.12464932665E+02 -0.18904379243E+02  0.28197120856E+02  0.00000000000E+00 0. -1.
        -14    1    4    4    0    0 -0.14013205845E+02 -0.74873865425E+00  0.73029605444E+02  0.74365676349E+02  0.00000000000E+00 0.  1.
         -5    1    3    3    0  503  0.62336196676E+02  0.19220980331E+02 -0.29452449165E+02  0.71727151503E+02  0.47000000000E+01 0.  1.
</event>
<event>
12    1  0.9749377E-001  0.4325832E+03  0.7818608E-02  0.1033047E+00
         21   -1    0    0  501  502  0.00000000000E+00  0.00000000000E+00  0.12024522508E+03  0.12024522508E+03  0.00000000000E+00 0.  1.
         21   -1    0    0  502  503 -0.00000000000E+00 -0.00000000000E+00 -0.22556734460E+04  0.22556734460E+04  0.00000000000E+00 0. -1.
         -6    2    1    2    0  503  0.11402547606E+03 -0.40142314146E+03 -0.47533287704E+03  0.65545210387E+03  0.17185391699E+03 0.  0.
        -24    2    3    3    0    0  0.14646026294E+03 -0.30507720734E+03 -0.39095675405E+03  0.52325537717E+03  0.80164176161E+02 0.  0.
          6    2    1    2  501    0 -0.11402547606E+03  0.40142314146E+03 -0.16600953438E+04  0.17204665672E+04  0.17305002284E+03 0.  0.
         24    2    5    5    0    0 -0.28924620752E+02  0.75481304712E+02 -0.41865699622E+03  0.43412621661E+03  0.81595529415E+02 0.  0.
         12    1    6    6    0    0 -0.11628545965E+02  0.35114671068E+02 -0.35422559641E+03  0.35615170414E+03  0.00000000000E+00 0. -1.
        -11    1    6    6    0    0 -0.17296074787E+02  0.40366633645E+02 -0.64431399806E+02  0.77974512476E+02  0.00000000000E+00 0.  1.
          5    1    5    5  501    0 -0.85100855313E+02  0.32594183675E+03 -0.12414383476E+04  0.12863403506E+04  0.47000000000E+01 0. -1.
         11    1    4    4    0    0  0.64764471598E+02 -0.64015329700E+02 -0.78326110194E+02  0.12011402398E+03  0.00000000000E+00 0. -1.
        -12    1    4    4    0    0  0.81695791337E+02 -0.24106187764E+03 -0.31263064386E+03  0.40314135319E+03  0.00000000000E+00 0.  1.
         -5    1    3    3    0  503 -0.32434786871E+02 -0.96345934120E+02 -0.84376122989E+02  0.13219672670E+03  0.47000000000E+01 0.  1.
</event>
<event>
12    1  0.9749377E-001  0.2656878E+03  0.7818608E-02  0.1103773E+00
         21   -1    0    0  501  502  0.00000000000E+00  0.00000000000E+00  0.10312111994E+04  0.10312111994E+04  0.00000000000E+00 0. -1.
         21   -1    0    0  502  503 -0.00000000000E+00 -0.00000000000E+00 -0.25169725161E+03  0.25169725161E+03  0.00000000000E+00 0.  1.
         -6    2    1    2    0  503 -0.13503379656E+02 -0.24748430231E+03  0.90577594370E+03  0.95489092741E+03  0.17307744481E+03 0.  0.
        -24    2    3    3    0    0 -0.35467395054E+02 -0.72598396959E+02  0.49321403741E+03  0.50622968060E+03  0.80498071203E+02 0.  0.
          6    2    1    2  501    0  0.13503379656E+02  0.24748430231E+03 -0.12626199587E+03  0.32801752365E+03  0.17384643530E+03 0.  0.
         24    2    5    5    0    0  0.32707228302E+02  0.17051035859E+03 -0.15205038444E+03  0.24446570261E+03  0.80626392535E+02 0.  0.
         12    1    6    6    0    0  0.74426935260E+01  0.30012884507E+02 -0.77455509131E+02  0.83399777087E+02  0.00000000000E+00 0. -1.
        -11    1    6    6    0    0  0.25264534776E+02  0.14049747409E+03 -0.74594875305E+02  0.16106592552E+03  0.00000000000E+00 0.  1.
          5    1    5    5  501    0 -0.19203848647E+02  0.76973943721E+02  0.25788388564E+02  0.83551821042E+02  0.47000000000E+01 0. -1.
         11    1    4    4    0    0  0.57632492035E+01 -0.57823449457E+02  0.38702112104E+03  0.39135931633E+03  0.00000000000E+00 0. -1.
        -12    1    4    4    0    0 -0.41230644258E+02 -0.14774947501E+02  0.10619291637E+03  0.11487036427E+03  0.00000000000E+00 0.  1.
         -5    1    3    3    0  503  0.21964015399E+02 -0.17488590536E+03  0.41256190629E+03  0.44866124681E+03  0.47000000000E+01 0.  1.
</event>
<event>
12    1  0.9749377E-001  0.2089911E+03  0.7818608E-02  0.1142367E+00
         21   -1    0    0  501  502  0.00000000000E+00  0.00000000000E+00  0.13045739593E+03  0.13045739593E+03  0.00000000000E+00 0.  1.
         21   -1    0    0  502  503 -0.00000000000E+00 -0.00000000000E+00 -0.45009984245E+03  0.45009984245E+03  0.00000000000E+00 0. -1.
         -6    2    1    2    0  503  0.60195751627E+01 -0.15350593420E+03 -0.71575013141E+02  0.24183904274E+03  0.17251908002E+03 0.  0.
        -24    2    3    3    0    0 -0.52137670421E+02 -0.53240376952E+02 -0.72591624189E+02  0.12582796275E+03  0.70783175203E+02 0.  0.
          6    2    1    2  501    0 -0.60195751627E+01  0.15350593420E+03 -0.24806743338E+03  0.33871819563E+03  0.17202400248E+03 0.  0.
         24    2    5    5    0    0 -0.55446247173E+02  0.11595463170E+03 -0.22704503784E+03  0.27301334543E+03  0.80418123827E+02 0.  0.
         14    1    6    6    0    0 -0.40333275900E+02  0.11532355653E+03 -0.14510371411E+03  0.18968759496E+03  0.00000000000E+00 0. -1.
        -13    1    6    6    0    0 -0.15112971273E+02  0.63107517025E+00 -0.81941323732E+02  0.83325750471E+02  0.00000000000E+00 0.  1.
          5    1    5    5  501    0  0.49426672011E+02  0.37551302498E+02 -0.21022395545E+02  0.65704850200E+02  0.47000000000E+01 0. -1.
         13    1    4    4    0    0 -0.24516997836E+02  0.15044991887E+02 -0.15815893308E+02  0.32826474756E+02  0.00000000000E+00 0. -1.
        -14    1    4    4    0    0 -0.27620672585E+02 -0.68285368839E+02 -0.56775730881E+02  0.93001487992E+02  0.00000000000E+00 0.  1.
         -5    1    3    3    0  503  0.58157245584E+02 -0.10026555725E+03  0.10166110477E+01  0.11601108000E+03  0.47000000000E+01 0.  1.
</event>
<event>
12    1  0.9749377E-001  0.2181989E+03  0.7818608E-02  0.1135233E+00
         21   -1    0    0  503  502  0.00000000000E+00  0.00000000000E+00  0.67240343299E+03  0.67240343299E+03  0.00000000000E+00 0. -1.
         21   -1    0    0  501  503 -0.00000000000E+00 -0.00000000000E+00 -0.98390222280E+02  0.98390222280E+02  0.00000000000E+00 0.  1.
          6    2    1    2  501    0  0.15872085328E+03 -0.90913181562E+02  0.36587425946E+03  0.44372261848E+03  0.17195427465E+03 0.  0.
         24    2    3    3    0    0  0.87972735458E+02 -0.72323502031E+01  0.28764473658E+03  0.30900169968E+03  0.70363675642E+02 0.  0.
         -6    2    1    2    0  502 -0.15872085328E+03  0.90913181562E+02  0.20813895126E+03  0.32707103679E+03  0.17377032033E+03 0.  0.
        -24    2    5    5    0    0 -0.33268866606E+02 -0.22521478162E+01  0.12273542541E+03  0.14893111486E+03  0.77489371317E+02 0.  0.
         12    1    4    4    0    0  0.84908277114E+02 -0.27493865401E+02  0.20027544654E+03  0.21926144815E+03  0.00000000000E+00 0. -1.
        -11    1    4    4    0    0  0.30644583444E+01  0.20261515198E+02  0.87369290041E+02  0.89740251533E+02  0.00000000000E+00 0.  1.
          5    1    3    3  501    0  0.70748117827E+02 -0.83680831359E+02  0.78229522874E+02  0.13472091880E+03  0.47000000000E+01 0. -1.
         11    1    6    6    0    0  0.11120770960E+02 -0.10727557065E+02 -0.26257407217E+01  0.15673115251E+02  0.00000000000E+00 0. -1.
        -12    1    6    6    0    0 -0.44389637566E+02  0.84754092492E+01  0.12536116613E+03  0.13325799961E+03  0.00000000000E+00 0.  1.
         -5    1    5    5    0  502 -0.12545198668E+03  0.93165329378E+02  0.85403525848E+02  0.17813992194E+03  0.47000000000E+01 0.  1.
</event>
<event>
12    1  0.9749377E-001  0.1682147E+03  0.7818608E-02  0.1179723E+00
         21   -1    0    0  503  502  0.00000000000E+00  0.00000000000E+00  0.24387170848E+03  0.24387170848E+03  0.00000000000E+00 0. -1.
         21   -1    0    0  501  503 -0.00000000000E+00 -0.00000000000E+00 -0.10865419104E+04  0.10865419104E+04  0.00000000000E+00 0. -1.
          6    2    1    2  501    0 -0.78209189861E+02  0.81251369093E+02  0.18829095859E+03  0.27913640607E+03  0.17246792672E+03 0.  0.
         24    2    3    3    0    0 -0.78799183743E+02  0.48479991282E+02  0.20790294463E+03  0.24065223669E+03  0.78295872974E+02 0.  0.
         -6    2    1    2    0  502  0.78209189861E+02 -0.81251369093E+02 -0.10309611605E+04  0.10512772128E+04  0.17200116663E+03 0.  0.
        -24    2    5    5    0    0  0.91697332370E+02 -0.27133316118E+00 -0.54652718726E+03  0.55991374179E+03  0.80018481898E+02 0.  0.
         12    1    4    4    0    0 -0.47279582735E+02  0.58152288606E+02  0.18738933526E+03  0.20182123422E+03  0.00000000000E+00 0. -1.
        -11    1    4    4    0    0 -0.31519601008E+02 -0.96722973244E+01  0.20513609369E+02  0.38831002467E+02  0.00000000000E+00 0.  1.
          5    1    3    3  501    0  0.58999388177E+00  0.32771377812E+02 -0.19611986038E+02  0.38484169379E+02  0.47000000000E+01 0. -1.
         11    1    6    6    0    0  0.49866697159E+02 -0.33222313017E+02 -0.18436845716E+03  0.19386112959E+03  0.00000000000E+00 0. -1.
        -12    1    6    6    0    0  0.41830635212E+02  0.32950979856E+02 -0.36215873010E+03  0.36605261221E+03  0.00000000000E+00 0.  1.
         -5    1    5    5    0  502 -0.13488142509E+02 -0.80980035932E+02 -0.48443397326E+03  0.49136347102E+03  0.47000000000E+01 0.  1.
</event>
<event>
12    1  0.9749377E-001  0.4679141E+03  0.7818608E-02  0.1022511E+00
         21   -1    0    0  503  502  0.00000000000E+00  0.00000000000E+00  0.13506009495E+04  0.13506009495E+04  0.00000000000E+00 0. -1.
         21   -1    0    0  501  503 -0.00000000000E+00 -0.00000000000E+00 -0.19013200608E+03  0.19013200608E+03  0.00000000000E+00 0.  1.
          6    2    1    2  501    0 -0.45089207568E+03 -0.54045459547E+02  0.35566338359E+03  0.60213957104E+03  0.17277454955E+03 0.  0.
         24    2    3    3    0    0 -0.22892741346E+03 -0.17427063533E+02  0.10424005454E+03  0.26473032606E+03  0.80651679413E+02 0.  0.
         -6    2    1    2    0  502  0.45089207568E+03  0.54045459547E+02  0.80480555988E+03  0.93859338460E+03  0.16438058520E+03 0.  0.
        -24    2    5    5    0    0  0.11179307409E+03  0.58531844143E+01  0.17466907547E+03  0.22137325992E+03  0.77232655651E+02 0.  0.
         12    1    4    4    0    0 -0.22727190717E+03 -0.21221463207E+02  0.11325313082E+03  0.25481197368E+03  0.00000000000E+00 0. -1.
        -11    1    4    4    0    0 -0.16555062855E+01  0.37943996740E+01 -0.90130762820E+01  0.99183523840E+01  0.00000000000E+00 0.  1.
          5    1    3    3  501    0 -0.22196466222E+03 -0.36618396013E+02  0.25142332905E+03  0.33740924497E+03  0.47000000000E+01 0. -1.
         11    1    6    6    0    0 -0.10623245943E+02  0.82260787037E+01  0.20273849090E+02  0.24321814944E+02  0.00000000000E+00 0. -1.
        -12    1    6    6    0    0  0.12241632003E+03 -0.23728942894E+01  0.15439522638E+03  0.19705144497E+03  0.00000000000E+00 0.  1.
         -5    1    5    5    0  502  0.33909900159E+03  0.48192275133E+02  0.63013648441E+03  0.71722012468E+03  0.47000000000E+01 0.  1.
</event>
<event>
12    1  0.9929258E-001  0.1230852E+04  0.7818608E-02  0.9086272E-01
         21   -1    0    0  501  502  0.00000000000E+00  0.00000000000E+00  0.12304767816E+04  0.12304767816E+04  0.00000000000E+00 0.  1.
         21   -1    0    0  502  503 -0.00000000000E+00 -0.00000000000E+00 -0.14456708069E+04  0.14456708069E+04  0.00000000000E+00 0. -1.
         -6    2    1    2    0  503  0.40309753625E+03 -0.11546887171E+04 -0.61254062744E+03  0.13785887973E+04  0.17177716614E+03 0.  0.
        -24    2    3    3    0    0  0.25611304026E+03 -0.61124736144E+03 -0.27218612847E+03  0.72071629901E+03  0.78290924628E+02 0.  0.
          6    2    1    2  501    0 -0.40309753625E+03  0.11546887171E+04  0.39734660216E+03  0.12975587911E+04  0.17314975344E+03 0.  0.
         24    2    5    5    0    0 -0.30869158410E+03  0.67450660480E+03  0.24245517073E+03  0.78423551065E+03  0.77402663653E+02 0.  0.
         12    1    6    6    0    0 -0.27442155626E+03  0.61177731819E+03  0.24173645127E+03  0.71275184283E+03  0.00000000000E+00 0. -1.
        -11    1    6    6    0    0 -0.34270027839E+02  0.62729286608E+02  0.71871945655E+00  0.71483667814E+02  0.00000000000E+00 0.  1.
          5    1    5    5  501    0 -0.94405952150E+02  0.48018211227E+03  0.15489143143E+03  0.51332328047E+03  0.47000000000E+01 0. -1.
         13    1    4    4    0    0 -0.48319923964E+01 -0.35990511491E+01 -0.28265051723E+01  0.66551071503E+01  0.00000000000E+00 0. -1.
        -14    1    4    4    0    0  0.26094503265E+03 -0.60764831029E+03 -0.26935962329E+03  0.71406119186E+03  0.00000000000E+00 0.  1.
         -5    1    3    3    0  503  0.14698449599E+03 -0.54344135562E+03 -0.34035449898E+03  0.65787249831E+03  0.47000000000E+01 0.  1.
</event>
<event>
12    1  0.9749377E-001  0.4107523E+03  0.7818608E-02  0.1040119E+00
         21   -1    0    0  501  502  0.00000000000E+00  0.00000000000E+00  0.88278892974E+03  0.88278892974E+03  0.00000000000E+00 0.  1.
         21   -1    0    0  502  503 -0.00000000000E+00 -0.00000000000E+00 -0.24306967362E+03  0.24306967362E+03  0.00000000000E+00 0. -1.
         -6    2    1    2    0  503  0.13315881311E+03 -0.38169739593E+03  0.50203574603E+03  0.66716215951E+03  0.17216644627E+03 0.  0.
        -24    2    3    3    0    0  0.58663852439E+02 -0.14266142532E+03  0.12227564876E+03  0.21226929752E+03  0.79455588430E+02 0.  0.
          6    2    1    2  501    0 -0.13315881311E+03  0.38169739593E+03  0.13768351008E+03  0.45869644385E+03  0.16739625768E+03 0.  0.
         24    2    5    5    0    0 -0.33074932688E+02  0.99660308142E+02  0.93082439450E+01  0.13302175806E+03  0.81129627891E+02 0.  0.
         14    1    6    6    0    0 -0.53356638898E+01  0.62572711949E+01 -0.27624010922E+02  0.28822018170E+02  0.00000000000E+00 0. -1.
        -13    1    6    6    0    0 -0.27739268798E+02  0.93403036947E+02  0.36932254867E+02  0.10419973989E+03  0.00000000000E+00 0.  1.
          5    1    5    5  501    0 -0.10008388042E+03  0.28203708779E+03  0.12837526614E+03  0.32567468579E+03  0.47000000000E+01 0. -1.
         13    1    4    4    0    0 -0.32255615078E+01 -0.72470909068E+02  0.84463824357E+02  0.11133990539E+03  0.00000000000E+00 0. -1.
        -14    1    4    4    0    0  0.61889413947E+02 -0.70190516254E+02  0.37811824408E+02  0.10092939213E+03  0.00000000000E+00 0.  1.
         -5    1    3    3    0  503  0.74494960667E+02 -0.23903597061E+03  0.37976009727E+03  0.45489286199E+03  0.47000000000E+01 0.  1.
</event>
<event>
12    1  0.9749377E-001  0.5617200E+03  0.7818608E-02  0.9988170E-01
         21   -1    0    0  503  502  0.00000000000E+00  0.00000000000E+00  0.49039053934E+03  0.49039053934E+03  0.00000000000E+00 0. -1.
         21   -1    0    0  501  503 -0.00000000000E+00 -0.00000000000E+00 -0.12568869405E+04  0.12568869405E+04  0.00000000000E+00 0.  1.
          6    2    1    2  501    0  0.43235584465E+03  0.33442646299E+03 -0.98100592114E+03  0.11360715517E+04  0.17179440535E+03 0.  0.
         24    2    3    3    0    0  0.12607310979E+03  0.11379859559E+03 -0.24625021369E+03  0.31001234729E+03  0.81387581128E+02 0.  0.
         -6    2    1    2    0  502 -0.43235584465E+03 -0.33442646299E+03  0.21450952003E+03  0.61120592811E+03  0.16966354005E+03 0.  0.
        -24    2    5    5    0    0 -0.30523847409E+03 -0.17378169172E+03  0.18204576090E+03  0.40374134296E+03  0.80596591190E+02 0.  0.
         14    1    4    4    0    0  0.85652158505E+02  0.23340296557E+02 -0.10539857707E+03  0.13780392501E+03  0.00000000000E+00 0. -1.
        -13    1    4    4    0    0  0.40420951285E+02  0.90458299035E+02 -0.14085163661E+03  0.17220842228E+03  0.00000000000E+00 0.  1.
          5    1    3    3  501    0  0.30628273486E+03  0.22062786740E+03 -0.73475570745E+03  0.82605920440E+03  0.47000000000E+01 0. -1.
         11    1    6    6    0    0 -0.15676544757E+03 -0.68028366680E+02  0.48085321273E+02  0.17752594838E+03  0.00000000000E+00 0. -1.
        -12    1    6    6    0    0 -0.14847302652E+03 -0.10575332504E+03  0.13396043963E+03  0.22621539458E+03  0.00000000000E+00 0.  1.
         -5    1    5    5    0  502 -0.12711737055E+03 -0.16064477127E+03  0.32463759125E+02  0.20746458514E+03  0.47000000000E+01 0.  1.
</event>
<event>
12    1  0.9749377E-001  0.5238262E+03  0.7818608E-02  0.1007740E+00
         21   -1    0    0  501  502  0.00000000000E+00  0.00000000000E+00  0.63004408019E+03  0.63004408019E+03  0.00000000000E+00 0. -1.
         21   -1    0    0  502  503 -0.00000000000E+00 -0.00000000000E+00 -0.58204710447E+03  0.58204710447E+03  0.00000000000E+00 0.  1.
         -6    2    1    2    0  503 -0.16002173915E+03 -0.48262889784E+03  0.30509722209E+03  0.61714030328E+03  0.17099774550E+03 0.  0.
        -24    2    3    3    0    0 -0.57080763237E+02 -0.34079767690E+03  0.19866564904E+03  0.41204834951E+03  0.10447263813E+03 0.  0.
          6    2    1    2  501    0  0.16002173915E+03  0.48262889784E+03 -0.25710024636E+03  0.59495088138E+03  0.17125537814E+03 0.  0.
         24    2    5    5    0    0  0.65815091636E+02  0.15743614327E+03 -0.40189638769E+02  0.19283457762E+03  0.80325598455E+02 0.  0.
         14    1    6    6    0    0  0.77924099430E+02  0.12448141281E+03 -0.11168442249E+02  0.14728381279E+03  0.00000000000E+00 0. -1.
        -13    1    6    6    0    0 -0.12109007793E+02  0.32954730459E+02 -0.29021196520E+02  0.45550764833E+02  0.00000000000E+00 0.  1.
          5    1    5    5  501    0  0.94206647513E+02  0.32519275457E+03 -0.21691060759E+03  0.40211630376E+03  0.47000000000E+01 0. -1.
         13    1    4    4    0    0  0.73750609812E+01 -0.15383927048E+03  0.13352738881E+03  0.20383933926E+03  0.00000000000E+00 0. -1.
        -14    1    4    4    0    0 -0.64455824219E+02 -0.18695840642E+03  0.65138260230E+02  0.20820901026E+03  0.00000000000E+00 0.  1.
         -5    1    3    3    0  503 -0.10294097591E+03 -0.14183122095E+03  0.10643157305E+03  0.20509195376E+03  0.47000000000E+01 0.  1.
</event>
<event>
12    1  0.9749377E-001  0.6170306E+03  0.7818608E-02  0.9870690E-01
         21   -1    0    0  503  502  0.00000000000E+00  0.00000000000E+00  0.67474993801E+03  0.67474993801E+03  0.00000000000E+00 0. -1.
         21   -1    0    0  501  503 -0.00000000000E+00 -0.00000000000E+00 -0.57456362786E+03  0.57456362786E+03  0.00000000000E+00 0.  1.
          6    2    1    2  501    0 -0.11188263822E+03 -0.58765759051E+03  0.67690041035E+02  0.62603947523E+03  0.17170997197E+03 0.  0.
         24    2    3    3    0    0 -0.42913429485E+01 -0.32005752690E+03  0.75784089488E+02  0.33746836704E+03  0.75408450347E+02 0.  0.
         -6    2    1    2    0  502  0.11188263822E+03  0.58765759051E+03  0.32496269117E+02  0.62327409065E+03  0.17191688733E+03 0.  0.
        -24    2    5    5    0    0  0.45109758813E+02  0.50792329722E+03  0.79898583432E+01  0.51632162869E+03  0.80642545940E+02 0.  0.
         14    1    4    4    0    0  0.27253506317E+02 -0.23032927996E+03  0.37534012957E+02  0.23495346974E+03  0.00000000000E+00 0. -1.
        -13    1    4    4    0    0 -0.31544849266E+02 -0.89728246935E+02  0.38250076530E+02  0.10251489730E+03  0.00000000000E+00 0.  1.
          5    1    3    3  501    0 -0.10759129527E+03 -0.26760006361E+03 -0.80940484523E+01  0.28857110819E+03  0.47000000000E+01 0. -1.
         13    1    6    6    0    0  0.46288607846E+02  0.16095949516E+03 -0.17645487514E+02  0.16841008737E+03  0.00000000000E+00 0. -1.
        -14    1    6    6    0    0 -0.11788490322E+01  0.34696380205E+03  0.25635345857E+02  0.34791154131E+03  0.00000000000E+00 0.  1.
         -5    1    5    5    0  502  0.66772879405E+02  0.79734293290E+02  0.24506410774E+02  0.10695246196E+03  0.47000000000E+01 0.  1.
</event>
<event>
12    1  0.9749377E-001  0.1561500E+03  0.7818608E-02  0.1193113E+00
         21   -1    0    0  501  502  0.00000000000E+00  0.00000000000E+00  0.19412637201E+03  0.19412637201E+03  0.00000000000E+00 0. -1.
         21   -1    0    0  502  503 -0.00000000000E+00 -0.00000000000E+00 -0.53287293710E+03  0.53287293710E+03  0.00000000000E+00 0. -1.
         -6    2    1    2    0  503  0.54882250571E+02  0.23137155612E+02  0.12916393703E+03  0.21961685733E+03  0.16733455112E+03 0.  0.
        -24    2    3    3    0    0  0.71384296898E+02  0.70550543742E+02  0.85645594068E+02  0.15301142902E+03  0.77486983171E+02 0.  0.
          6    2    1    2  501    0 -0.54882250571E+02 -0.23137155612E+02 -0.46791050212E+03  0.50738245178E+03  0.18694738561E+03 0.  0.
         24    2    5    5    0    0  0.24331066948E+02 -0.24362729046E+02 -0.38072998950E+03  0.38948934985E+03  0.74572685052E+02 0.  0.
         12    1    6    6    0    0  0.45346976802E+02 -0.28809001226E+02 -0.18676658423E+03  0.19434007266E+03  0.00000000000E+00 0. -1.
        -11    1    6    6    0    0 -0.21015909854E+02  0.44462721804E+01 -0.19396340527E+03  0.19514927719E+03  0.00000000000E+00 0.  1.
          5    1    5    5  501    0 -0.79213317519E+02  0.12255734339E+01 -0.87180512618E+02  0.11789310193E+03  0.47000000000E+01 0. -1.
         13    1    4    4    0    0  0.38839991273E+02  0.62824315199E+02  0.15745688241E+02  0.75520634269E+02  0.00000000000E+00 0. -1.
        -14    1    4    4    0    0  0.32544305625E+02  0.77262285433E+01  0.69899905827E+02  0.77490794749E+02  0.00000000000E+00 0.  1.
         -5    1    3    3    0  503 -0.16502046327E+02 -0.47413388130E+02  0.43518342963E+02  0.66605428316E+02  0.47000000000E+01 0.  1.
</event>
<event>
12    1  0.9749377E-001  0.5327827E+03  0.7818608E-02  0.1005559E+00
         21   -1    0    0  503  502  0.00000000000E+00  0.00000000000E+00  0.14346191774E+04  0.14346191774E+04  0.00000000000E+00 0. -1.
         21   -1    0    0  501  503 -0.00000000000E+00 -0.00000000000E+00 -0.21756448030E+03  0.21756448030E+03  0.00000000000E+00 0.  1.
          6    2    1    2  501    0  0.51444301774E+03  0.94975864077E+02  0.46908137814E+03  0.72322273967E+03  0.17129436242E+03 0.  0.
         24    2    3    3    0    0  0.34721885471E+03  0.68963375529E+02  0.22794337657E+03  0.42858703907E+03  0.80073634307E+02 0.  0.
         -6    2    1    2    0  502 -0.51444301774E+03 -0.94975864077E+02  0.74797331892E+03  0.92896091799E+03  0.17272020169E+03 0.  0.
        -24    2    5    5    0    0 -0.22012541336E+03  0.90093641256E+01  0.37643091864E+03  0.44367582123E+03  0.81311939985E+02 0.  0.
         14    1    4    4    0    0  0.26011519781E+03  0.15376394044E+02  0.15896708611E+03  0.30523250824E+03  0.00000000000E+00 0. -1.
        -13    1    4    4    0    0  0.87103656904E+02  0.53586981485E+02  0.68976290460E+02  0.12335453083E+03  0.00000000000E+00 0.  1.
          5    1    3    3  501    0  0.16722416303E+03  0.26012488548E+02  0.24113800157E+03  0.29463570059E+03  0.47000000000E+01 0. -1.
         11    1    6    6    0    0 -0.77037799501E+02  0.12873824047E+02  0.21057163464E+03  0.22459067481E+03  0.00000000000E+00 0. -1.
        -12    1    6    6    0    0 -0.14308761386E+03 -0.38644599213E+01  0.16585928400E+03  0.21908514642E+03  0.00000000000E+00 0.  1.
         -5    1    5    5    0  502 -0.29431760438E+03 -0.10398522820E+03  0.37154240028E+03  0.48528509676E+03  0.47000000000E+01 0.  1.
</event>
<event>
12    1  0.9749377E-001  0.5185967E+03  0.7818608E-02  0.1009036E+00
         21   -1    0    0  503  502  0.00000000000E+00  0.00000000000E+00  0.38513919433E+03  0.38513919433E+03  0.00000000000E+00 0.  1.
         21   -1    0    0  501  503 -0.00000000000E+00 -0.00000000000E+00 -0.88045161938E+03  0.88045161938E+03  0.00000000000E+00 0. -1.
          6    2    1    2  501    0 -0.15191993817E+03 -0.47977625521E+03 -0.50499153442E+03  0.73296658985E+03  0.17017241058E+03 0.  0.
         24    2    3    3    0    0 -0.99471467400E+02 -0.38783276536E+03 -0.46753247337E+03  0.62058456875E+03  0.78928870481E+02 0.  0.
         -6    2    1    2    0  502  0.15191993817E+03  0.47977625521E+03  0.96791093655E+01  0.53262422387E+03  0.17415497700E+03 0.  0.
        -24    2    5    5    0    0  0.18210818658E+03  0.41830344815E+03  0.17317565173E+02  0.46355416988E+03  0.80258357809E+02 0.  0.
         14    1    4    4    0    0 -0.51702959939E+02 -0.14126820578E+03 -0.23048737450E+03  0.27523504834E+03  0.00000000000E+00 0. -1.
        -13    1    4    4    0    0 -0.47768507460E+02 -0.24656455958E+03 -0.23704509888E+03  0.34534952041E+03  0.00000000000E+00 0.  1.
          5    1    3    3  501    0 -0.52448470767E+02 -0.91943489854E+02 -0.37459061042E+02  0.11238202110E+03  0.47000000000E+01 0. -1.
         13    1    6    6    0    0  0.16304496494E+03  0.40793057139E+03  0.26236910980E+02  0.44009020344E+03  0.00000000000E+00 0. -1.
        -14    1    6    6    0    0  0.19063221638E+02  0.10372876760E+02 -0.89193458069E+01  0.23463966441E+02  0.00000000000E+00 0.  1.
         -5    1    5    5    0  502 -0.30188248414E+02  0.61472807067E+02 -0.76384558080E+01  0.69070053989E+02  0.47000000000E+01 0.  1.
</event>
<event>
12    1  0.9749377E-001  0.3220951E+03  0.7818608E-02  0.1074689E+00
         21   -1    0    0  501  502  0.00000000000E+00  0.00000000000E+00  0.55087429083E+03  0.55087429083E+03  0.00000000000E+00 0. -1.
         21   -1    0    0  502  503 -0.00000000000E+00 -0.00000000000E+00 -0.22339954433E+03  0.22339954433E+03  0.00000000000E+00 0.  1.
         -6    2    1    2    0  503  0.79076067106E+01 -0.30049946799E+03  0.22906661940E+03  0.41429226450E+03  0.16971771797E+03 0.  0.
        -24    2    3    3    0    0  0.30993717787E+01 -0.68833397468E+02  0.11556685089E+03  0.15622914275E+03  0.79399025861E+02 0.  0.
          6    2    1    2  501    0 -0.79076067106E+01  0.30049946799E+03  0.98408127100E+02  0.35998157066E+03  0.17187236902E+03 0.  0.
         24    2    5    5    0    0 -0.16440003107E+02  0.25776226405E+03  0.20201746739E+02  0.27032891695E+03  0.77187785932E+02 0.  0.
         12    1    6    6    0    0  0.69434461633E+01  0.22595676340E+03  0.33799889157E+02  0.22857625178E+03  0.00000000000E+00 0. -1.
        -11    1    6    6    0    0 -0.23383449270E+02  0.31805500647E+02 -0.13598142419E+02  0.41752665166E+02  0.00000000000E+00 0.  1.
          5    1    5    5  501    0  0.85323963965E+01  0.42737203939E+02  0.78206380361E+02  0.89652653714E+02  0.47000000000E+01 0. -1.
         11    1    4    4    0    0  0.36448092135E+02 -0.57020845895E+02  0.89878429277E+02  0.11250765457E+03  0.00000000000E+00 0. -1.
        -12    1    4    4    0    0 -0.33348720356E+02 -0.11812551573E+02  0.25688421612E+02  0.43721488183E+02  0.00000000000E+00 0.  1.
         -5    1    3    3    0  503  0.48082349319E+01 -0.23166607052E+03  0.11349976852E+03  0.25806312175E+03  0.47000000000E+01 0.  1.
</event>
<event>
12    1  0.9749377E-001  0.2206996E+03  0.7818608E-02  0.1133363E+00
         21   -1    0    0  501  502  0.00000000000E+00  0.00000000000E+00  0.24836981510E+04  0.24836981510E+04  0.00000000000E+00 0. -1.
         21   -1    0    0  502  503 -0.00000000000E+00 -0.00000000000E+00 -0.57370826093E+02  0.57370826093E+02  0.00000000000E+00 0.  1.
         -6    2    1    2    0  503 -0.16526236365E+03 -0.12656410525E+03  0.32499460189E+03  0.42267174852E+03  0.17233628221E+03 0.  0.
        -24    2    3    3    0    0 -0.44427107780E+02 -0.63199439522E+01  0.16725104104E+03  0.19036820060E+03  0.79078641072E+02 0.  0.
          6    2    1    2  501    0  0.16526236365E+03  0.12656410525E+03  0.21013327230E+04  0.21183972286E+04  0.16934427541E+03 0.  0.
         24    2    5    5    0    0  0.15841932873E+03  0.12854215927E+03  0.20976303022E+04  0.21090946620E+04  0.81287380810E+02 0.  0.
         12    1    6    6    0    0  0.11160797143E+03  0.43064780217E+02  0.99490985070E+03  0.10020761077E+04  0.00000000000E+00 0. -1.
        -11    1    6    6    0    0  0.46811357298E+02  0.85477379051E+02  0.11027204515E+04  0.11070185543E+04  0.00000000000E+00 0.  1.
          5    1    5    5  501    0  0.68430349141E+01 -0.19780540170E+01  0.37024208386E+01  0.93025665596E+01  0.47000000000E+01 0. -1.
         13    1    4    4    0    0 -0.29982811285E+02 -0.69903309225E+01  0.17231772629E+03  0.17504637240E+03  0.00000000000E+00 0. -1.
        -14    1    4    4    0    0 -0.14444296494E+02  0.67038697031E+00 -0.50666852471E+01  0.15321828197E+02  0.00000000000E+00 0.  1.
         -5    1    3    3    0  503 -0.12083525587E+03 -0.12024416130E+03  0.15774356085E+03  0.23230354792E+03  0.47000000000E+01 0.  1.
</event>
<event>
12    1  0.9749377E-001  0.2609881E+03  0.7818608E-02  0.1106551E+00
         21   -1    0    0  501  502  0.00000000000E+00  0.00000000000E+00  0.15072550342E+04  0.15072550342E+04  0.00000000000E+00 0. -1.
         21   -1    0    0  502  503 -0.00000000000E+00 -0.00000000000E+00 -0.10428414097E+03  0.10428414097E+03  0.00000000000E+00 0.  1.
         -6    2    1    2    0  503  0.21846640048E+03  0.13966523914E+01  0.12459377104E+03  0.30482013482E+03  0.17222714081E+03 0.  0.
        -24    2    3    3    0    0  0.23342102357E+03  0.26927815218E+02  0.11272730214E+03  0.27259616686E+03  0.79942129429E+02 0.  0.
          6    2    1    2  501    0 -0.21846640048E+03 -0.13966523914E+01  0.12783771222E+04  0.13067190404E+04  0.15980320753E+03 0.  0.
         24    2    5    5    0    0 -0.81663239603E+02 -0.42726158215E+02  0.44031622953E+03  0.45654765606E+03  0.77865081850E+02 0.  0.
         12    1    6    6    0    0  0.23630147679E+01  0.44742269502E+01 -0.71398494982E+00  0.51100215366E+01  0.00000000000E+00 0. -1.
        -11    1    6    6    0    0 -0.84026254371E+02 -0.47200385166E+02  0.44103021448E+03  0.45143763453E+03  0.00000000000E+00 0.  1.
          5    1    5    5  501    0 -0.13680316088E+03  0.41329505824E+02  0.83806089270E+03  0.85017138434E+03  0.47000000000E+01 0. -1.
         13    1    4    4    0    0  0.47165804985E+02 -0.26141447519E+02  0.16865289694E+02  0.56501561348E+02  0.00000000000E+00 0. -1.
        -14    1    4    4    0    0  0.18625521859E+03  0.53069262737E+02  0.95862012447E+02  0.21609460551E+03  0.00000000000E+00 0.  1.
         -5    1    3    3    0  503 -0.14954623091E+02 -0.25531162827E+02  0.11866468901E+02  0.32223967963E+02  0.47000000000E+01 0.  1.
</event>
<event>
12    1  0.9749377E-001  0.1168011E+04  0.7818608E-02  0.9141326E-01
         21   -1    0    0  501  502  0.00000000000E+00  0.00000000000E+00  0.19087253193E+04  0.19087253193E+04  0.00000000000E+00 0. -1.
         21   -1    0    0  502  503 -0.00000000000E+00 -0.00000000000E+00 -0.13289482361E+04  0.13289482361E+04  0.00000000000E+00 0.  1.
         -6    2    1    2    0  503  0.62560373702E+03  0.97983458412E+03  0.13823575213E+04  0.18145879437E+04  0.17424477286E+03 0.  0.
        -24    2    3    3    0    0  0.62586687301E+03  0.97187123825E+03  0.13841679136E+04  0.18051618290E+04  0.80283059541E+02 0.  0.
          6    2    1    2  501    0 -0.62560373702E+03 -0.97983458412E+03 -0.80258043813E+03  0.14230856117E+04  0.17199258837E+03 0.  0.
         24    2    5    5    0    0 -0.14167121871E+03 -0.23539275510E+03 -0.22804784160E+03  0.36549679102E+03  0.78112757134E+02 0.  0.
         14    1    6    6    0    0  0.51513658770E+01 -0.29243131873E+02 -0.41754848475E+02  0.51236361144E+02  0.00000000000E+00 0. -1.
        -13    1    6    6    0    0 -0.14682258459E+03 -0.20614962322E+03 -0.18629299312E+03  0.31426042988E+03  0.00000000000E+00 0.  1.
          5    1    5    5  501    0 -0.48393251831E+03 -0.74444182903E+03 -0.57453259654E+03  0.10575888207E+04  0.47000000000E+01 0. -1.
         11    1    4    4    0    0  0.72579599251E+02  0.12222028513E+03  0.21300434240E+03  0.25607898431E+03  0.00000000000E+00 0. -1.
        -12    1    4    4    0    0  0.55328727376E+03  0.84965095311E+03  0.11711635712E+04  0.15490828447E+04  0.00000000000E+00 0.  1.
         -5    1    3    3    0  503 -0.26313598577E+00  0.79633458785E+01 -0.18103922661E+01  0.94261146972E+01  0.47000000000E+01 0.  1.
</event>
<event>
12    1  0.9749377E-001  0.2365703E+03  0.7818608E-02  0.1122099E+00
         21   -1    0    0  503  502  0.00000000000E+00  0.00000000000E+00  0.10832010486E+04  0.10832010486E+04  0.00000000000E+00 0. -1.
         21   -1    0    0  501  503 -0.00000000000E+00 -0.00000000000E+00 -0.63646362088E+02  0.63646362088E+02  0.00000000000E+00 0.  1.
          6    2    1    2  501    0  0.12344977831E+03  0.12222268579E+03  0.30490978842E+03  0.39028305678E+03  0.17080003702E+03 0.  0.
         24    2    3    3    0    0  0.10395785933E+03  0.25759495138E+02  0.23793297272E+03  0.27114840230E+03  0.73746650462E+02 0.  0.
         -6    2    1    2    0  502 -0.12344977831E+03 -0.12222268579E+03  0.71464489805E+03  0.75656435387E+03  0.17746565457E+03 0.  0.
        -24    2    5    5    0    0 -0.13691538180E+03 -0.14889632886E+03  0.65038650671E+03  0.68554297279E+03  0.77785737215E+02 0.  0.
         12    1    4    4    0    0  0.28013192297E+02 -0.24354871167E+02  0.91575698808E+02  0.98812991577E+02  0.00000000000E+00 0. -1.
        -11    1    4    4    0    0  0.75944667036E+02  0.50114366305E+02  0.14635727392E+03  0.17233541072E+03  0.00000000000E+00 0.  1.
          5    1    3    3  501    0  0.19491918973E+02  0.96463190652E+02  0.66976815695E+02  0.11913465447E+03  0.47000000000E+01 0. -1.
         13    1    6    6    0    0 -0.16265344797E+02 -0.70555188641E+02  0.23925278060E+03  0.24996897630E+03  0.00000000000E+00 0. -1.
        -14    1    6    6    0    0 -0.12065003700E+03 -0.78341140223E+02  0.41113372611E+03  0.43557399650E+03  0.00000000000E+00 0.  1.
         -5    1    5    5    0  502  0.13465603492E+02  0.26673643073E+02  0.64258391339E+02  0.71021381074E+02  0.47000000000E+01 0.  1.
</event>
<event>
12    1  0.9749377E-001  0.7656889E+03  0.7818608E-02  0.9611053E-01
         21   -1    0    0  503  502  0.00000000000E+00  0.00000000000E+00  0.35016112197E+03  0.35016112197E+03  0.00000000000E+00 0. -1.
         21   -1    0    0  501  503 -0.00000000000E+00 -0.00000000000E+00 -0.17190723699E+04  0.17190723699E+04  0.00000000000E+00 0.  1.
          6    2    1    2  501    0  0.98249637885E+02  0.74980725406E+03 -0.69254954914E+03  0.10401139590E+04  0.17420752038E+03 0.  0.
         24    2    3    3    0    0 -0.69953668020E+01  0.45092482533E+03 -0.43792126510E+03  0.63358613679E+03  0.79210006016E+02 0.  0.
         -6    2    1    2    0  502 -0.98249637885E+02 -0.74980725406E+03 -0.67636169875E+03  0.10291195328E+04  0.17250494387E+03 0.  0.
        -24    2    5    5    0    0 -0.29818685246E+02 -0.16944047174E+03 -0.14774244311E+03  0.24110379391E+03  0.81877851021E+02 0.  0.
         12    1    4    4    0    0 -0.34317156527E+02  0.34227254480E+03 -0.30484320556E+03  0.45962761246E+03  0.00000000000E+00 0. -1.
        -11    1    4    4    0    0  0.27321789725E+02  0.10865228053E+03 -0.13307805954E+03  0.17395852434E+03  0.00000000000E+00 0.  1.
          5    1    3    3  501    0  0.10524500469E+03  0.29888242873E+03 -0.25462828404E+03  0.40652782223E+03  0.47000000000E+01 0. -1.
         13    1    6    6    0    0  0.37971060837E+01 -0.54511597135E+01 -0.43274719378E+02  0.43781668471E+02  0.00000000000E+00 0. -1.
        -14    1    6    6    0    0 -0.33615791330E+02 -0.16398931203E+03 -0.10446772373E+03  0.19732212544E+03  0.00000000000E+00 0.  1.
         -5    1    5    5    0  502 -0.68430952638E+02 -0.58036678233E+03 -0.52861925564E+03  0.78801573889E+03  0.47000000000E+01 0.  1.
</event>
<event>
12    1  0.9749377E-001  0.4184143E+03  0.7818608E-02  0.1037584E+00
         21   -1    0    0  501  502  0.00000000000E+00  0.00000000000E+00  0.22270777775E+03  0.22270777775E+03  0.00000000000E+00 0. -1.
         21   -1    0    0  502  503 -0.00000000000E+00 -0.00000000000E+00 -0.88390519242E+03  0.88390519242E+03  0.00000000000E+00 0.  1.
         -6    2    1    2    0  503 -0.37640283666E+03 -0.14615864687E+03 -0.26046677354E+03  0.50770736261E+03  0.16395847167E+03 0.  0.
        -24    2    3    3    0    0 -0.13098193137E+03 -0.10867977178E+03 -0.11412076198E+03  0.21947944597E+03  0.78613737670E+02 0.  0.
          6    2    1    2  501    0  0.37640283666E+03  0.14615864687E+03 -0.40073064113E+03  0.59890560756E+03  0.18724698802E+03 0.  0.
         24    2    5    5    0    0  0.34348011768E+03  0.14008288174E+03 -0.27454223525E+03  0.46826708290E+03  0.79365086706E+02 0.  0.
         12    1    6    6    0    0  0.23118698553E+03  0.11455452857E+03 -0.22709074356E+03  0.34371553370E+03  0.00000000000E+00 0. -1.
        -11    1    6    6    0    0  0.11229313215E+03  0.25528353167E+02 -0.47451491696E+02  0.12455154920E+03  0.00000000000E+00 0.  1.
          5    1    5    5  501    0  0.32922718972E+02  0.60757651340E+01 -0.12618840588E+03  0.13063852466E+03  0.47000000000E+01 0. -1.
         11    1    4    4    0    0  0.25165482423E+01 -0.22503882405E+02 -0.35722246611E+02  0.42294640811E+02  0.00000000000E+00 0. -1.
        -12    1    4    4    0    0 -0.13349847962E+03 -0.86175889376E+02 -0.78398515366E+02  0.17718480516E+03  0.00000000000E+00 0.  1.
         -5    1    3    3    0  503 -0.24542090528E+03 -0.37478875093E+02 -0.14634601156E+03  0.28822791663E+03  0.47000000000E+01 0.  1.
</event>
<event>
12    1  0.9749377E-001  0.1402256E+03  0.7818608E-02  0.1213026E+00
         21   -1    0    0  503  502  0.00000000000E+00  0.00000000000E+00  0.22653521796E+03  0.22653521796E+03  0.00000000000E+00 0.  1.
         21   -1    0    0  501  503 -0.00000000000E+00 -0.00000000000E+00 -0.15379657780E+03  0.15379657780E+03  0.00000000000E+00 0.  1.
          6    2    1    2  501    0  0.11852324276E+02  0.10567808087E+02  0.10711127425E+03  0.20422221418E+03  0.17315233621E+03 0.  0.
         24    2    3    3    0    0 -0.48009450242E+02  0.41295147429E+02  0.81408760068E+02  0.13203973246E+03  0.82443363707E+02 0.  0.
         -6    2    1    2    0  502 -0.11852324276E+02 -0.10567808087E+02 -0.34372634088E+02  0.17610958158E+03  0.17199113521E+03 0.  0.
        -24    2    5    5    0    0  0.23461541028E+00  0.50159920279E+02 -0.58847302805E+02  0.10936341680E+03  0.77338730530E+02 0.  0.
         14    1    4    4    0    0 -0.10738794777E+02  0.38595561892E+02  0.85527456755E+02  0.94445142649E+02  0.00000000000E+00 0. -1.
        -13    1    4    4    0    0 -0.37270655465E+02  0.26995855368E+01 -0.41186966874E+01  0.37594589814E+02  0.00000000000E+00 0.  1.
          5    1    3    3  501    0  0.59861774517E+02 -0.30727339341E+02  0.25702514178E+02  0.72182481714E+02  0.47000000000E+01 0. -1.
         11    1    6    6    0    0 -0.23619136822E+02  0.42138430748E+02 -0.33450740709E+01  0.48422107458E+02  0.00000000000E+00 0. -1.
        -12    1    6    6    0    0  0.23853752232E+02  0.80214895308E+01 -0.55502228735E+02  0.60941309342E+02  0.00000000000E+00 0.  1.
         -5    1    5    5    0  502 -0.12086939686E+02 -0.60727728366E+02  0.24474668718E+02  0.66746164776E+02  0.47000000000E+01 0.  1.
</event>
<event>
12    1  0.9749377E-001  0.2342672E+03  0.7818608E-02  0.1123672E+00
         21   -1    0    0  501  502  0.00000000000E+00  0.00000000000E+00  0.58164307968E+03  0.58164307968E+03  0.00000000000E+00 0. -1.
         21   -1    0    0  502  503 -0.00000000000E+00 -0.00000000000E+00 -0.12188078964E+03  0.12188078964E+03  0.00000000000E+00 0.  1.
         -6    2    1    2    0  503  0.19805150693E+03 -0.32749834813E+02  0.27043152610E+03  0.37762206519E+03  0.17078718551E+03 0.  0.
        -24    2    3    3    0    0  0.18440725834E+03 -0.59652735086E+02  0.16855329571E+03  0.27126796141E+03  0.87244527981E+02 0.  0.
          6    2    1    2  501    0 -0.19805150693E+03  0.32749834813E+02  0.18933076395E+03  0.32590180413E+03  0.17340385429E+03 0.  0.
         24    2    5    5    0    0 -0.16039094868E+03 -0.20008039680E+02  0.77433111660E+02  0.19649977340E+03  0.80564856466E+02 0.  0.
         12    1    6    6    0    0 -0.12660144708E+03 -0.21347369411E+02  0.93729532588E+02  0.15896182518E+03  0.00000000000E+00 0. -1.
        -11    1    6    6    0    0 -0.33789501592E+02  0.13393297317E+01 -0.16296420928E+02  0.37537948226E+02  0.00000000000E+00 0.  1.
          5    1    5    5  501    0 -0.37660558248E+02  0.52757874492E+02  0.11189765229E+03  0.12940203072E+03  0.47000000000E+01 0. -1.
         11    1    4    4    0    0  0.66899337798E+02 -0.64870181157E+02  0.57476931279E+02  0.10948634358E+03  0.00000000000E+00 0. -1.
        -12    1    4    4    0    0  0.11750792054E+03  0.52174460710E+01  0.11107636443E+03  0.16178161783E+03  0.00000000000E+00 0.  1.
         -5    1    3    3    0  503  0.13644248583E+02  0.26902900274E+02  0.10187823039E+03  0.10635410378E+03  0.47000000000E+01 0.  1.
</event>
<event>
12    1  0.9749377E-001  0.6446027E+03  0.7818608E-02  0.9816960E-01
         21   -1    0    0  501  502  0.00000000000E+00  0.00000000000E+00  0.13422065413E+04  0.13422065413E+04  0.00000000000E+00 0.  1.
         21   -1    0    0  502  503 -0.00000000000E+00 -0.00000000000E+00 -0.33207867300E+03  0.33207867300E+03  0.00000000000E+00 0. -1.
         -6    2    1    2    0  503  0.63081299256E+03  0.52056978230E+02  0.66147906198E+03  0.93144619300E+03  0.17147157330E+03 0.  0.
        -24    2    3    3    0    0  0.61140453900E+03  0.35534979489E+02  0.66225947502E+03  0.90551621891E+03  0.79333255152E+02 0.  0.
          6    2    1    2  501    0 -0.63081299256E+03 -0.52056978230E+02  0.34864880627E+03  0.74283902126E+03  0.17210130977E+03 0.  0.
         24    2    5    5    0    0 -0.38324885992E+03  0.29277482320E+02  0.17665537475E+03  0.43057771285E+03  0.80331723337E+02 0.  0.
         12    1    6    6    0    0 -0.14977459047E+03  0.44282912878E+02  0.94865090491E+02  0.18273694131E+03  0.00000000000E+00 0. -1.
        -11    1    6    6    0    0 -0.23347426944E+03 -0.15005430558E+02  0.81790284259E+02  0.24784077154E+03  0.00000000000E+00 0.  1.
          5    1    5    5  501    0 -0.24756413264E+03 -0.81334460550E+02  0.17199343152E+03  0.31226130841E+03  0.47000000000E+01 0. -1.
         13    1    4    4    0    0  0.11898049712E+03  0.28494914511E+01  0.17782379924E+03  0.21397612454E+03  0.00000000000E+00 0. -1.
        -14    1    4    4    0    0  0.49242404189E+03  0.32685488038E+02  0.48443567578E+03  0.69154009437E+03  0.00000000000E+00 0.  1.
         -5    1    3    3    0  503  0.19408453555E+02  0.16521998740E+02 -0.78041303798E+00  0.25929974090E+02  0.47000000000E+01 0.  1.
</event>
<event>
12    1  0.9749377E-001  0.2672385E+03  0.7818608E-02  0.1102871E+00
         21   -1    0    0  503  502  0.00000000000E+00  0.00000000000E+00  0.14216932764E+03  0.14216932764E+03  0.00000000000E+00 0.  1.
         21   -1    0    0  501  503 -0.00000000000E+00 -0.00000000000E+00 -0.85305418495E+03  0.85305418495E+03  0.00000000000E+00 0. -1.
          6    2    1    2  501    0 -0.16068584528E+03 -0.16183500496E+03 -0.70618104781E+02  0.29431424348E+03  0.17211463472E+03 0.  0.
         24    2    3    3    0    0 -0.24239992353E+02 -0.31661630330E+02  0.47299783601E+01  0.91183738931E+02  0.81866143708E+02 0.  0.
         -6    2    1    2    0  502  0.16068584528E+03  0.16183500496E+03 -0.64026675254E+03  0.70090926912E+03  0.17123603426E+03 0.  0.
        -24    2    5    5    0    0  0.15654239008E+03  0.83683274648E+02 -0.34826163485E+03  0.39856188625E+03  0.77826733937E+02 0.  0.
         14    1    4    4    0    0  0.23220048997E+02 -0.35049533033E+02  0.10275700517E+02  0.43280832506E+02  0.00000000000E+00 0. -1.
        -13    1    4    4    0    0 -0.47460041351E+02  0.33879027027E+01 -0.55457221567E+01  0.47902906425E+02  0.00000000000E+00 0.  1.
          5    1    3    3  501    0 -0.13644585293E+03 -0.13017337463E+03 -0.75348083141E+02  0.20313050455E+03  0.47000000000E+01 0. -1.
         11    1    6    6    0    0  0.78623194185E+01  0.17669999248E+01  0.28663571986E+01  0.85530321502E+01  0.00000000000E+00 0. -1.
        -12    1    6    6    0    0  0.14868007066E+03  0.81916274724E+02 -0.35112799205E+03  0.39000885410E+03  0.00000000000E+00 0.  1.
         -5    1    5    5    0  502  0.41434552010E+01  0.78151730311E+02 -0.29200511768E+03  0.30234738286E+03  0.47000000000E+01 0.  1.
</event>
<event>
12    1  0.9749377E-001  0.2121780E+03  0.7818608E-02  0.1139853E+00
         21   -1    0    0  501  502  0.00000000000E+00  0.00000000000E+00  0.13106166787E+03  0.13106166787E+03  0.00000000000E+00 0.  1.
         21   -1    0    0  502  503 -0.00000000000E+00 -0.00000000000E+00 -0.43090067106E+03  0.43090067106E+03  0.00000000000E+00 0. -1.
         -6    2    1    2    0  503  0.10481091695E+02 -0.15163924251E+03 -0.82267903159E+02  0.24286725067E+03  0.17062291876E+03 0.  0.
        -24    2    3    3    0    0 -0.19694323046E+02 -0.16636773593E+03 -0.42623796560E+02  0.19070184679E+03  0.80525253287E+02 0.  0.
          6    2    1    2  501    0 -0.10481091695E+02  0.15163924251E+03 -0.21757110003E+03  0.31909508827E+03  0.17714451343E+03 0.  0.
         24    2    5    5    0    0 -0.55706405653E+02  0.11674923589E+03 -0.84109774586E+02  0.17384820543E+03  0.80094672972E+02 0.  0.
         14    1    6    6    0    0 -0.67373515643E+02  0.12175343910E+03 -0.79977205395E+02  0.16049748884E+03  0.00000000000E+00 0. -1.
        -13    1    6    6    0    0  0.11667109991E+02 -0.50042032066E+01 -0.41325691911E+01  0.13350716587E+02  0.00000000000E+00 0.  1.
          5    1    5    5  501    0  0.45225313958E+02  0.34890006615E+02 -0.13346132545E+03  0.14524688284E+03  0.47000000000E+01 0. -1.
         13    1    4    4    0    0 -0.44312355092E+02 -0.13025432950E+03 -0.49977410377E+02  0.14638140837E+03  0.00000000000E+00 0. -1.
        -14    1    4    4    0    0  0.24618032047E+02 -0.36113406433E+02  0.73536138175E+01  0.44320438425E+02  0.00000000000E+00 0.  1.
         -5    1    3    3    0  503  0.30175414741E+02  0.14728493426E+02 -0.39644106599E+02  0.52165403875E+02  0.47000000000E+01 0.  1.
</event>
<event>
12    1  0.9749377E-001  0.2364652E+03  0.7818608E-02  0.1122170E+00
         21   -1    0    0  503  502  0.00000000000E+00  0.00000000000E+00  0.44551889583E+03  0.44551889583E+03  0.00000000000E+00 0. -1.
         21   -1    0    0  501  503 -0.00000000000E+00 -0.00000000000E+00 -0.18234667688E+03  0.18234667688E+03  0.00000000000E+00 0.  1.
          6    2    1    2  501    0  0.17969412394E+03  0.45438166953E+02  0.27710864642E+03  0.37593621518E+03  0.17373609518E+03 0.  0.
         24    2    3    3    0    0  0.69020583760E+02  0.25260423671E+01  0.45794603603E+02  0.11590091116E+03  0.81028720930E+02 0.  0.
         -6    2    1    2    0  502 -0.17969412394E+03 -0.45438166953E+02 -0.13936427470E+02  0.25192935753E+03  0.17005755492E+03 0.  0.
        -24    2    5    5    0    0 -0.17386934463E+03  0.63334952477E+01 -0.22677196144E+02  0.19889423617E+03  0.93669631122E+02 0.  0.
         12    1    4    4    0    0 -0.60250932239E+01 -0.25510402233E+02  0.13938335343E+02  0.29687700527E+02  0.00000000000E+00 0. -1.
        -11    1    4    4    0    0  0.75045676984E+02  0.28036444600E+02  0.31856268260E+02  0.86213210631E+02  0.00000000000E+00 0.  1.
          5    1    3    3  501    0  0.11067354018E+03  0.42912124586E+02  0.23131404282E+03  0.26003530402E+03  0.47000000000E+01 0. -1.
         11    1    6    6    0    0 -0.48230729445E+01  0.24969933495E+02  0.67140125578E+01  0.26302805478E+02  0.00000000000E+00 0. -1.
        -12    1    6    6    0    0 -0.16904627168E+03 -0.18636438247E+02 -0.29391208701E+02  0.17259143069E+03  0.00000000000E+00 0.  1.
         -5    1    5    5    0  502 -0.58247793105E+01 -0.51771662201E+02  0.87407686731E+01  0.53035121364E+02  0.47000000000E+01 0.  1.
</event>
<event>
12    1  0.9749377E-001  0.4013923E+03  0.7818608E-02  0.1043299E+00
         21   -1    0    0  501  502  0.00000000000E+00  0.00000000000E+00  0.25184239957E+03  0.25184239957E+03  0.00000000000E+00 0. -1.
         21   -1    0    0  502  503 -0.00000000000E+00 -0.00000000000E+00 -0.67331808106E+03  0.67331808106E+03  0.00000000000E+00 0.  1.
         -6    2    1    2    0  503 -0.36021571262E+03  0.95801210829E+02 -0.17694383579E+03  0.44388208561E+03  0.16367331269E+03 0.  0.
        -24    2    3    3    0    0 -0.14231544529E+03  0.15349107141E+02 -0.21385659052E+02  0.16428683558E+03  0.77740188274E+02 0.  0.
          6    2    1    2  501    0  0.36021571262E+03 -0.95801210829E+02 -0.24453184570E+03  0.48127839502E+03  0.18138312584E+03 0.  0.
         24    2    5    5    0    0  0.82770417635E+02 -0.74563532267E+02 -0.80815805702E+02  0.15839767021E+03  0.78408960573E+02 0.  0.
         14    1    6    6    0    0  0.82147179867E+02 -0.85511147960E+02 -0.55729268259E+02  0.13101933799E+03  0.00000000000E+00 0. -1.
        -13    1    6    6    0    0  0.62323776810E+00  0.10947615693E+02 -0.25086537443E+02  0.27378332227E+02  0.00000000000E+00 0.  1.
          5    1    5    5  501    0  0.27744529498E+03 -0.21237678562E+02 -0.16371604000E+03  0.32288072480E+03  0.47000000000E+01 0. -1.
         13    1    4    4    0    0 -0.65255241322E+02 -0.31475614243E+02 -0.48479754146E+01  0.72611732369E+02  0.00000000000E+00 0. -1.
        -14    1    4    4    0    0 -0.77060203965E+02  0.46824721384E+02 -0.16537683637E+02  0.91675103206E+02  0.00000000000E+00 0.  1.
         -5    1    3    3    0  503 -0.21790026733E+03  0.80452103688E+02 -0.15555817674E+03  0.27959525003E+03  0.47000000000E+01 0.  1.
</event>
<event>
12    1  0.9749377E-001  0.1588379E+03  0.7818608E-02  0.1190015E+00
         21   -1    0    0  501  502  0.00000000000E+00  0.00000000000E+00  0.10400226667E+03  0.10400226667E+03  0.00000000000E+00 0.  1.
         21   -1    0    0  502  503 -0.00000000000E+00 -0.00000000000E+00 -0.37418550762E+03  0.37418550762E+03  0.00000000000E+00 0.  1.
         -6    2    1    2    0  503  0.74184173745E+02  0.59651120462E+02 -0.11329496230E+03  0.22702582430E+03  0.17217267091E+03 0.  0.
        -24    2    3    3    0    0 -0.12850559575E+01 -0.21993825765E+01 -0.29675063469E+01  0.79664611983E+02  0.79568559469E+02 0.  0.
          6    2    1    2  501    0 -0.74184173745E+02 -0.59651120462E+02 -0.15688827865E+03  0.25116194999E+03  0.17148424224E+03 0.  0.
         24    2    5    5    0    0 -0.14508858926E+02 -0.33630388924E+02 -0.16440872293E+03  0.18545906762E+03  0.77610099479E+02 0.  0.
         14    1    6    6    0    0  0.43285587280E+01 -0.55991973802E+02 -0.99152685524E+02  0.11395215047E+03  0.00000000000E+00 0. -1.
        -13    1    6    6    0    0 -0.18837417654E+02  0.22361584878E+02 -0.65256037407E+02  0.71506917150E+02  0.00000000000E+00 0.  1.
          5    1    5    5  501    0 -0.59675314819E+02 -0.26020731538E+02  0.75204442800E+01  0.65702882363E+02  0.47000000000E+01 0. -1.
         13    1    4    4    0    0  0.31326928933E+02  0.12264961021E+02  0.18130987403E+02  0.38216991632E+02  0.00000000000E+00 0. -1.
        -14    1    4    4    0    0 -0.32611984891E+02 -0.14464343597E+02 -0.21098493750E+02  0.41447620350E+02  0.00000000000E+00 0.  1.
         -5    1    3    3    0  503  0.75469229703E+02  0.61850503039E+02 -0.11032745596E+03  0.14736121232E+03  0.47000000000E+01 0.  1.
</event>
<event>
12    1  0.9749377E-001  0.8890231E+03  0.7818608E-02  0.9439408E-01
         21   -1    0    0  501  502  0.00000000000E+00  0.00000000000E+00  0.56137969835E+03  0.56137969835E+03  0.00000000000E+00 0. -1.
         21   -1    0    0  502  503 -0.00000000000E+00 -0.00000000000E+00 -0.17805203183E+04  0.17805203183E+04  0.00000000000E+00 0.  1.
         -6    2    1    2    0  503 -0.77484612564E+03 -0.42566653825E+03 -0.11167568767E+04  0.14339610009E+04  0.16589065723E+03 0.  0.
        -24    2    3    3    0    0 -0.25784248530E+03 -0.97804148500E+02 -0.37065452312E+03  0.46883027255E+03  0.79803823579E+02 0.  0.
          6    2    1    2  501    0  0.77484612564E+03  0.42566653825E+03 -0.10238374320E+03  0.90793901573E+03  0.17970059881E+03 0.  0.
         24    2    5    5    0    0  0.77448858821E+03  0.42790112731E+03 -0.88351769413E+02  0.89296879497E+03  0.81579933888E+02 0.  0.
         12    1    6    6    0    0  0.60441332299E+03  0.33541548296E+03 -0.10274655512E+03  0.69883894125E+03  0.00000000000E+00 0. -1.
        -11    1    6    6    0    0  0.17007526522E+03  0.92485644349E+02  0.14394785708E+02  0.19412985372E+03  0.00000000000E+00 0.  1.
          5    1    5    5  501    0  0.35753743213E+00 -0.22345890618E+01 -0.14031973789E+02  0.14970220763E+02  0.47000000000E+01 0. -1.
         13    1    4    4    0    0 -0.15970032886E+03 -0.59717530946E+02 -0.16233069567E+03  0.23541799697E+03  0.00000000000E+00 0. -1.
        -14    1    4    4    0    0 -0.98142156446E+02 -0.38086617554E+02 -0.20832382745E+03  0.23341227558E+03  0.00000000000E+00 0.  1.
         -5    1    3    3    0  503 -0.51700364034E+03 -0.32786238975E+03 -0.74610235363E+03  0.96513072836E+03  0.47000000000E+01 0.  1.
</event>
<event>
12    1  0.9749377E-001  0.6300518E+03  0.7818608E-02  0.9844948E-01
         21   -1    0    0  501  502  0.00000000000E+00  0.00000000000E+00  0.85587554950E+03  0.85587554950E+03  0.00000000000E+00 0.  1.
         21   -1    0    0  502  503 -0.00000000000E+00 -0.00000000000E+00 -0.48517985338E+03  0.48517985338E+03  0.00000000000E+00 0. -1.
         -6    2    1    2    0  503 -0.10735113769E+03  0.60280014823E+03  0.79411981357E+02  0.64171536844E+03  0.17492874503E+03 0.  0.
        -24    2    3    3    0    0 -0.13011425951E+03  0.51104311968E+03  0.28164458423E+02  0.53407750052E+03  0.79691587631E+02 0.  0.
          6    2    1    2  501    0  0.10735113769E+03 -0.60280014823E+03  0.29128371476E+03  0.69934003444E+03  0.17128337870E+03 0.  0.
         24    2    5    5    0    0  0.67379868584E+02 -0.57747144327E+03  0.28103647530E+03  0.65069497750E+03  0.80057097171E+02 0.  0.
         14    1    6    6    0    0 -0.82613314506E+01 -0.17325081683E+03  0.10947064723E+03  0.20510465069E+03  0.00000000000E+00 0. -1.
        -13    1    6    6    0    0  0.75641200035E+02 -0.40422062644E+03  0.17156582807E+03  0.44559032681E+03  0.00000000000E+00 0.  1.
          5    1    5    5  501    0  0.39971269103E+02 -0.25328704956E+02  0.10247239465E+02  0.48645056944E+02  0.47000000000E+01 0. -1.
         11    1    4    4    0    0  0.14415268206E+01  0.13160929121E+03  0.19865311598E+01  0.13163217630E+03  0.00000000000E+00 0. -1.
        -12    1    4    4    0    0 -0.13155578633E+03  0.37943382847E+03  0.26177927263E+02  0.40244532422E+03  0.00000000000E+00 0.  1.
         -5    1    3    3    0  503  0.22763121827E+02  0.91757028548E+02  0.51247522934E+02  0.10763786792E+03  0.47000000000E+01 0.  1.
</event>
<event>
12    1  0.9749377E-001  0.4011320E+03  0.7818608E-02  0.1043388E+00
         21   -1    0    0  503  502  0.00000000000E+00  0.00000000000E+00  0.13558222184E+04  0.13558222184E+04  0.00000000000E+00 0.  1.
         21   -1    0    0  501  503 -0.00000000000E+00 -0.00000000000E+00 -0.15849662575E+03  0.15849662575E+03  0.00000000000E+00 0. -1.
          6    2    1    2  501    0  0.37395255414E+03 -0.13655905517E+03  0.87027990589E+03  0.97237464194E+03  0.17215237845E+03 0.  0.
         24    2    3    3    0    0  0.16288280097E+03 -0.43935590681E+02  0.54045984420E+03  0.56996575789E+03  0.65597095894E+02 0.  0.
         -6    2    1    2    0  502 -0.37395255414E+03  0.13655905517E+03  0.32704568680E+03  0.54194420226E+03  0.16809446393E+03 0.  0.
        -24    2    5    5    0    0 -0.34466582081E+03  0.10747999037E+03  0.22789120106E+03  0.43444068231E+03  0.80360628153E+02 0.  0.
         12    1    4    4    0    0  0.95972507273E+02 -0.19714295635E+02  0.40803175588E+03  0.41962994341E+03  0.00000000000E+00 0. -1.
        -11    1    4    4    0    0  0.66910293699E+02 -0.24221295046E+02  0.13242808832E+03  0.15033581447E+03  0.00000000000E+00 0.  1.
          5    1    3    3  501    0  0.21106975317E+03 -0.92623464490E+02  0.32982006169E+03  0.40240888406E+03  0.47000000000E+01 0. -1.
         13    1    6    6    0    0 -0.19076645917E+03  0.58186920167E+02  0.17224984265E+03  0.26352906465E+03  0.00000000000E+00 0. -1.
        -14    1    6    6    0    0 -0.15389936164E+03  0.49293070204E+02  0.55641358408E+02  0.17091161766E+03  0.00000000000E+00 0.  1.
         -5    1    5    5    0  502 -0.29286733331E+02  0.29079064800E+02  0.99154485741E+02  0.10750351995E+03  0.47000000000E+01 0.  1.
</event>
<event>
12    1  0.9749377E-001  0.4536469E+03  0.7818608E-02  0.1026640E+00
         21   -1    0    0  501  502  0.00000000000E+00  0.00000000000E+00  0.93916806593E+03  0.93916806593E+03  0.00000000000E+00 0. -1.
         21   -1    0    0  502  503 -0.00000000000E+00 -0.00000000000E+00 -0.24261728950E+03  0.24261728950E+03  0.00000000000E+00 0.  1.
         -6    2    1    2    0  503  0.40155917415E+03 -0.16952136582E+03  0.46056861616E+03  0.65769675120E+03  0.17451161146E+03 0.  0.
        -24    2    3    3    0    0  0.39591726368E+03 -0.13233271927E+03  0.44716792683E+03  0.61749109164E+03  0.84105084281E+02 0.  0.
          6    2    1    2  501    0 -0.40155917415E+03  0.16952136582E+03  0.23598216027E+03  0.52408860423E+03  0.17027630870E+03 0.  0.
         24    2    5    5    0    0 -0.12569547698E+03  0.48650233217E+02  0.13491022318E+03  0.20636508199E+03  0.78864317811E+02 0.  0.
         12    1    6    6    0    0 -0.14530365211E+02  0.31672154975E+02  0.65562489193E+02  0.74247538028E+02  0.00000000000E+00 0. -1.
        -11    1    6    6    0    0 -0.11116511177E+03  0.16978078242E+02  0.69347733983E+02  0.13211754397E+03  0.00000000000E+00 0.  1.
          5    1    5    5  501    0 -0.27586369717E+03  0.12087113261E+03  0.10107193710E+03  0.31772352223E+03  0.47000000000E+01 0. -1.
         13    1    4    4    0    0  0.38602065842E+03 -0.13740614502E+03  0.41390044000E+03  0.58241391780E+03  0.00000000000E+00 0. -1.
        -14    1    4    4    0    0  0.98966052566E+01  0.50734257514E+01  0.33267486830E+02  0.35077173838E+02  0.00000000000E+00 0.  1.
         -5    1    3    3    0  503  0.56419104665E+01 -0.37188646553E+02  0.13400689335E+02  0.40205659562E+02  0.47000000000E+01 0.  1.
</event>
<event>
12    1  0.9749377E-001  0.5126877E+03  0.7818608E-02  0.1010519E+00
         21   -1    0    0  501  502  0.00000000000E+00  0.00000000000E+00  0.63524001624E+03  0.63524001624E+03  0.00000000000E+00 0. -1.
         21   -1    0    0  502  503 -0.00000000000E+00 -0.00000000000E+00 -0.48305625859E+03  0.48305625859E+03  0.00000000000E+00 0.  1.
         -6    2    1    2    0  503 -0.18149577503E+03 -0.45593587380E+03 -0.11672469997E+03  0.53287572422E+03  0.17179535651E+03 0.  0.
        -24    2    3    3    0    0 -0.13439176761E+03 -0.20828874503E+03 -0.10402874995E+03  0.28042540228E+03  0.79819026067E+02 0.  0.
          6    2    1    2  501    0  0.18149577503E+03  0.45593587380E+03  0.26890845762E+03  0.58542055060E+03  0.17200937510E+03 0.  0.
         24    2    5    5    0    0  0.14387858021E+03  0.45228000709E+03  0.25643793224E+03  0.54534533744E+03  0.79892886474E+02 0.  0.
         14    1    6    6    0    0  0.13615715432E+02  0.12701392475E+03  0.41601197466E+02  0.13434502007E+03  0.00000000000E+00 0. -1.
        -13    1    6    6    0    0  0.13026286478E+03  0.32526608234E+03  0.21483673478E+03  0.41100031736E+03  0.00000000000E+00 0.  1.
          5    1    5    5  501    0  0.37617194818E+02  0.36558667037E+01  0.12470525376E+02  0.40075213169E+02  0.47000000000E+01 0. -1.
         11    1    4    4    0    0 -0.71923179572E+02 -0.16788032756E+03 -0.52876570392E+02  0.19013858061E+03  0.00000000000E+00 0. -1.
        -12    1    4    4    0    0 -0.62468588041E+02 -0.40408417473E+02 -0.51152179556E+02  0.90286821673E+02  0.00000000000E+00 0.  1.
         -5    1    3    3    0  503 -0.47104007417E+02 -0.24764712877E+03 -0.12695950022E+02  0.25245032194E+03  0.47000000000E+01 0.  1.
</event>
<event>
12    1  0.9749377E-001  0.6427412E+03  0.7818608E-02  0.9820496E-01
         21   -1    0    0  503  502  0.00000000000E+00  0.00000000000E+00  0.10247583439E+04  0.10247583439E+04  0.00000000000E+00 0.  1.
         21   -1    0    0  501  503 -0.00000000000E+00 -0.00000000000E+00 -0.57764936299E+03  0.57764936299E+03  0.00000000000E+00 0. -1.
          6    2    1    2  501    0 -0.15395481631E+03  0.61070750650E+03  0.64829216505E+03  0.92020596505E+03  0.17271520742E+03 0.  0.
         24    2    3    3    0    0 -0.27325956695E+02  0.16899226763E+03  0.24124313700E+03  0.30631817271E+03  0.79545442081E+02 0.  0.
         -6    2    1    2    0  502  0.15395481631E+03 -0.61070750650E+03 -0.20118318411E+03  0.68220174189E+03  0.16810353685E+03 0.  0.
        -24    2    5    5    0    0  0.11403749025E+03 -0.32658718543E+03 -0.17022147536E+03  0.39358700357E+03  0.79193685575E+02 0.  0.
         14    1    4    4    0    0  0.22968239620E+02  0.63389607866E+02  0.12133315418E+03  0.13880748078E+03  0.00000000000E+00 0. -1.
        -13    1    4    4    0    0 -0.50294196315E+02  0.10560265976E+03  0.11990998282E+03  0.16751069193E+03  0.00000000000E+00 0.  1.
          5    1    3    3  501    0 -0.12662885961E+03  0.44171523887E+03  0.40704902805E+03  0.61388779233E+03  0.47000000000E+01 0. -1.
         13    1    6    6    0    0  0.48062136736E+02 -0.46556787472E+02 -0.26276620472E+02  0.71888554240E+02  0.00000000000E+00 0. -1.
        -14    1    6    6    0    0  0.65975353518E+02 -0.28003039796E+03 -0.14394485489E+03  0.32169844933E+03  0.00000000000E+00 0.  1.
         -5    1    5    5    0  502  0.39917326054E+02 -0.28412032107E+03 -0.30961708751E+02  0.28861473832E+03  0.47000000000E+01 0.  1.
</event>
<event>
12    1  0.9749377E-001  0.3339818E+03  0.7818608E-02  0.1069388E+00
         21   -1    0    0  501  502  0.00000000000E+00  0.00000000000E+00  0.26804579518E+03  0.26804579518E+03  0.00000000000E+00 0. -1.
         21   -1    0    0  502  503 -0.00000000000E+00 -0.00000000000E+00 -0.45423615965E+03  0.45423615965E+03  0.00000000000E+00 0.  1.
         -6    2    1    2    0  503  0.26064105789E+03 -0.15513590655E+03 -0.78954447406E+02  0.35784777872E+03  0.17268560279E+03 0.  0.
        -24    2    3    3    0    0  0.74130375644E+02 -0.33254949233E+02 -0.71711472606E+02  0.13487748242E+03  0.80300658271E+02 0.  0.
          6    2    1    2  501    0 -0.26064105789E+03  0.15513590655E+03 -0.10723591707E+03  0.36443417611E+03  0.17120693983E+03 0.  0.
         24    2    5    5    0    0 -0.18149919582E+03  0.31965429975E+02 -0.48081717875E+02  0.20646041273E+03  0.79688792412E+02 0.  0.
         14    1    6    6    0    0 -0.17268079035E+03  0.31782336229E+02 -0.65125046727E+02  0.18726997614E+03  0.00000000000E+00 0. -1.
        -13    1    6    6    0    0 -0.88184054686E+01  0.18309374619E+00  0.17043328852E+02  0.19190436594E+02  0.00000000000E+00 0.  1.
          5    1    5    5  501    0 -0.79141862070E+02  0.12317047658E+03 -0.59154199192E+02  0.15797376337E+03  0.47000000000E+01 0. -1.
         11    1    4    4    0    0  0.55588323883E+01 -0.44409691083E+02 -0.27493150517E+02  0.52526132591E+02  0.00000000000E+00 0. -1.
        -12    1    4    4    0    0  0.68571543256E+02  0.11154741849E+02 -0.44218322089E+02  0.82351349828E+02  0.00000000000E+00 0.  1.
         -5    1    3    3    0  503  0.18651068225E+03 -0.12188095732E+03 -0.72429748001E+01  0.22297029630E+03  0.47000000000E+01 0.  1.
</event>
<event>
12    1  0.9749377E-001  0.1448822E+03  0.7818608E-02  0.1206907E+00
         21   -1    0    0  503  502  0.00000000000E+00  0.00000000000E+00  0.30555491733E+02  0.30555491733E+02  0.00000000000E+00 0. -1.
         21   -1    0    0  501  503 -0.00000000000E+00 -0.00000000000E+00 -0.14891681366E+04  0.14891681366E+04  0.00000000000E+00 0. -1.
          6    2    1    2  501    0  0.83979422068E+02  0.58767943534E+02 -0.46398578724E+03  0.50508039231E+03  0.17122259611E+03 0.  0.
         24    2    3    3    0    0  0.10983314240E+03  0.51646442739E+02 -0.24925480581E+03  0.28863036340E+03  0.80304758524E+02 0.  0.
         -6    2    1    2    0  502 -0.83979422068E+02 -0.58767943534E+02 -0.99462685758E+03  0.10146432360E+04  0.17237196980E+03 0.  0.
        -24    2    5    5    0    0 -0.75196457037E+02 -0.68227217999E+01 -0.30373485503E+03  0.32172960808E+03  0.74525310274E+02 0.  0.
         14    1    4    4    0    0  0.83189027900E+02  0.47297764908E+02 -0.24264912986E+03  0.26083729248E+03  0.00000000000E+00 0. -1.
        -13    1    4    4    0    0  0.26644114498E+02  0.43486778312E+01 -0.66056759473E+01  0.27793070916E+02  0.00000000000E+00 0.  1.
          5    1    3    3  501    0 -0.25853720330E+02  0.71215007954E+01 -0.21473098143E+03  0.21645002891E+03  0.47000000000E+01 0. -1.
         13    1    6    6    0    0 -0.10396909200E+02  0.15287571600E+02 -0.17451335430E+03  0.17548993246E+03  0.00000000000E+00 0. -1.
        -14    1    6    6    0    0 -0.64799547837E+02 -0.22110293400E+02 -0.12922150073E+03  0.14623967562E+03  0.00000000000E+00 0.  1.
         -5    1    5    5    0  502 -0.87829650309E+01 -0.51945221734E+02 -0.69089200255E+03  0.69291362790E+03  0.47000000000E+01 0.  1.
</event>
<event>
12    1  0.9749377E-001  0.2034083E+03  0.7818608E-02  0.1146895E+00
         21   -1    0    0  501  502  0.00000000000E+00  0.00000000000E+00  0.67739980581E+02  0.67739980581E+02  0.00000000000E+00 0. -1.
         21   -1    0    0  502  503 -0.00000000000E+00 -0.00000000000E+00 -0.17660400269E+04  0.17660400269E+04  0.00000000000E+00 0.  1.
         -6    2    1    2    0  503 -0.99988134950E+02 -0.12341510518E+03 -0.17676014138E+03  0.29425202534E+03  0.17352576616E+03 0.  0.
        -24    2    3    3    0    0 -0.28752987321E+02 -0.46291911223E+01 -0.11582939466E+03  0.14286118833E+03  0.78388180058E+02 0.  0.
          6    2    1    2  501    0  0.99988134950E+02  0.12341510518E+03 -0.15215399049E+04  0.15395279821E+04  0.17272466572E+03 0.  0.
         24    2    5    5    0    0  0.36246553406E+02 -0.72063422829E+01 -0.53308919305E+03  0.54043746993E+03  0.80764021397E+02 0.  0.
         14    1    6    6    0    0  0.25775509630E+02 -0.20992545507E+02 -0.51232854217E+03  0.51340588133E+03  0.00000000000E+00 0. -1.
        -13    1    6    6    0    0  0.10471043776E+02  0.13786203224E+02 -0.20760650880E+02  0.27031588597E+02  0.00000000000E+00 0.  1.
          5    1    5    5  501    0  0.63741581545E+02  0.13062144746E+03 -0.98845071186E+03  0.99909051218E+03  0.47000000000E+01 0. -1.
         11    1    4    4    0    0  0.21005111892E+02 -0.77718653619E+01 -0.75166915848E+01  0.23624505692E+02  0.00000000000E+00 0. -1.
        -12    1    4    4    0    0 -0.49758099212E+02  0.31426742396E+01 -0.10831270308E+03  0.11923668264E+03  0.00000000000E+00 0.  1.
         -5    1    3    3    0  503 -0.71235147630E+02 -0.11878591406E+03 -0.60930746720E+02  0.15139083702E+03  0.47000000000E+01 0.  1.
</event>
<event>
12    1  0.9749377E-001  0.2266396E+03  0.7818608E-02  0.1129028E+00
         21   -1    0    0  503  502  0.00000000000E+00  0.00000000000E+00  0.91763288529E+02  0.91763288529E+02  0.00000000000E+00 0. -1.
         21   -1    0    0  501  503 -0.00000000000E+00 -0.00000000000E+00 -0.82705335643E+03  0.82705335643E+03  0.00000000000E+00 0.  1.
          6    2    1    2  501    0 -0.12981803900E+03  0.14163707511E+03 -0.20443602397E+03  0.32902122704E+03  0.17189268644E+03 0.  0.
         24    2    3    3    0    0 -0.28626809351E+02  0.10624991538E+02 -0.10837060440E+03  0.13756761429E+03  0.79046036865E+02 0.  0.
         -6    2    1    2    0  502  0.12981803900E+03 -0.14163707511E+03 -0.53085404392E+03  0.58979541791E+03  0.17070100980E+03 0.  0.
        -24    2    5    5    0    0  0.82333341100E+02 -0.88246158215E+02 -0.48254152115E+03  0.50341500116E+03  0.77551146119E+02 0.  0.
         14    1    4    4    0    0 -0.45911666158E+02 -0.15185832007E+02 -0.41073527427E+02  0.63447027026E+02  0.00000000000E+00 0. -1.
        -13    1    4    4    0    0  0.17284856806E+02  0.25810823545E+02 -0.67297076975E+02  0.74120587264E+02  0.00000000000E+00 0.  1.
          5    1    3    3  501    0 -0.10119122965E+03  0.13101208357E+03 -0.96065419571E+02  0.19145361275E+03  0.47000000000E+01 0. -1.
         13    1    6    6    0    0  0.23513722477E+01 -0.46243343021E+02 -0.97768214042E+02  0.10817855334E+03  0.00000000000E+00 0. -1.
        -14    1    6    6    0    0  0.79981968852E+02 -0.42002815193E+02 -0.38477330711E+03  0.39523644783E+03  0.00000000000E+00 0.  1.
         -5    1    5    5    0  502  0.47484697898E+02 -0.53390916894E+02 -0.48312522771E+02  0.86380416749E+02  0.47000000000E+01 0.  1.
</event>
<event>
12    1  0.9749377E-001  0.1239060E+04  0.7818608E-02  0.9079338E-01
         21   -1    0    0  501  502  0.00000000000E+00  0.00000000000E+00  0.96419409387E+03  0.96419409387E+03  0.00000000000E+00 0.  1.
         21   -1    0    0  502  503 -0.00000000000E+00 -0.00000000000E+00 -0.22197830404E+04  0.22197830404E+04  0.00000000000E+00 0. -1.
         -6    2    1    2    0  503 -0.12240101800E+04 -0.15683457885E+03  0.20678520224E+03  0.12628042531E+04  0.17063544771E+03 0.  0.
        -24    2    3    3    0    0 -0.84308030914E+03 -0.10796018272E+03  0.76651876346E+02  0.85727614607E+03  0.81283896133E+02 0.  0.
          6    2    1    2  501    0  0.12240101800E+04  0.15683457885E+03 -0.14623741487E+04  0.19211728811E+04  0.17195662933E+03 0.  0.
         24    2    5    5    0    0  0.11485214098E+04  0.18268261613E+03 -0.13607974728E+04  0.17919189197E+04  0.82032223193E+02 0.  0.
         12    1    6    6    0    0  0.70184172145E+03  0.13173166641E+03 -0.88776787170E+03  0.11393273577E+04  0.00000000000E+00 0. -1.
        -11    1    6    6    0    0  0.44667968839E+03  0.50950949713E+02 -0.47302960107E+03  0.65259156199E+03  0.00000000000E+00 0.  1.
          5    1    5    5  501    0  0.75488770153E+02 -0.25848037273E+02 -0.10157667598E+03  0.12925396146E+03  0.47000000000E+01 0. -1.
         11    1    4    4    0    0 -0.30725427695E+02  0.13785199281E+01  0.17683806742E+02  0.35477728861E+02  0.00000000000E+00 0. -1.
        -12    1    4    4    0    0 -0.81235488144E+03 -0.10933870265E+03  0.58968069604E+02  0.82179841721E+03  0.00000000000E+00 0.  1.
         -5    1    3    3    0  503 -0.38092987085E+03 -0.48874396136E+02  0.13013332589E+03  0.40552810705E+03  0.47000000000E+01 0.  1.
</event>
<event>
12    1  0.9749377E-001  0.4432720E+03  0.7818608E-02  0.1029748E+00
         21   -1    0    0  501  502  0.00000000000E+00  0.00000000000E+00  0.84001826001E+03  0.84001826001E+03  0.00000000000E+00 0.  1.
         21   -1    0    0  502  503 -0.00000000000E+00 -0.00000000000E+00 -0.32014115318E+03  0.32014115318E+03  0.00000000000E+00 0. -1.
         -6    2    1    2    0  503 -0.40149754961E+03  0.17805860195E+03  0.50221235788E+03  0.68903358022E+03  0.17217686893E+03 0.  0.
        -24    2    3    3    0    0 -0.22857262576E+03  0.87811984301E+02  0.38027079204E+03  0.45894812487E+03  0.77917367821E+02 0.  0.
          6    2    1    2  501    0  0.40149754961E+03 -0.17805860195E+03  0.17664748949E+02  0.47112583297E+03  0.16953571619E+03 0.  0.
         24    2    5    5    0    0  0.25674540556E+03 -0.12553776913E+03  0.76344983144E+02  0.30627110610E+03  0.79344182036E+02 0.  0.
         14    1    6    6    0    0  0.17291548537E+03 -0.85419909192E+02  0.12002981273E+02  0.19323663609E+03  0.00000000000E+00 0. -1.
        -13    1    6    6    0    0  0.83829920193E+02 -0.40117859940E+02  0.64342001871E+02  0.11303447001E+03  0.00000000000E+00 0.  1.
          5    1    5    5  501    0  0.14475214404E+03 -0.52520832823E+02 -0.58680234195E+02  0.16485472687E+03  0.47000000000E+01 0. -1.
         13    1    4    4    0    0 -0.75775083398E+02  0.88506629632E+00  0.74636314431E+02  0.10636364999E+03  0.00000000000E+00 0. -1.
        -14    1    4    4    0    0 -0.15279754236E+03  0.86926918004E+02  0.30563447761E+03  0.35258447488E+03  0.00000000000E+00 0.  1.
         -5    1    3    3    0  503 -0.17292492385E+03  0.90246617654E+02  0.12194156584E+03  0.23008545535E+03  0.47000000000E+01 0.  1.
</event>
<event>
12    1  0.9749377E-001  0.5032844E+03  0.7818608E-02  0.1012925E+00
         21   -1    0    0  501  502  0.00000000000E+00  0.00000000000E+00  0.23365029210E+04  0.23365029210E+04  0.00000000000E+00 0.  1.
         21   -1    0    0  502  503 -0.00000000000E+00 -0.00000000000E+00 -0.20540635465E+03  0.20540635465E+03  0.00000000000E+00 0. -1.
         -6    2    1    2    0  503 -0.17202455180E+03  0.45139443096E+03  0.21000240094E+03  0.55351235487E+03  0.17007510066E+03 0.  0.
        -24    2    3    3    0    0 -0.99560706271E+02  0.19391205607E+03  0.42928795842E+02  0.23810173075E+03  0.85646558299E+02 0.  0.
          6    2    1    2  501    0  0.17202455180E+03 -0.45139443096E+03  0.19210941654E+04  0.19883969208E+04  0.17254026615E+03 0.  0.
         24    2    5    5    0    0  0.56673858062E+02 -0.33812131872E+03  0.12860351430E+04  0.13330659872E+04  0.75103827732E+02 0.  0.
         14    1    6    6    0    0  0.51348392187E+02 -0.32976019209E+03  0.11716975426E+04  0.12182994595E+04  0.00000000000E+00 0. -1.
        -13    1    6    6    0    0  0.53254658751E+01 -0.83611266295E+01  0.11433760040E+03  0.11476652774E+03  0.00000000000E+00 0.  1.
          5    1    5    5  501    0  0.11535069374E+03 -0.11327311224E+03  0.63505902243E+03  0.65533093356E+03  0.47000000000E+01 0. -1.
         13    1    4    4    0    0 -0.10699329645E+03  0.12581420718E+03  0.22937862989E+02  0.16674209358E+03  0.00000000000E+00 0. -1.
        -14    1    4    4    0    0  0.74325901742E+01  0.68097848887E+02  0.19990932853E+02  0.71359637163E+02  0.00000000000E+00 0.  1.
         -5    1    3    3    0  503 -0.72463845531E+02  0.25748237489E+03  0.16707360510E+03  0.31541062412E+03  0.47000000000E+01 0.  1.
</event>
<event>
12    1  0.9749377E-001  0.4852787E+03  0.7818608E-02  0.1017694E+00
         21   -1    0    0  501  502  0.00000000000E+00  0.00000000000E+00  0.12206409443E+04  0.12206409443E+04  0.00000000000E+00 0. -1.
         21   -1    0    0  502  503 -0.00000000000E+00 -0.00000000000E+00 -0.34030870619E+03  0.34030870619E+03  0.00000000000E+00 0.  1.
         -6    2    1    2    0  503 -0.43615803805E+03 -0.14863639215E+03  0.94384870098E+03  0.10646866217E+04  0.17430037548E+03 0.  0.
        -24    2    3    3    0    0 -0.23683342818E+03 -0.14985513961E+03  0.60612683287E+03  0.67250052348E+03  0.79502081689E+02 0.  0.
          6    2    1    2  501    0  0.43615803805E+03  0.14863639215E+03 -0.63516462887E+02  0.49626302875E+03  0.17296254340E+03 0.  0.
         24    2    5    5    0    0  0.19367633926E+03  0.10769028159E+03  0.19279030716E+02  0.23674204313E+03  0.81039452248E+02 0.  0.
         12    1    6    6    0    0  0.14452388850E+03  0.38231290360E+02  0.43421248916E-02  0.14949510336E+03  0.00000000000E+00 0. -1.
        -11    1    6    6    0    0  0.49152450758E+02  0.69458991228E+02  0.19274688592E+02  0.87246939764E+02  0.00000000000E+00 0.  1.
          5    1    5    5  501    0  0.24248169879E+03  0.40946110559E+02 -0.82795493603E+02  0.25952098563E+03  0.47000000000E+01 0. -1.
         11    1    4    4    0    0 -0.13749848059E+03 -0.41487713833E+02  0.32271054430E+03  0.35322677980E+03  0.00000000000E+00 0. -1.
        -12    1    4    4    0    0 -0.99334947587E+02 -0.10836742577E+03  0.28341628857E+03  0.31927374368E+03  0.00000000000E+00 0.  1.
         -5    1    3    3    0  503 -0.19932460987E+03  0.12187474600E+01  0.33772186812E+03  0.39218609824E+03  0.47000000000E+01 0.  1.
</event>
<event>
12    1  0.9749377E-001  0.6928445E+03  0.7818608E-02  0.9729548E-01
         21   -1    0    0  503  502  0.00000000000E+00  0.00000000000E+00  0.45467269032E+03  0.45467269032E+03  0.00000000000E+00 0. -1.
         21   -1    0    0  501  503 -0.00000000000E+00 -0.00000000000E+00 -0.10779705717E+04  0.10779705717E+04  0.00000000000E+00 0.  1.
          6    2    1    2  501    0 -0.63686492751E+03 -0.23648758951E+03 -0.31884275352E+03  0.76989257782E+03  0.17190277491E+03 0.  0.
         24    2    3    3    0    0 -0.20696649583E+03 -0.12892964999E+03 -0.97451932281E+02  0.27449641549E+03  0.79958851737E+02 0.  0.
         -6    2    1    2    0  502  0.63686492751E+03  0.23648758951E+03 -0.30445512787E+03  0.76275068422E+03  0.16604928635E+03 0.  0.
        -24    2    5    5    0    0  0.29204909449E+03  0.48193796745E+02 -0.13895069136E+03  0.33641006968E+03  0.79051405529E+02 0.  0.
         12    1    4    4    0    0 -0.11309589141E+03 -0.33475570186E+02 -0.19409346852E+02  0.11953249432E+03  0.00000000000E+00 0. -1.
        -11    1    4    4    0    0 -0.93870604420E+02 -0.95454079806E+02 -0.78042585429E+02  0.15496392118E+03  0.00000000000E+00 0.  1.
          5    1    3    3  501    0 -0.42989843169E+03 -0.10755793952E+03 -0.22139082124E+03  0.49539616233E+03  0.47000000000E+01 0. -1.
         13    1    6    6    0    0  0.40307718768E+02  0.18328154871E+02 -0.52246590270E+02  0.68486054406E+02  0.00000000000E+00 0. -1.
        -14    1    6    6    0    0  0.25174137572E+03  0.29865641875E+02 -0.86704101086E+02  0.26792401527E+03  0.00000000000E+00 0.  1.
         -5    1    5    5    0  502  0.34481583302E+03  0.18829379276E+03 -0.16550443652E+03  0.42634061454E+03  0.47000000000E+01 0.  1.
</event>
<event>
12    1  0.9749377E-001  0.8456986E+03  0.7818608E-02  0.9496128E-01
         21   -1    0    0  503  502  0.00000000000E+00  0.00000000000E+00  0.72797557321E+03  0.72797557321E+03  0.00000000000E+00 0.  1.
         21   -1    0    0  501  503 -0.00000000000E+00 -0.00000000000E+00 -0.11916782749E+04  0.11916782749E+04  0.00000000000E+00 0. -1.
          6    2    1    2  501    0  0.30081412087E+03  0.78231117991E+03 -0.61036523824E+03  0.10510315267E+04  0.17210935063E+03 0.  0.
         24    2    3    3    0    0  0.28733975558E+03  0.62477661523E+03 -0.44938687056E+03  0.82534408256E+03  0.79588573992E+02 0.  0.
         -6    2    1    2    0  502 -0.30081412087E+03 -0.78231117991E+03  0.14666253656E+03  0.86862232138E+03  0.17462794748E+03 0.  0.
        -24    2    5    5    0    0 -0.27875237934E+03 -0.66985966852E+03  0.17442564773E+03  0.75061832486E+03  0.81170798499E+02 0.  0.
         12    1    4    4    0    0  0.20407451345E+03  0.51832756758E+03 -0.35683945518E+03  0.66154687749E+03  0.00000000000E+00 0. -1.
        -11    1    4    4    0    0  0.83265242138E+02  0.10644904765E+03 -0.92547415378E+02  0.16379720507E+03  0.00000000000E+00 0.  1.
          5    1    3    3  501    0  0.13474365289E+02  0.15753456468E+03 -0.16097836768E+03  0.22568744416E+03  0.47000000000E+01 0. -1.
         11    1    6    6    0    0 -0.17975053821E+03 -0.38885510610E+03  0.65358185262E+02  0.43334771478E+03  0.00000000000E+00 0. -1.
        -12    1    6    6    0    0 -0.99001841126E+02 -0.28100456243E+03  0.10906746247E+03  0.31727061008E+03  0.00000000000E+00 0.  1.
         -5    1    5    5    0  502 -0.22061741533E+02 -0.11245151139E+03 -0.27763111173E+02  0.11800399652E+03  0.47000000000E+01 0.  1.
</event>
<event>
12    1  0.9749377E-001  0.5417277E+03  0.7818608E-02  0.1003427E+00
         21   -1    0    0  501  502  0.00000000000E+00  0.00000000000E+00  0.57311199826E+03  0.57311199826E+03  0.00000000000E+00 0. -1.
         21   -1    0    0  502  503 -0.00000000000E+00 -0.00000000000E+00 -0.80842768880E+03  0.80842768880E+03  0.00000000000E+00 0.  1.
         -6    2    1    2    0  503  0.25577358443E+03  0.46056962428E+03  0.28136875619E+03  0.62383460178E+03  0.18015750919E+03 0.  0.
        -24    2    3    3    0    0  0.16126660228E+03  0.15465831081E+03  0.11357007280E+03  0.26232140765E+03  0.77383779708E+02 0.  0.
          6    2    1    2  501    0 -0.25577358443E+03 -0.46056962428E+03 -0.51668444673E+03  0.75770508528E+03  0.17207461595E+03 0.  0.
         24    2    5    5    0    0 -0.45270044952E+02 -0.13078838942E+03 -0.11205795749E+03  0.19484445528E+03  0.79072094572E+02 0.  0.
         14    1    6    6    0    0 -0.34725056935E+02 -0.10552071466E+03 -0.12265703965E+03  0.16548474304E+03  0.00000000000E+00 0. -1.
        -13    1    6    6    0    0 -0.10544988017E+02 -0.25267674757E+02  0.10599082169E+02  0.29359712238E+02  0.00000000000E+00 0.  1.
          5    1    5    5  501    0 -0.21050353948E+03 -0.32978123486E+03 -0.40462648925E+03  0.56286063000E+03  0.47000000000E+01 0. -1.
         13    1    4    4    0    0  0.64236555759E+02  0.19503777768E+02  0.52002292493E+02  0.84917435592E+02  0.00000000000E+00 0. -1.
        -14    1    4    4    0    0  0.97030046522E+02  0.13515453304E+03  0.61567780305E+02  0.17740397206E+03  0.00000000000E+00 0.  1.
         -5    1    3    3    0  503  0.94506982152E+02  0.30591131347E+03  0.16779868340E+03  0.36151319413E+03  0.47000000000E+01 0.  1.
</event>
<event>
12    1  0.9749377E-001  0.3535969E+03  0.7818608E-02  0.1061148E+00
         21   -1    0    0  501  502  0.00000000000E+00  0.00000000000E+00  0.98775209187E+03  0.98775209187E+03  0.00000000000E+00 0. -1.
         21   -1    0    0  502  503 -0.00000000000E+00 -0.00000000000E+00 -0.75561247347E+03  0.75561247347E+03  0.00000000000E+00 0.  1.
         -6    2    1    2    0  503  0.26330496437E+03 -0.18811283760E+03  0.90584112107E+03  0.97676036168E+03  0.16969597399E+03 0.  0.
        -24    2    3    3    0    0  0.10508197625E+03 -0.57277968894E+02  0.25035964127E+03  0.28986128815E+03  0.83765320641E+02 0.  0.
          6    2    1    2  501    0 -0.26330496437E+03  0.18811283760E+03 -0.67370150268E+03  0.76660420366E+03  0.17056478658E+03 0.  0.
         24    2    5    5    0    0 -0.22079053254E+03  0.20641889695E+03 -0.52258167193E+03  0.60848436945E+03  0.76186637653E+02 0.  0.
         12    1    6    6    0    0 -0.82933005139E+02  0.12967851462E+03 -0.25782591275E+03  0.30028087149E+03  0.00000000000E+00 0. -1.
        -11    1    6    6    0    0 -0.13785752740E+03  0.76740382332E+02 -0.26475575918E+03  0.30820349797E+03  0.00000000000E+00 0.  1.
          5    1    5    5  501    0 -0.42514431829E+02 -0.18306059347E+02 -0.15111983075E+03  0.15811983421E+03  0.47000000000E+01 0. -1.
         11    1    4    4    0    0  0.10595018943E+03 -0.72479817327E+02  0.23732162387E+03  0.26981534374E+03  0.00000000000E+00 0. -1.
        -12    1    4    4    0    0 -0.86821317952E+00  0.15201848433E+02  0.13038017395E+02  0.20045944416E+02  0.00000000000E+00 0.  1.
         -5    1    3    3    0  503  0.15822298812E+03 -0.13083486871E+03  0.65548147981E+03  0.68689907352E+03  0.47000000000E+01 0.  1.
</event>
<event>
12    1  0.9749377E-001  0.2512882E+03  0.7818608E-02  0.1112493E+00
         21   -1    0    0  501  502  0.00000000000E+00  0.00000000000E+00  0.22909560388E+03  0.22909560388E+03  0.00000000000E+00 0.  1.
         21   -1    0    0  502  503 -0.00000000000E+00 -0.00000000000E+00 -0.35960873853E+03  0.35960873853E+03  0.00000000000E+00 0. -1.
         -6    2    1    2    0  503  0.17070639217E+02 -0.22695649157E+03 -0.32584832040E+02  0.28710095478E+03  0.17194339524E+03 0.  0.
        -24    2    3    3    0    0  0.13252072349E+02 -0.84197771906E+02  0.44399656400E+02  0.12479465498E+03  0.79608380265E+02 0.  0.
          6    2    1    2  501    0 -0.17070639217E+02  0.22695649157E+03 -0.97928302614E+02  0.30160338763E+03  0.17197091378E+03 0.  0.
         24    2    5    5    0    0 -0.61028981304E+02  0.17416945216E+03 -0.11580641120E+03  0.23046602659E+03  0.75126093429E+02 0.  0.
         14    1    6    6    0    0 -0.65531065861E+02  0.13337225444E+03 -0.57888643064E+02  0.15947907024E+03  0.00000000000E+00 0. -1.
        -13    1    6    6    0    0  0.45020845569E+01  0.40797197719E+02 -0.57917768134E+02  0.70986956356E+02  0.00000000000E+00 0.  1.
          5    1    5    5  501    0  0.43958342087E+02  0.52787039414E+02  0.17878108584E+02  0.71137361039E+02  0.47000000000E+01 0. -1.
         13    1    4    4    0    0  0.33443761332E+02 -0.66075111364E+02  0.15445086131E+01  0.74072876417E+02  0.00000000000E+00 0. -1.
        -14    1    4    4    0    0 -0.20191688983E+02 -0.18122660543E+02  0.42855147786E+02  0.50721778566E+02  0.00000000000E+00 0.  1.
         -5    1    3    3    0  503  0.38185668685E+01 -0.14275871967E+03 -0.76984488440E+02  0.16230629980E+03  0.47000000000E+01 0.  1.
</event>
<event>
12    1  0.9749377E-001  0.3461963E+03  0.7818608E-02  0.1064187E+00
         21   -1    0    0  501  502  0.00000000000E+00  0.00000000000E+00  0.11280464836E+03  0.11280464836E+03  0.00000000000E+00 0.  1.
         21   -1    0    0  502  503 -0.00000000000E+00 -0.00000000000E+00 -0.14133512269E+04  0.14133512269E+04  0.00000000000E+00 0. -1.
         -6    2    1    2    0  503 -0.26597971400E+03 -0.17697989290E+03 -0.33258665226E+03  0.49265132479E+03  0.17327537566E+03 0.  0.
        -24    2    3    3    0    0 -0.66757294153E+02 -0.87906527677E+02 -0.76590166792E+02  0.15622907890E+03  0.79733164454E+02 0.  0.
          6    2    1    2  501    0  0.26597971400E+03  0.17697989290E+03 -0.96795992628E+03  0.10335045505E+04  0.17064040027E+03 0.  0.
         24    2    5    5    0    0  0.25035473129E+03  0.13855890966E+03 -0.67526039890E+03  0.73784357001E+03  0.80996694705E+02 0.  0.
         12    1    6    6    0    0  0.61989896148E+02 -0.80144088590E+00 -0.11715952532E+03  0.13255091061E+03  0.00000000000E+00 0. -1.
        -11    1    6    6    0    0  0.18836483515E+03  0.13936035054E+03 -0.55810087359E+03  0.60529265940E+03  0.00000000000E+00 0.  1.
          5    1    5    5  501    0  0.15624982704E+02  0.38420983244E+02 -0.29269952738E+03  0.29566098046E+03  0.47000000000E+01 0.  1.
         13    1    4    4    0    0 -0.81130077472E+02 -0.49459304395E+02 -0.56261174500E+02  0.11042477991E+03  0.00000000000E+00 0. -1.
        -14    1    4    4    0    0  0.14372783319E+02 -0.38447223281E+02 -0.20328992293E+02  0.45804298991E+02  0.00000000000E+00 0.  1.
         -5    1    3    3    0  503 -0.19922241985E+03 -0.89073365223E+02 -0.25599648547E+03  0.33642224589E+03  0.47000000000E+01 0.  1.
</event>
<event>
12    1  0.9749377E-001  0.8822843E+03  0.7818608E-02  0.9448002E-01
         21   -1    0    0  501  502  0.00000000000E+00  0.00000000000E+00  0.76016054903E+03  0.76016054903E+03  0.00000000000E+00 0.  1.
         21   -1    0    0  502  503 -0.00000000000E+00 -0.00000000000E+00 -0.10488478656E+04  0.10488478656E+04  0.00000000000E+00 0. -1.
         -6    2    1    2    0  503  0.64650134727E+03 -0.59137528414E+03 -0.13078817485E+03  0.90232698551E+03  0.17146347540E+03 0.  0.
        -24    2    3    3    0    0  0.49588313183E+03 -0.49268995103E+03 -0.15462391200E+03  0.72062702910E+03  0.82166249966E+02 0.  0.
          6    2    1    2  501    0 -0.64650134727E+03  0.59137528414E+03 -0.15789914169E+03  0.90668142908E+03  0.17161106079E+03 0.  0.
         24    2    5    5    0    0 -0.20751966558E+03  0.25712107202E+03 -0.46716541498E+02  0.34381869647E+03  0.82784077660E+02 0.  0.
         12    1    6    6    0    0 -0.17010085807E+03  0.19259709716E+03 -0.68835343091E+02  0.26601926285E+03  0.00000000000E+00 0. -1.
        -11    1    6    6    0    0 -0.37418807507E+02  0.64523974861E+02  0.22118801592E+02  0.77799433616E+02  0.00000000000E+00 0.  1.
          5    1    5    5  501    0 -0.43898168169E+03  0.33425421212E+03 -0.11118260019E+03  0.56286273261E+03  0.47000000000E+01 0. -1.
         11    1    4    4    0    0  0.32491936208E+02 -0.15654705030E+02  0.57235662643E+01  0.36517871226E+02  0.00000000000E+00 0. -1.
        -12    1    4    4    0    0  0.46339119562E+03 -0.47703524600E+03 -0.16034747827E+03  0.68410915787E+03  0.00000000000E+00 0.  1.
         -5    1    3    3    0  503  0.15061821544E+03 -0.98685333109E+02  0.23835737158E+02  0.18169995641E+03  0.47000000000E+01 0.  1.
</event>
<event>
12    1  0.9749377E-001  0.3528433E+03  0.7818608E-02  0.1061454E+00
         21   -1    0    0  501  502  0.00000000000E+00  0.00000000000E+00  0.16208380617E+03  0.16208380617E+03  0.00000000000E+00 0. -1.
         21   -1    0    0  502  503 -0.00000000000E+00 -0.00000000000E+00 -0.93097337889E+03  0.93097337889E+03  0.00000000000E+00 0.  1.
         -6    2    1    2    0  503 -0.31449342170E+03  0.90300263785E+02 -0.21614762670E+03  0.42824039341E+03  0.17207494903E+03 0.  0.
        -24    2    3    3    0    0 -0.22574527071E+03  0.11023569960E+03 -0.98445758666E+02  0.27941339436E+03  0.72577137146E+02 0.  0.
          6    2    1    2  501    0  0.31449342170E+03 -0.90300263785E+02 -0.55274194602E+03  0.66481679165E+03  0.17145686817E+03 0.  0.
         24    2    5    5    0    0  0.17863715433E+03  0.37606989646E+01 -0.31597448393E+03  0.37605164278E+03  0.98232315362E+02 0.  0.
         14    1    6    6    0    0  0.24282950647E+02  0.30786366894E+02 -0.27928882217E+02  0.48140259041E+02  0.00000000000E+00 0. -1.
        -13    1    6    6    0    0  0.15435420368E+03 -0.27025667929E+02 -0.28804560171E+03  0.32791138374E+03  0.00000000000E+00 0.  1.
          5    1    5    5  501    0  0.13585626738E+03 -0.94060962750E+02 -0.23676746209E+03  0.28876514887E+03  0.47000000000E+01 0. -1.
         11    1    4    4    0    0 -0.31060967388E+02  0.28790408492E+02  0.79256080870E+01  0.43086965311E+02  0.00000000000E+00 0. -1.
        -12    1    4    4    0    0 -0.19468430332E+03  0.81445291108E+02 -0.10637136675E+03  0.23632642905E+03  0.00000000000E+00 0.  1.
         -5    1    3    3    0  503 -0.88748150993E+02 -0.19935435815E+02 -0.11770186803E+03  0.14882699904E+03  0.47000000000E+01 0.  1.
</event>
<event>
12    1  0.9749377E-001  0.2335125E+03  0.7818608E-02  0.1124192E+00
         21   -1    0    0  503  502  0.00000000000E+00  0.00000000000E+00  0.35409377123E+03  0.35409377123E+03  0.00000000000E+00 0.  1.
         21   -1    0    0  501  503 -0.00000000000E+00 -0.00000000000E+00 -0.37114379913E+03  0.37114379913E+03  0.00000000000E+00 0. -1.
          6    2    1    2  501    0  0.64672899019E+02  0.20263038960E+03  0.22435716939E+03  0.35376620484E+03  0.17196723400E+03 0.  0.
         24    2    3    3    0    0  0.27031805694E+02  0.12497806116E+03  0.50183865999E+02  0.15933069976E+03  0.80731760721E+02 0.  0.
         -6    2    1    2    0  502 -0.64672899019E+02 -0.20263038960E+03 -0.24140719729E+03  0.37147136553E+03  0.18566604925E+03 0.  0.
        -24    2    5    5    0    0 -0.31360430290E+02 -0.20661896265E+03 -0.25069025080E+03  0.33634453290E+03  0.81284504381E+02 0.  0.
         12    1    4    4    0    0  0.23265457875E+02  0.88740541871E+02  0.72216859023E+02  0.11675375809E+03  0.00000000000E+00 0. -1.
        -11    1    4    4    0    0  0.37663478191E+01  0.36237519291E+02 -0.22032993024E+02  0.42576941669E+02  0.00000000000E+00 0.  1.
          5    1    3    3  501    0  0.37641093325E+02  0.77652328442E+02  0.17417330339E+03  0.19443550508E+03  0.47000000000E+01 0. -1.
         11    1    6    6    0    0  0.19921117064E+02 -0.55124973780E+02 -0.10370750067E+03  0.11912539333E+03  0.00000000000E+00 0. -1.
        -12    1    6    6    0    0 -0.51281547355E+02 -0.15149398887E+03 -0.14698275012E+03  0.21721913957E+03  0.00000000000E+00 0.  1.
         -5    1    5    5    0  502 -0.33312468729E+02  0.39885730479E+01  0.92830535087E+01  0.35126832625E+02  0.47000000000E+01 0.  1.
</event>
<event>
12    1  0.9749377E-001  0.5857289E+03  0.7818608E-02  0.9935465E-01
         21   -1    0    0  503  502  0.00000000000E+00  0.00000000000E+00  0.14373215889E+04  0.14373215889E+04  0.00000000000E+00 0.  1.
         21   -1    0    0  501  503 -0.00000000000E+00 -0.00000000000E+00 -0.37930256844E+03  0.37930256844E+03  0.00000000000E+00 0. -1.
          6    2    1    2  501    0  0.56553454667E+03 -0.11125965886E+02  0.10719721270E+04  0.12252919918E+04  0.17961935737E+03 0.  0.
         24    2    3    3    0    0  0.32514153301E+03  0.64357536648E+02  0.63161034142E+03  0.71791919754E+03  0.81347660041E+02 0.  0.
         -6    2    1    2    0  502 -0.56553454667E+03  0.11125965886E+02 -0.13953106600E+02  0.59133216547E+03  0.17183110935E+03 0.  0.
        -24    2    5    5    0    0 -0.55400352222E+03  0.36263847635E+02 -0.13178324447E+01  0.56056501128E+03  0.77436592869E+02 0.  0.
         14    1    4    4    0    0  0.25509235182E+02  0.20900553412E+02  0.30757651223E+02  0.45095313739E+02  0.00000000000E+00 0. -1.
        -13    1    4    4    0    0  0.29963229783E+03  0.43456983236E+02  0.60085269020E+03  0.67282388380E+03  0.00000000000E+00 0.  1.
          5    1    3    3  501    0  0.24039301366E+03 -0.75483502534E+02  0.44036178559E+03  0.50737279429E+03  0.47000000000E+01 0. -1.
         11    1    6    6    0    0 -0.31212276180E+03  0.91779011665E+01 -0.37486436662E+02  0.31449973805E+03  0.00000000000E+00 0. -1.
        -12    1    6    6    0    0 -0.24188076042E+03  0.27085946468E+02  0.36168604218E+02  0.24606527323E+03  0.00000000000E+00 0.  1.
         -5    1    5    5    0  502 -0.11531024449E+02 -0.25137881749E+02 -0.12635274156E+02  0.30767154185E+02  0.47000000000E+01 0.  1.
</event>
<event>
12    1  0.9749377E-001  0.3943296E+03  0.7818608E-02  0.1045761E+00
         21   -1    0    0  501  502  0.00000000000E+00  0.00000000000E+00  0.51923096516E+03  0.51923096516E+03  0.00000000000E+00 0. -1.
         21   -1    0    0  502  503 -0.00000000000E+00 -0.00000000000E+00 -0.41506411094E+03  0.41506411094E+03  0.00000000000E+00 0.  1.
         -6    2    1    2    0  503 -0.11076171550E+03 -0.34881358936E+03  0.28219479188E+03  0.49282671118E+03  0.17118758409E+03 0.  0.
        -24    2    3    3    0    0 -0.13372669162E+03 -0.20401147724E+03  0.18787976051E+03  0.31843503435E+03  0.81231495117E+02 0.  0.
          6    2    1    2  501    0  0.11076171550E+03  0.34881358936E+03 -0.17802793766E+03  0.44146836493E+03  0.17105932568E+03 0.  0.
         24    2    5    5    0    0  0.31476250503E+02  0.13296930475E+03 -0.10717471969E+02  0.15705700424E+03  0.76684079339E+02 0.  0.
         14    1    6    6    0    0 -0.15729439659E+02  0.91532995088E+02 -0.15091916764E+02  0.94092881842E+02  0.00000000000E+00 0. -1.
        -13    1    6    6    0    0  0.47205690162E+02  0.41436309661E+02  0.43744447951E+01  0.62964122397E+02  0.00000000000E+00 0.  1.
          5    1    5    5  501    0  0.79285464992E+02  0.21584428461E+03 -0.16731046569E+03  0.28441136069E+03  0.47000000000E+01 0. -1.
         13    1    4    4    0    0 -0.10809937091E+03 -0.93743288996E+02  0.92268961880E+02  0.17025521886E+03  0.00000000000E+00 0. -1.
        -14    1    4    4    0    0 -0.25627320708E+02 -0.11026818824E+03  0.95610798627E+02  0.14817981549E+03  0.00000000000E+00 0.  1.
         -5    1    3    3    0  503  0.22964976124E+02 -0.14480211212E+03  0.94315031370E+02  0.17439167682E+03  0.47000000000E+01 0.  1.
</event>
<event>
12    1  0.9749377E-001  0.3765477E+03  0.7818608E-02  0.1052217E+00
         21   -1    0    0  503  502  0.00000000000E+00  0.00000000000E+00  0.19289537016E+04  0.19289537016E+04  0.00000000000E+00 0. -1.
         21   -1    0    0  501  503 -0.00000000000E+00 -0.00000000000E+00 -0.14995726490E+03  0.14995726490E+03  0.00000000000E+00 0.  1.
          6    2    1    2  501    0 -0.87354504598E+02  0.34644245525E+03  0.18765676588E+03  0.43963345683E+03  0.17438271219E+03 0.  0.
         24    2    3    3    0    0  0.51395786806E+00  0.18288896318E+03  0.43267387426E+02  0.20438679038E+03  0.80332162075E+02 0.  0.
         -6    2    1    2    0  502  0.87354504598E+02 -0.34644245525E+03  0.15913396708E+04  0.16392775097E+04  0.16497157785E+03 0.  0.
        -24    2    5    5    0    0  0.87452614845E+02 -0.18489652452E+03  0.11152071427E+04  0.11364640535E+04  0.77645921687E+02 0.  0.
         12    1    4    4    0    0 -0.16471009640E+02  0.13839268093E+03 -0.98642058175E+00  0.13937288589E+03  0.00000000000E+00 0. -1.
        -11    1    4    4    0    0  0.16984967508E+02  0.44496282244E+02  0.44253808008E+02  0.65013904497E+02  0.00000000000E+00 0.  1.
          5    1    3    3  501    0 -0.87868462466E+02  0.16355349207E+03  0.14438937845E+03  0.23524666645E+03  0.47000000000E+01 0. -1.
         11    1    6    6    0    0  0.99989220673E+02 -0.17871248074E+03  0.10472143427E+04  0.10670491435E+04  0.00000000000E+00 0. -1.
        -12    1    6    6    0    0 -0.12536605828E+02 -0.61840437752E+01  0.67992800040E+02  0.69414910072E+02  0.00000000000E+00 0.  1.
         -5    1    5    5    0  502 -0.98110246878E-01 -0.16154593074E+03  0.47613252808E+03  0.50281345612E+03  0.47000000000E+01 0.  1.
</event>
<event>
12    1  0.9749377E-001  0.3983807E+03  0.7818608E-02  0.1044342E+00
         21   -1    0    0  501  502  0.00000000000E+00  0.00000000000E+00  0.22238566135E+03  0.22238566135E+03  0.00000000000E+00 0.  1.
         21   -1    0    0  502  503 -0.00000000000E+00 -0.00000000000E+00 -0.78343336593E+03  0.78343336593E+03  0.00000000000E+00 0. -1.
         -6    2    1    2    0  503  0.87445312037E+02  0.37014212433E+03 -0.27009091087E+03  0.49696708188E+03  0.17139225635E+03 0.  0.
        -24    2    3    3    0    0  0.43662922091E+02  0.77703344740E+02 -0.61501910672E+02  0.13507096629E+03  0.80730541729E+02 0.  0.
          6    2    1    2  501    0 -0.87445312037E+02 -0.37014212433E+03 -0.29095679371E+03  0.50885194540E+03  0.17211209059E+03 0.  0.
         24    2    5    5    0    0 -0.68463526474E+02 -0.10587369041E+03 -0.74886603625E+02  0.16693597561E+03  0.79769190627E+02 0.  0.
         12    1    6    6    0    0 -0.37218320588E+02 -0.16645437836E+01 -0.34837357048E+02  0.51006034343E+02  0.00000000000E+00 0. -1.
        -11    1    6    6    0    0 -0.31245205887E+02 -0.10420914663E+03 -0.40049246577E+02  0.11592994127E+03  0.00000000000E+00 0.  1.
          5    1    5    5  501    0 -0.18981785563E+02 -0.26426843392E+03 -0.21607019009E+03  0.34191596979E+03  0.47000000000E+01 0. -1.
         13    1    4    4    0    0  0.31517947848E+02  0.65910215853E+02 -0.18696418267E+01  0.73082372368E+02  0.00000000000E+00 0. -1.
        -14    1    4    4    0    0  0.12144974243E+02  0.11793128887E+02 -0.59632268846E+02  0.61988593918E+02  0.00000000000E+00 0.  1.
         -5    1    3    3    0  503  0.43782389947E+02  0.29243877959E+03 -0.20858900019E+03  0.36189611559E+03  0.47000000000E+01 0.  1.
</event>
<event>
12    1  0.1546832E+000  0.6474993E+03  0.7818608E-02  0.9811483E-01
         21   -1    0    0  501  502  0.00000000000E+00  0.00000000000E+00  0.10822551415E+04  0.10822551415E+04  0.00000000000E+00 0. -1.
         21   -1    0    0  502  503 -0.00000000000E+00 -0.00000000000E+00 -0.59553629406E+03  0.59553629406E+03  0.00000000000E+00 0.  1.
         -6    2    1    2    0  503 -0.57521738818E+03 -0.26836434287E+03  0.72454957018E+03  0.97852876496E+03  0.17219756102E+03 0.  0.
        -24    2    3    3    0    0 -0.36325789080E+03 -0.24152540997E+03  0.46836720325E+03  0.64491423894E+03  0.79093107250E+02 0.  0.
          6    2    1    2  501    0  0.57521738818E+03  0.26836434287E+03 -0.23783072276E+03  0.69926267058E+03  0.17178581310E+03 0.  0.
         24    2    5    5    0    0  0.29367144174E+03  0.16182215145E+03 -0.62664877830E+02  0.35094597310E+03  0.82503725538E+02 0.  0.
         12    1    6    6    0    0  0.23944550931E+03  0.99178617682E+02 -0.26434194948E+02  0.26051740210E+03  0.00000000000E+00 0. -1.
        -11    1    6    6    0    0  0.54225932429E+02  0.62643533771E+02 -0.36230682882E+02  0.90428571001E+02  0.00000000000E+00 0.  1.
          5    1    5    5  501    0  0.28154594645E+03  0.10654219141E+03 -0.17516584493E+03  0.34831669748E+03  0.47000000000E+01 0. -1.
         13    1    4    4    0    0 -0.44069435935E+01 -0.10572881051E+02  0.22700933154E+00  0.11456810149E+02  0.00000000000E+00 0. -1.
        -14    1    4    4    0    0 -0.35885094721E+03 -0.23095252892E+03  0.46814019392E+03  0.63345742879E+03  0.00000000000E+00 0.  1.
         -5    1    3    3    0  503 -0.21195949738E+03 -0.26838932900E+02  0.25618236692E+03  0.33361452602E+03  0.47000000000E+01 0.  1.
</event>
<event>
12    1  0.9749377E-001  0.3052114E+03  0.7818608E-02  0.1082664E+00
         21   -1    0    0  501  502  0.00000000000E+00  0.00000000000E+00  0.42636999208E+03  0.42636999208E+03  0.00000000000E+00 0. -1.
         21   -1    0    0  502  503 -0.00000000000E+00 -0.00000000000E+00 -0.33539188764E+03  0.33539188764E+03  0.00000000000E+00 0.  1.
         -6    2    1    2    0  503  0.20176440140E+03  0.19869763180E+03 -0.13863915546E+03  0.35897445494E+03  0.17161649488E+03 0.  0.
        -24    2    3    3    0    0  0.21784007728E+03  0.19538734919E+03 -0.14986739077E+03  0.33854044910E+03  0.80739614603E+02 0.  0.
          6    2    1    2  501    0 -0.20176440140E+03 -0.19869763180E+03  0.22961725990E+03  0.40278742479E+03  0.17124252091E+03 0.  0.
         24    2    5    5    0    0 -0.89441976352E+02 -0.92673089939E+02  0.18655709768E+03  0.24236985026E+03  0.85740450732E+02 0.  0.
         14    1    6    6    0    0 -0.78808413708E+02 -0.50175423936E+02  0.17282410354E+03  0.19645994504E+03  0.00000000000E+00 0. -1.
        -13    1    6    6    0    0 -0.10633562644E+02 -0.42497666003E+02  0.13732994133E+02  0.45909905228E+02  0.00000000000E+00 0.  1.
          5    1    5    5  501    0 -0.11232242504E+03 -0.10602454186E+03  0.43060162224E+02  0.16041757452E+03  0.47000000000E+01 0. -1.
         13    1    4    4    0    0  0.15140165511E+03  0.87456497565E+02 -0.67698140777E+02  0.18749436899E+03  0.00000000000E+00 0. -1.
        -14    1    4    4    0    0  0.66438422171E+02  0.10793085163E+03 -0.82169249992E+02  0.15104608011E+03  0.00000000000E+00 0.  1.
         -5    1    3    3    0  503 -0.16075675887E+02  0.33102826133E+01  0.11228235314E+02  0.20434005835E+02  0.47000000000E+01 0.  1.
</event>
<event>
12    1  0.9749377E-001  0.4832014E+03  0.7818608E-02  0.1018259E+00
         21   -1    0    0  503  502  0.00000000000E+00  0.00000000000E+00  0.75196509461E+03  0.75196509461E+03  0.00000000000E+00 0. -1.
         21   -1    0    0  501  503 -0.00000000000E+00 -0.00000000000E+00 -0.33671857487E+03  0.33671857487E+03  0.00000000000E+00 0.  1.
          6    2    1    2  501    0  0.16160997011E+03 -0.44267825786E+03  0.25110141195E+03  0.56099005582E+03  0.17197703690E+03 0.  0.
         24    2    3    3    0    0  0.27887372321E+02 -0.12748589809E+03  0.45768306699E+02  0.16172606930E+03  0.83846430133E+02 0.  0.
         -6    2    1    2    0  502 -0.16160997011E+03  0.44267825786E+03  0.16414510779E+03  0.52769361367E+03  0.17156663741E+03 0.  0.
        -24    2    5    5    0    0 -0.81586199554E+02  0.22672621214E+03  0.13766676552E+03  0.29582666364E+03  0.10247045118E+03 0.  0.
         12    1    4    4    0    0 -0.94394312885E+01 -0.62681489599E+02 -0.15260447530E+02  0.65199334814E+02  0.00000000000E+00 0. -1.
        -11    1    4    4    0    0  0.37326803609E+02 -0.64804408489E+02  0.61028754229E+02  0.96526734484E+02  0.00000000000E+00 0.  1.
          5    1    3    3  501    0  0.13372259779E+03 -0.31519235977E+03  0.20533310525E+03  0.39926398652E+03  0.47000000000E+01 0. -1.
         11    1    6    6    0    0 -0.92372823646E+02  0.13788325847E+03  0.11948696755E+03  0.20450346434E+03  0.00000000000E+00 0. -1.
        -12    1    6    6    0    0  0.10786624093E+02  0.88842953669E+02  0.18179797970E+02  0.91323199298E+02  0.00000000000E+00 0.  1.
         -5    1    5    5    0  502 -0.80023770560E+02  0.21595204572E+03  0.26478342279E+02  0.23186695002E+03  0.47000000000E+01 0.  1.
</event>
<event>
12    1  0.9749377E-001  0.1039500E+04  0.7818608E-02  0.9266252E-01
         21   -1    0    0  501  502  0.00000000000E+00  0.00000000000E+00  0.45421388327E+04  0.45421388327E+04  0.00000000000E+00 0. -1.
         21   -1    0    0  502  503 -0.00000000000E+00 -0.00000000000E+00 -0.39518191709E+03  0.39518191709E+03  0.00000000000E+00 0.  1.
         -6    2    1    2    0  503 -0.17164968929E+03  0.10165869991E+04  0.36178939194E+04  0.37658768241E+04  0.17250825965E+03 0.  0.
        -24    2    3    3    0    0 -0.37627887397E+02  0.57804668078E+03  0.21414986270E+04  0.22198999149E+04  0.79908947565E+02 0.  0.
          6    2    1    2  501    0  0.17164968929E+03 -0.10165869991E+04  0.52906299623E+03  0.11714439257E+04  0.17164053877E+03 0.  0.
         24    2    5    5    0    0  0.12170582285E+02 -0.27006855941E+03  0.13977456963E+03  0.31453615037E+03  0.79441234377E+02 0.  0.
         12    1    6    6    0    0 -0.74918618718E+01 -0.19322878002E+03  0.13348458712E+03  0.23497153960E+03  0.00000000000E+00 0. -1.
        -11    1    6    6    0    0  0.19662444157E+02 -0.76839779392E+02  0.62899825040E+01  0.79564610771E+02  0.00000000000E+00 0.  1.
          5    1    5    5  501    0  0.15947910700E+03 -0.74651843968E+03  0.38928842660E+03  0.85690777534E+03  0.47000000000E+01 0. -1.
         13    1    4    4    0    0  0.22726723814E+02  0.22843782085E+03  0.80103948239E+03  0.83328542187E+03  0.00000000000E+00 0. -1.
        -14    1    4    4    0    0 -0.60354611211E+02  0.34960885993E+03  0.13404591446E+04  0.13866144930E+04  0.00000000000E+00 0.  1.
         -5    1    3    3    0  503 -0.13402180189E+03  0.43854031832E+03  0.14763952924E+04  0.15459769092E+04  0.47000000000E+01 0.  1.
</event>
<event>
12    1  0.9749377E-001  0.3821480E+03  0.7818608E-02  0.1050143E+00
         21   -1    0    0  501  502  0.00000000000E+00  0.00000000000E+00  0.25553203966E+03  0.25553203966E+03  0.00000000000E+00 0. -1.
         21   -1    0    0  502  503 -0.00000000000E+00 -0.00000000000E+00 -0.67495645778E+03  0.67495645778E+03  0.00000000000E+00 0.  1.
         -6    2    1    2    0  503  0.34184706563E+03  0.13166242367E+03 -0.31508340679E+03  0.51172866808E+03  0.16850598332E+03 0.  0.
        -24    2    3    3    0    0  0.35373892245E+03  0.13344093009E+03 -0.28876755154E+03  0.48241666404E+03  0.80008948510E+02 0.  0.
          6    2    1    2  501    0 -0.34184706563E+03 -0.13166242367E+03 -0.10434101133E+03  0.41875982936E+03  0.17400671811E+03 0.  0.
         24    2    5    5    0    0 -0.30819122892E+03 -0.10673939368E+03 -0.34883750389E+02  0.33751775979E+03  0.79537603627E+02 0.  0.
         12    1    6    6    0    0 -0.16187129855E+03 -0.40935525874E+02  0.19529933749E+02  0.16810548142E+03  0.00000000000E+00 0. -1.
        -11    1    6    6    0    0 -0.14631993037E+03 -0.65803867806E+02 -0.54413684138E+02  0.16941227837E+03  0.00000000000E+00 0.  1.
          5    1    5    5  501    0 -0.33655836715E+02 -0.24923029994E+02 -0.69457260945E+02  0.81242069564E+02  0.47000000000E+01 0. -1.
         11    1    4    4    0    0  0.97570035796E+02  0.63077968459E+02 -0.12343404976E+03  0.16951314589E+03  0.00000000000E+00 0. -1.
        -12    1    4    4    0    0  0.25616888665E+03  0.70362961632E+02 -0.16533350179E+03  0.31290351815E+03  0.00000000000E+00 0.  1.
         -5    1    3    3    0  503 -0.11891856816E+02 -0.17785064171E+01 -0.26315855245E+02  0.29312004041E+02  0.47000000000E+01 0.  1.
</event>
<event>
12    1  0.9749377E-001  0.2522043E+03  0.7818608E-02  0.1111920E+00
         21   -1    0    0  503  502  0.00000000000E+00  0.00000000000E+00  0.84678357344E+03  0.84678357344E+03  0.00000000000E+00 0.  1.
         21   -1    0    0  501  503 -0.00000000000E+00 -0.00000000000E+00 -0.10714533981E+03  0.10714533981E+03  0.00000000000E+00 0. -1.
          6    2    1    2  501    0  0.22226028230E+03 -0.90860982970E+02  0.41864843747E+03  0.51545063995E+03  0.18101794585E+03 0.  0.
         24    2    3    3    0    0  0.19821625347E+03 -0.11115137306E+03  0.41926571892E+03  0.48363419312E+03  0.80461039183E+02 0.  0.
         -6    2    1    2    0  502 -0.22226028230E+03  0.90860982970E+02  0.32098979616E+03  0.43847827330E+03  0.17768904187E+03 0.  0.
        -24    2    5    5    0    0 -0.91083211567E+02  0.25242773311E+02  0.24209000782E+03  0.27186362831E+03  0.79805460191E+02 0.  0.
         12    1    4    4    0    0  0.84268105538E+02 -0.44747952010E+02  0.25938841235E+03  0.27637988581E+03  0.00000000000E+00 0. -1.
        -11    1    4    4    0    0  0.11394814793E+03 -0.66403421048E+02  0.15987730657E+03  0.20725430731E+03  0.00000000000E+00 0.  1.
          5    1    3    3  501    0  0.24044028834E+02  0.20290390088E+02 -0.61728145034E+00  0.31816446829E+02  0.47000000000E+01 0. -1.
         13    1    6    6    0    0 -0.22421547208E+02 -0.58595243190E+01  0.58668344101E+01  0.23905638466E+02  0.00000000000E+00 0. -1.
        -14    1    6    6    0    0 -0.68661664359E+02  0.31102297630E+02  0.23622317341E+03  0.24795798984E+03  0.00000000000E+00 0.  1.
         -5    1    5    5    0  502 -0.13117707074E+03  0.65618209658E+02  0.78899788337E+02  0.16661464499E+03  0.47000000000E+01 0.  1.
</event>
<event>
12    1  0.9749377E-001  0.5156210E+03  0.7818608E-02  0.1009780E+00
         21   -1    0    0  503  502  0.00000000000E+00  0.00000000000E+00  0.11936611524E+04  0.11936611524E+04  0.00000000000E+00 0. -1.
         21   -1    0    0  501  503 -0.00000000000E+00 -0.00000000000E+00 -0.25040110197E+03  0.25040110197E+03  0.00000000000E+00 0.  1.
          6    2    1    2  501    0 -0.47621969623E+03  0.17321937411E+03  0.61827056504E+03  0.81779442594E+03  0.17245022716E+03 0.  0.
         24    2    3    3    0    0 -0.19580941694E+03  0.71623362389E+02  0.35788736114E+03  0.42184849881E+03  0.80009742443E+02 0.  0.
         -6    2    1    2    0  502  0.47621969623E+03 -0.17321937411E+03  0.32498948542E+03  0.62626782846E+03  0.17263567617E+03 0.  0.
        -24    2    5    5    0    0  0.34550665369E+03 -0.14723086156E+03  0.30760016134E+03  0.49178444337E+03  0.78627635973E+02 0.  0.
         14    1    4    4    0    0 -0.97844252762E+02  0.59389961172E+01  0.21696044908E+03  0.23807689081E+03  0.00000000000E+00 0. -1.
        -13    1    4    4    0    0 -0.97965164181E+02  0.65684366272E+02  0.14092691206E+03  0.18377160800E+03  0.00000000000E+00 0.  1.
          5    1    3    3  501    0 -0.28041027929E+03  0.10159601172E+03  0.26038320390E+03  0.39594592712E+03  0.47000000000E+01 0. -1.
         13    1    6    6    0    0  0.19042602741E+03 -0.38627674035E+02  0.16080797892E+03  0.25221692093E+03  0.00000000000E+00 0. -1.
        -14    1    6    6    0    0  0.15508062628E+03 -0.10860318752E+03  0.14679218242E+03  0.23956752244E+03  0.00000000000E+00 0.  1.
         -5    1    5    5    0  502  0.13071304254E+03 -0.25988512551E+02  0.17389324076E+02  0.13448338510E+03  0.47000000000E+01 0.  1.
</event>
<event>
12    1  0.9749377E-001  0.1790070E+03  0.7818608E-02  0.1168768E+00
         21   -1    0    0  501  502  0.00000000000E+00  0.00000000000E+00  0.17564719697E+03  0.17564719697E+03  0.00000000000E+00 0.  1.
         21   -1    0    0  502  503 -0.00000000000E+00 -0.00000000000E+00 -0.26317227078E+03  0.26317227078E+03  0.00000000000E+00 0. -1.
         -6    2    1    2    0  503 -0.10527304329E+03 -0.50549050676E+02 -0.85998848541E+02  0.22973646454E+03  0.17817244743E+03 0.  0.
        -24    2    3    3    0    0 -0.81233399356E+02  0.34475779205E+02 -0.62098028049E+02  0.13808241173E+03  0.86157662570E+02 0.  0.
          6    2    1    2  501    0  0.10527304329E+03  0.50549050676E+02 -0.15262252637E+01  0.20908300320E+03  0.17342362209E+03 0.  0.
         24    2    5    5    0    0  0.12550721107E+03  0.10674199139E+02 -0.35097918213E+02  0.15297084856E+03  0.79386510753E+02 0.  0.
         12    1    6    6    0    0  0.10523484853E+03  0.19016739532E+02 -0.57676068809E+02  0.12150118782E+03  0.00000000000E+00 0. -1.
        -11    1    6    6    0    0  0.20272362538E+02 -0.83425403926E+01  0.22578150596E+02  0.31469660745E+02  0.00000000000E+00 0.  1.
          5    1    5    5  501    0 -0.20234167780E+02  0.39874851537E+02  0.33571692949E+02  0.56112154640E+02  0.47000000000E+01 0. -1.
         11    1    4    4    0    0 -0.43751990036E+02 -0.14698026001E+01  0.13992976151E+02  0.45958680718E+02  0.00000000000E+00 0. -1.
        -12    1    4    4    0    0 -0.37481409320E+02  0.35945581805E+02 -0.76091004199E+02  0.92123731014E+02  0.00000000000E+00 0.  1.
         -5    1    3    3    0  503 -0.24039643934E+02 -0.85024829881E+02 -0.23900820492E+02  0.91654052813E+02  0.47000000000E+01 0.  1.
</event>
<event>
12    1  0.9749377E-001  0.2973135E+03  0.7818608E-02  0.1086591E+00
         21   -1    0    0  503  502  0.00000000000E+00  0.00000000000E+00  0.34030989741E+03  0.34030989741E+03  0.00000000000E+00 0.  1.
         21   -1    0    0  501  503 -0.00000000000E+00 -0.00000000000E+00 -0.29700064665E+03  0.29700064665E+03  0.00000000000E+00 0. -1.
          6    2    1    2  501    0  0.90939627315E+02  0.25110398070E+03  0.31416425647E+02  0.31914057983E+03  0.17187347949E+03 0.  0.
         24    2    3    3    0    0  0.60778315011E+02  0.80455388114E+02 -0.35248486784E+02  0.13340704096E+03  0.79924399934E+02 0.  0.
         -6    2    1    2    0  502 -0.90939627315E+02 -0.25110398070E+03  0.11892825109E+02  0.31816996424E+03  0.17253249524E+03 0.  0.
        -24    2    5    5    0    0 -0.38418210558E+02 -0.33392746762E+02  0.25219431942E+01  0.93967858921E+02  0.78946588741E+02 0.  0.
         14    1    4    4    0    0  0.60772671658E+02  0.68050298035E+02  0.49172863024E+01  0.91369252966E+02  0.00000000000E+00 0. -1.
        -13    1    4    4    0    0  0.56433533433E-02  0.12405090079E+02 -0.40165773086E+02  0.42037787992E+02  0.00000000000E+00 0.  1.
          5    1    3    3  501    0  0.30161312305E+02  0.17064859258E+03  0.66664912431E+02  0.18573353887E+03  0.47000000000E+01 0. -1.
         13    1    6    6    0    0  0.16477039835E+02  0.13596009445E+02  0.37974970902E+01  0.21697126508E+02  0.00000000000E+00 0. -1.
        -14    1    6    6    0    0 -0.54895250394E+02 -0.46988756207E+02 -0.12755538960E+01  0.72270732413E+02  0.00000000000E+00 0.  1.
         -5    1    5    5    0  502 -0.52521416757E+02 -0.21771123393E+03  0.93708819149E+01  0.22420210531E+03  0.47000000000E+01 0.  1.
</event>
<event>
12    1  0.9749377E-001  0.4666878E+03  0.7818608E-02  0.1022859E+00
         21   -1    0    0  501  502  0.00000000000E+00  0.00000000000E+00  0.83730164240E+03  0.83730164240E+03  0.00000000000E+00 0. -1.
         21   -1    0    0  502  503 -0.00000000000E+00 -0.00000000000E+00 -0.38626762251E+03  0.38626762251E+03  0.00000000000E+00 0.  1.
         -6    2    1    2    0  503 -0.27315516221E+03  0.34774658974E+03  0.56237449720E+03  0.73616346476E+03  0.17358035149E+03 0.  0.
        -24    2    3    3    0    0 -0.16442660927E+03  0.30465080564E+03  0.40897014739E+03  0.54320199354E+03  0.89239011197E+02 0.  0.
          6    2    1    2  501    0  0.27315516221E+03 -0.34774658974E+03 -0.11134047732E+03  0.48740580015E+03  0.17212285965E+03 0.  0.
         24    2    5    5    0    0  0.19658566029E+03 -0.14490829858E+03 -0.60467519153E+02  0.26465838971E+03  0.82118241242E+02 0.  0.
         14    1    6    6    0    0  0.10648031839E+03 -0.47928341304E+02  0.52035577271E+01  0.11688567542E+03  0.00000000000E+00 0. -1.
        -13    1    6    6    0    0  0.90105341898E+02 -0.96979957276E+02 -0.65671076880E+02  0.14777271430E+03  0.00000000000E+00 0.  1.
          5    1    5    5  501    0  0.76569501925E+02 -0.20283829116E+03 -0.50872958163E+02  0.22274741044E+03  0.47000000000E+01 0. -1.
         11    1    4    4    0    0 -0.12843335663E+03  0.18386267103E+03  0.31166688341E+03  0.38397507095E+03  0.00000000000E+00 0. -1.
        -12    1    4    4    0    0 -0.35993252636E+02  0.12078813461E+03  0.97303263979E+02  0.15922692259E+03  0.00000000000E+00 0.  1.
         -5    1    3    3    0  503 -0.10872855295E+03  0.43095784099E+02  0.15340434981E+03  0.19296147121E+03  0.47000000000E+01 0.  1.
</event>
<event>
12    1  0.9749377E-001  0.3335528E+03  0.7818608E-02  0.1069576E+00
         21   -1    0    0  501  502  0.00000000000E+00  0.00000000000E+00  0.40686019042E+03  0.40686019042E+03  0.00000000000E+00 0. -1.
         21   -1    0    0  502  503 -0.00000000000E+00 -0.00000000000E+00 -0.41201517411E+03  0.41201517411E+03  0.00000000000E+00 0.  1.
         -6    2    1    2    0  503 -0.24551003976E+03 -0.17606039978E+03  0.21409374669E+03  0.40863261056E+03  0.17283528009E+03 0.  0.
        -24    2    3    3    0    0 -0.74279714738E+02 -0.12904364583E+03  0.12382038523E+03  0.20937958260E+03  0.79615220034E+02 0.  0.
          6    2    1    2  501    0  0.24551003976E+03  0.17606039978E+03 -0.21924873038E+03  0.41024275398E+03  0.17016658725E+03 0.  0.
         24    2    5    5    0    0  0.19022101085E+03  0.58213513537E+02 -0.15930085918E+03  0.26685306614E+03  0.79126159041E+02 0.  0.
         12    1    6    6    0    0  0.83911279993E+02  0.45614979329E+02 -0.32459308788E+02  0.10087336604E+03  0.00000000000E+00 0. -1.
        -11    1    6    6    0    0  0.10630973086E+03  0.12598534208E+02 -0.12684155039E+03  0.16597970010E+03  0.00000000000E+00 0.  1.
          5    1    5    5  501    0  0.55289028911E+02  0.11784688625E+03 -0.59947871206E+02  0.14338968784E+03  0.47000000000E+01 0. -1.
         11    1    4    4    0    0  0.66378965358E+01 -0.18552650249E+02 -0.60793065445E+01  0.20620874612E+02  0.00000000000E+00 0. -1.
        -12    1    4    4    0    0 -0.80917611273E+02 -0.11049099558E+03  0.12989969178E+03  0.18875870799E+03  0.00000000000E+00 0.  1.
         -5    1    3    3    0  503 -0.17123032503E+03 -0.47016753954E+02  0.90273361459E+02  0.19925302796E+03  0.47000000000E+01 0.  1.
</event>
<event>
12    1  0.1099701E+000  0.9340031E+03  0.7818608E-02  0.9384046E-01
         21   -1    0    0  503  502  0.00000000000E+00  0.00000000000E+00  0.31047924483E+04  0.31047924483E+04  0.00000000000E+00 0. -1.
         21   -1    0    0  501  503 -0.00000000000E+00 -0.00000000000E+00 -0.35024880564E+03  0.35024880564E+03  0.00000000000E+00 0.  1.
          6    2    1    2  501    0 -0.24156114744E+03  0.89557642474E+03  0.21138863662E+04  0.23148360739E+04  0.17187658074E+03 0.  0.
         24    2    3    3    0    0 -0.24869815737E+03  0.72213075543E+03  0.16733492564E+04  0.18413074345E+04  0.83616584497E+02 0.  0.
         -6    2    1    2    0  502  0.24156114744E+03 -0.89557642474E+03  0.64065727642E+03  0.11402051801E+04  0.17093035513E+03 0.  0.
        -24    2    5    5    0    0  0.96957622834E+02 -0.45321772778E+03  0.25108874525E+03  0.53326438675E+03  0.80735734253E+02 0.  0.
         14    1    4    4    0    0 -0.97083555967E+02  0.21103770611E+03  0.43661716623E+03  0.49456716438E+03  0.00000000000E+00 0. -1.
        -13    1    4    4    0    0 -0.15161460140E+03  0.51109304931E+03  0.12367320901E+04  0.13467402701E+04  0.00000000000E+00 0.  1.
          5    1    3    3  501    0  0.71370099215E+01  0.17344566931E+03  0.44053710988E+03  0.47352863936E+03  0.47000000000E+01 0. -1.
         11    1    6    6    0    0  0.78996808916E+02 -0.35522399729E+03  0.23273758458E+03  0.43196222907E+03  0.00000000000E+00 0. -1.
        -12    1    6    6    0    0  0.17960813918E+02 -0.97993730487E+02  0.18351160665E+02  0.10130215767E+03  0.00000000000E+00 0.  1.
         -5    1    5    5    0  502  0.14460352461E+03 -0.44235869696E+03  0.38956853117E+03  0.60694079331E+03  0.47000000000E+01 0.  1.
</event>
<event>
12    1  0.9749377E-001  0.4884204E+03  0.7818608E-02  0.1016846E+00
         21   -1    0    0  501  502  0.00000000000E+00  0.00000000000E+00  0.45833098014E+03  0.45833098014E+03  0.00000000000E+00 0. -1.
         21   -1    0    0  502  503 -0.00000000000E+00 -0.00000000000E+00 -0.57276270200E+03  0.57276270200E+03  0.00000000000E+00 0.  1.
         -6    2    1    2    0  503  0.36624720256E+03 -0.29440481547E+03  0.54208909879E+02  0.50299188223E+03  0.17102929260E+03 0.  0.
        -24    2    3    3    0    0  0.27763938922E+03 -0.17254243397E+03 -0.15630288373E+02  0.33685522697E+03  0.79828666868E+02 0.  0.
          6    2    1    2  501    0 -0.36624720256E+03  0.29440481547E+03 -0.16864063174E+03  0.52810179990E+03  0.17216457137E+03 0.  0.
         24    2    5    5    0    0 -0.34693784220E+03  0.30826880135E+03 -0.18128372260E+03  0.50077051292E+03  0.50117844001E+02 0.  0.
         14    1    6    6    0    0 -0.78844566335E+02  0.90713404718E+02 -0.30354117722E+02  0.12396273593E+03  0.00000000000E+00 0. -1.
        -13    1    6    6    0    0 -0.26809327587E+03  0.21755539663E+03 -0.15092960488E+03  0.37680777699E+03  0.00000000000E+00 0.  1.
          5    1    5    5  501    0 -0.19309360355E+02 -0.13863985881E+02  0.12643090861E+02  0.27331286987E+02  0.47000000000E+01 0. -1.
         11    1    4    4    0    0  0.10580202235E+03 -0.11238855756E+03 -0.36022743089E+01  0.15439634771E+03  0.00000000000E+00 0. -1.
        -12    1    4    4    0    0  0.17183736687E+03 -0.60153876405E+02 -0.12028014064E+02  0.18245887926E+03  0.00000000000E+00 0.  1.
         -5    1    3    3    0  503  0.88607813338E+02 -0.12186238151E+03  0.69839198253E+02  0.16613665527E+03  0.47000000000E+01 0.  1.
</event>
<event>
12    1  0.9749377E-001  0.1114628E+04  0.7818608E-02  0.9191051E-01
         21   -1    0    0  503  502  0.00000000000E+00  0.00000000000E+00  0.13936317237E+04  0.13936317237E+04  0.00000000000E+00 0.  1.
         21   -1    0    0  501  503 -0.00000000000E+00 -0.00000000000E+00 -0.13342472786E+04  0.13342472786E+04  0.00000000000E+00 0. -1.
          6    2    1    2  501    0 -0.10973677099E+04  0.17058396214E+03  0.80226749528E+03  0.13806869596E+04  0.17131423603E+03 0.  0.
         24    2    3    3    0    0 -0.42081951636E+03  0.94325263276E+02  0.37410221952E+03  0.57639818015E+03  0.79347783754E+02 0.  0.
         -6    2    1    2    0  502  0.10973677099E+04 -0.17058396214E+03 -0.74288305020E+03  0.13471920428E+04  0.17244243970E+03 0.  0.
        -24    2    5    5    0    0  0.60166272866E+03 -0.88625607069E+02 -0.32848198950E+03  0.69589262662E+03  0.80706834106E+02 0.  0.
         14    1    4    4    0    0 -0.57517215521E+02  0.30105816827E+02  0.88893536518E+02  0.11007566090E+03  0.00000000000E+00 0. -1.
        -13    1    4    4    0    0 -0.36330230084E+03  0.64219446449E+02  0.28520868300E+03  0.46632251925E+03  0.00000000000E+00 0.  1.
          5    1    3    3  501    0 -0.67654819352E+03  0.76258698868E+02  0.42816527576E+03  0.80428877940E+03  0.47000000000E+01 0. -1.
         11    1    6    6    0    0  0.19255897113E+03 -0.61298775533E+02 -0.86667798412E+02  0.21988134192E+03  0.00000000000E+00 0. -1.
        -12    1    6    6    0    0  0.40910375753E+03 -0.27326831536E+02 -0.24181419109E+03  0.47601128469E+03  0.00000000000E+00 0.  1.
         -5    1    5    5    0  502  0.49570498122E+03 -0.81958355076E+02 -0.41440106070E+03  0.65129941615E+03  0.47000000000E+01 0.  1.
</event>
<event>
12    1  0.9749377E-001  0.3861320E+03  0.7818608E-02  0.1048690E+00
         21   -1    0    0  501  502  0.00000000000E+00  0.00000000000E+00  0.58743470341E+03  0.58743470341E+03  0.00000000000E+00 0. -1.
         21   -1    0    0  502  503 -0.00000000000E+00 -0.00000000000E+00 -0.37901936585E+03  0.37901936585E+03  0.00000000000E+00 0.  1.
         -6    2    1    2    0  503 -0.59721715914E+02  0.35355781262E+03  0.36246818884E+03  0.54018048851E+03  0.17844316188E+03 0.  0.
        -24    2    3    3    0    0 -0.44610591595E+02  0.36054536827E+03  0.30757486863E+03  0.48262583087E+03  0.79638717600E+02 0.  0.
          6    2    1    2  501    0  0.59721715914E+02 -0.35355781262E+03 -0.15405285128E+03  0.42627358075E+03  0.17148491025E+03 0.  0.
         24    2    5    5    0    0  0.45994630430E+02 -0.36405293890E+03 -0.13215373413E+03  0.39798503390E+03  0.79230230414E+02 0.  0.
         14    1    6    6    0    0  0.12972400732E+02 -0.27320169929E+03 -0.67580954023E+02  0.28173504756E+03  0.00000000000E+00 0. -1.
        -13    1    6    6    0    0  0.33022229699E+02 -0.90851239608E+02 -0.64572780110E+02  0.11624998634E+03  0.00000000000E+00 0.  1.
          5    1    5    5  501    0  0.13727085484E+02  0.10495126277E+02 -0.21899117146E+02  0.28288546856E+02  0.47000000000E+01 0. -1.
         11    1    4    4    0    0 -0.39368425877E+02  0.12027902216E+03  0.69689977547E+02  0.14447701927E+03  0.00000000000E+00 0. -1.
        -12    1    4    4    0    0 -0.52421657185E+01  0.24026634611E+03  0.23788489108E+03  0.33814881159E+03  0.00000000000E+00 0.  1.
         -5    1    3    3    0  503 -0.15111124319E+02 -0.69875556501E+01  0.54893320212E+02  0.57554657640E+02  0.47000000000E+01 0.  1.
</event>
<event>
12    1  0.9749377E-001  0.2065889E+03  0.7818608E-02  0.1144296E+00
         21   -1    0    0  501  502  0.00000000000E+00  0.00000000000E+00  0.83829292137E+03  0.83829292137E+03  0.00000000000E+00 0. -1.
         21   -1    0    0  502  503 -0.00000000000E+00 -0.00000000000E+00 -0.67286450958E+02  0.67286450958E+02  0.00000000000E+00 0.  1.
         -6    2    1    2    0  503  0.15931781268E+03  0.17310028065E+02  0.47013928192E+03  0.52578241525E+03  0.17243665874E+03 0.  0.
        -24    2    3    3    0    0  0.38204268976E+02  0.13840044861E+02  0.31895272326E+03  0.33197839886E+03  0.82629925710E+02 0.  0.
          6    2    1    2  501    0 -0.15931781268E+03 -0.17310028065E+02  0.30086718849E+03  0.37979695707E+03  0.16746002802E+03 0.  0.
         24    2    5    5    0    0 -0.17302204224E+03 -0.72208385071E+01  0.30649908297E+03  0.36126574315E+03  0.81132494719E+02 0.  0.
         14    1    6    6    0    0 -0.13994594734E+03 -0.29875682820E+02  0.27600409627E+03  0.31089497544E+03  0.00000000000E+00 0. -1.
        -13    1    6    6    0    0 -0.33076094909E+02  0.22654844313E+02  0.30494986708E+02  0.50370767709E+02  0.00000000000E+00 0.  1.
          5    1    5    5  501    0  0.13704229566E+02 -0.10089189558E+02 -0.56318944856E+01  0.18531213922E+02  0.47000000000E+01 0. -1.
         11    1    4    4    0    0 -0.21977198748E+02  0.21093116371E+02  0.84746094723E+02  0.90054524561E+02  0.00000000000E+00 0. -1.
        -12    1    4    4    0    0  0.60181467724E+02 -0.72530715105E+01  0.23420662854E+03  0.24192387430E+03  0.00000000000E+00 0.  1.
         -5    1    3    3    0  503  0.12111354370E+03  0.34699832049E+01  0.15118655866E+03  0.19380401640E+03  0.47000000000E+01 0.  1.
</event>
<event>
12    1  0.9749377E-001  0.2599601E+03  0.7818608E-02  0.1107167E+00
         21   -1    0    0  503  502  0.00000000000E+00  0.00000000000E+00  0.28552730464E+03  0.28552730464E+03  0.00000000000E+00 0.  1.
         21   -1    0    0  501  503 -0.00000000000E+00 -0.00000000000E+00 -0.25725537568E+03  0.25725537568E+03  0.00000000000E+00 0. -1.
          6    2    1    2  501    0  0.19342485218E+03  0.81934004907E+02  0.12678635416E+02  0.27173921514E+03  0.17191596390E+03 0.  0.
         24    2    3    3    0    0  0.17490153170E+03  0.16928835509E+02  0.42017736334E+02  0.19790386931E+03  0.80767072862E+02 0.  0.
         -6    2    1    2    0  502 -0.19342485218E+03 -0.81934004907E+02  0.15593293541E+02  0.27104346519E+03  0.17057272530E+03 0.  0.
        -24    2    5    5    0    0 -0.18585487449E+03 -0.11701020962E+03  0.68556490416E+01  0.23381335465E+03  0.79926599848E+02 0.  0.
         12    1    4    4    0    0  0.70553744387E+02 -0.26709222769E+02 -0.45732997428E+01  0.75578624613E+02  0.00000000000E+00 0. -1.
        -11    1    4    4    0    0  0.10434778732E+03  0.43638058278E+02  0.46591036077E+02  0.12232524470E+03  0.00000000000E+00 0.  1.
          5    1    3    3  501    0  0.18523320482E+02  0.65005169398E+02 -0.29339100918E+02  0.73835345823E+02  0.47000000000E+01 0. -1.
         13    1    6    6    0    0 -0.16674902133E+03 -0.78209235650E+02  0.26920067556E+02  0.18613600053E+03  0.00000000000E+00 0. -1.
        -14    1    6    6    0    0 -0.19105853158E+02 -0.38800973967E+02 -0.20064418514E+02  0.47677354122E+02  0.00000000000E+00 0.  1.
         -5    1    5    5    0  502 -0.75699776927E+01  0.35076204711E+02  0.87376444998E+01  0.37230110537E+02  0.47000000000E+01 0.  1.
</event>
<event>
12    1  0.9749377E-001  0.3137886E+03  0.7818608E-02  0.1078544E+00
         21   -1    0    0  503  502  0.00000000000E+00  0.00000000000E+00  0.29108941134E+03  0.29108941134E+03  0.00000000000E+00 0.  1.
         21   -1    0    0  501  503 -0.00000000000E+00 -0.00000000000E+00 -0.43351944440E+03  0.43351944440E+03  0.00000000000E+00 0. -1.
          6    2    1    2  501    0  0.23920164969E+03 -0.13920671174E+03  0.72771509927E+02  0.33390376511E+03  0.17204677821E+03 0.  0.
         24    2    3    3    0    0  0.71910245180E+02 -0.11204541194E+03  0.50631260289E+02  0.16291712562E+03  0.79077225580E+02 0.  0.
         -6    2    1    2    0  502 -0.23920164969E+03  0.13920671174E+03 -0.21520154299E+03  0.39070509063E+03  0.17246108527E+03 0.  0.
        -24    2    5    5    0    0 -0.25334153913E+03  0.13958093982E+03 -0.17419060405E+03  0.34706951303E+03  0.80312552694E+02 0.  0.
         14    1    4    4    0    0  0.13251467890E+02 -0.77437714531E+02  0.52999804050E+02  0.94769089171E+02  0.00000000000E+00 0. -1.
        -13    1    4    4    0    0  0.58658777289E+02 -0.34607697404E+02 -0.23685437607E+01  0.68148036452E+02  0.00000000000E+00 0.  1.
          5    1    3    3  501    0  0.16729140451E+03 -0.27161299803E+02  0.22140249638E+02  0.17098663949E+03  0.47000000000E+01 0. -1.
         13    1    6    6    0    0 -0.15993186089E+03  0.12259371055E+03 -0.14314815008E+03  0.24718173651E+03  0.00000000000E+00 0. -1.
        -14    1    6    6    0    0 -0.93409678245E+02  0.16987229267E+02 -0.31042453972E+02  0.99887776512E+02  0.00000000000E+00 0.  1.
         -5    1    5    5    0  502  0.14139889447E+02 -0.37422808159E+00 -0.41010938936E+02  0.43635577602E+02  0.47000000000E+01 0.  1.
</event>
<event>
12    1  0.9749377E-001  0.7442157E+03  0.7818608E-02  0.9644469E-01
         21   -1    0    0  501  502  0.00000000000E+00  0.00000000000E+00  0.72677083759E+03  0.72677083759E+03  0.00000000000E+00 0. -1.
         21   -1    0    0  502  503 -0.00000000000E+00 -0.00000000000E+00 -0.15623151449E+04  0.15623151449E+04  0.00000000000E+00 0.  1.
         -6    2    1    2    0  503  0.18429393521E+01  0.73879536569E+03 -0.12215082117E+04  0.14378835883E+04  0.17206078429E+03 0.  0.
        -24    2    3    3    0    0  0.55482586749E+02  0.43004208590E+03 -0.63890370414E+03  0.77632792037E+03  0.80452369184E+02 0.  0.
          6    2    1    2  501    0 -0.18429393521E+01 -0.73879536569E+03  0.38596390431E+03  0.85120239425E+03  0.17249751233E+03 0.  0.
         24    2    5    5    0    0 -0.12293008947E+02 -0.70838045456E+03  0.39811613487E+03  0.81650315102E+03  0.78911040418E+02 0.  0.
         14    1    6    6    0    0 -0.87445297284E+01 -0.39230853052E+03  0.26511403973E+03  0.47356932331E+03  0.00000000000E+00 0. -1.
        -13    1    6    6    0    0 -0.35484792188E+01 -0.31607192405E+03  0.13300209514E+03  0.34293382771E+03  0.00000000000E+00 0.  1.
          5    1    5    5  501    0  0.10450069595E+02 -0.30414911125E+02 -0.12152230564E+02  0.34699243233E+02  0.47000000000E+01 0. -1.
         13    1    4    4    0    0  0.23183200090E+02  0.25253354621E+03 -0.43948958090E+03  0.50740688254E+03  0.00000000000E+00 0. -1.
        -14    1    4    4    0    0  0.32299386659E+02  0.17750853969E+03 -0.19941412324E+03  0.26892103783E+03  0.00000000000E+00 0.  1.
         -5    1    3    3    0  503 -0.53639647397E+02  0.30875327979E+03 -0.58260450752E+03  0.66155566791E+03  0.47000000000E+01 0.  1.
</event>
<event>
12    1  0.1241818E+000  0.7151351E+03  0.7818608E-02  0.9691694E-01
         21   -1    0    0  501  502  0.00000000000E+00  0.00000000000E+00  0.12348376030E+04  0.12348376030E+04  0.00000000000E+00 0.  1.
         21   -1    0    0  502  503 -0.00000000000E+00 -0.00000000000E+00 -0.44520176178E+03  0.44520176178E+03  0.00000000000E+00 0. -1.
         -6    2    1    2    0  503  0.67663979146E+03  0.20236424741E+03  0.23326194328E+03  0.76345687255E+03  0.17222823823E+03 0.  0.
        -24    2    3    3    0    0  0.35632102535E+03  0.82063423238E+02  0.56313968970E+02  0.37821788720E+03  0.78602980593E+02 0.  0.
          6    2    1    2  501    0 -0.67663979146E+03 -0.20236424741E+03  0.55637389789E+03  0.91658249219E+03  0.17826624673E+03 0.  0.
         24    2    5    5    0    0 -0.14106085041E+03 -0.82482734246E+02  0.12478059063E+03  0.21836243221E+03  0.73555360334E+02 0.  0.
         12    1    6    6    0    0 -0.12375150554E+03 -0.61919800949E+02  0.65137041840E+02  0.15294224757E+03  0.00000000000E+00 0. -1.
        -11    1    6    6    0    0 -0.17309344877E+02 -0.20562933297E+02  0.59643548789E+02  0.65420184638E+02  0.00000000000E+00 0.  1.
          5    1    5    5  501    0 -0.53557894105E+03 -0.11988151316E+03  0.43159330726E+03  0.69822005998E+03  0.47000000000E+01 0. -1.
         13    1    4    4    0    0  0.31414985600E+00  0.10913528995E+02  0.25439277891E+01  0.11210502836E+02  0.00000000000E+00 0. -1.
        -14    1    4    4    0    0  0.35600687550E+03  0.71149894243E+02  0.53770041181E+02  0.36700738437E+03  0.00000000000E+00 0.  1.
         -5    1    3    3    0  503  0.32031876611E+03  0.12030082417E+03  0.17694797431E+03  0.38523898534E+03  0.47000000000E+01 0.  1.
</event>
<event>
12    1  0.9749377E-001  0.1610323E+03  0.7818608E-02  0.1187536E+00
         21   -1    0    0  503  502  0.00000000000E+00  0.00000000000E+00  0.83635993660E+02  0.83635993660E+02  0.00000000000E+00 0. -1.
         21   -1    0    0  501  503 -0.00000000000E+00 -0.00000000000E+00 -0.51070859400E+03  0.51070859400E+03  0.00000000000E+00 0. -1.
          6    2    1    2  501    0 -0.27260430012E+02 -0.77430251662E+02 -0.98398578891E+02  0.21433011065E+03  0.17180378659E+03 0.  0.
         24    2    3    3    0    0  0.44835992029E+02 -0.73256037317E+02 -0.71001428222E+02  0.13694786462E+03  0.79604030227E+02 0.  0.
         -6    2    1    2    0  502  0.27260430012E+02  0.77430251662E+02 -0.32867402145E+03  0.38001447701E+03  0.17217960229E+03 0.  0.
        -24    2    5    5    0    0  0.78737026673E+02  0.39472317861E+02 -0.26092346981E+03  0.28672529227E+03  0.79829523877E+02 0.  0.
         14    1    4    4    0    0  0.22958472413E+02 -0.71103737810E+02 -0.83184466164E+02  0.11181452677E+03  0.00000000000E+00 0. -1.
        -13    1    4    4    0    0  0.21877519616E+02 -0.21522995070E+01  0.12183037942E+02  0.25133337844E+02  0.00000000000E+00 0.  1.
          5    1    3    3  501    0 -0.72096422042E+02 -0.41742143449E+01 -0.27397150669E+02  0.77382246035E+02  0.47000000000E+01 0. -1.
         11    1    6    6    0    0  0.42819908863E+02  0.14874519998E+02 -0.36725434638E+02  0.58339981913E+02  0.00000000000E+00 0. -1.
        -12    1    6    6    0    0  0.35917117810E+02  0.24597797863E+02 -0.22419803518E+03  0.22838531036E+03  0.00000000000E+00 0.  1.
         -5    1    5    5    0  502 -0.51476596660E+02  0.37957933802E+02 -0.67750551635E+02  0.93289184737E+02  0.47000000000E+01 0.  1.
</event>
<event>
12    1  0.9749377E-001  0.1647423E+03  0.7818608E-02  0.1183444E+00
         21   -1    0    0  501  502  0.00000000000E+00  0.00000000000E+00  0.74021903891E+02  0.74021903891E+02  0.00000000000E+00 0.  1.
         21   -1    0    0  502  503 -0.00000000000E+00 -0.00000000000E+00 -0.87210747055E+03  0.87210747055E+03  0.00000000000E+00 0.  1.
         -6    2    1    2    0  503 -0.55864580932E+02  0.53561403256E+02 -0.80069701778E+02  0.20359615814E+03  0.17044225752E+03 0.  0.
        -24    2    3    3    0    0 -0.41697964388E+02 -0.19524477635E+02 -0.15526305761E+02  0.10495448856E+03  0.93029312780E+02 0.  0.
          6    2    1    2  501    0  0.55864580932E+02 -0.53561403256E+02 -0.71801586488E+03  0.74253321630E+03  0.17268213504E+03 0.  0.
         24    2    5    5    0    0 -0.11102709208E+02  0.16238711553E+02 -0.21402105846E+03  0.22931832089E+03  0.79968199453E+02 0.  0.
         12    1    6    6    0    0 -0.29873253188E+02  0.37815332352E+02 -0.17098427685E+03  0.17764580926E+03  0.00000000000E+00 0. -1.
        -11    1    6    6    0    0  0.18770543980E+02 -0.21576620799E+02 -0.43036781616E+02  0.51672511631E+02  0.00000000000E+00 0.  1.
          5    1    5    5  501    0  0.66967290140E+02 -0.69800114809E+02 -0.50399480641E+03  0.51321489541E+03  0.47000000000E+01 0. -1.
         11    1    4    4    0    0 -0.46852387553E+02  0.12763085776E+02  0.23578648410E+02  0.53981434204E+02  0.00000000000E+00 0. -1.
        -12    1    4    4    0    0  0.51544231653E+01 -0.32287563411E+02 -0.39104954171E+02  0.50973054351E+02  0.00000000000E+00 0.  1.
         -5    1    3    3    0  503 -0.14166616544E+02  0.73085880891E+02 -0.64543396017E+02  0.98641669589E+02  0.47000000000E+01 0.  1.
</event>
<event>
12    1  0.9749377E-001  0.2423192E+03  0.7818608E-02  0.1118257E+00
         21   -1    0    0  501  502  0.00000000000E+00  0.00000000000E+00  0.40005755524E+03  0.40005755524E+03  0.00000000000E+00 0. -1.
         21   -1    0    0  502  503 -0.00000000000E+00 -0.00000000000E+00 -0.17453697821E+03  0.17453697821E+03  0.00000000000E+00 0.  1.
         -6    2    1    2    0  503  0.19068414214E+02  0.19421232892E+03  0.17155637500E+03  0.31126575430E+03  0.17138479183E+03 0.  0.
        -24    2    3    3    0    0 -0.49877536332E+02  0.88763688670E+02  0.59570501134E+02  0.14263632101E+03  0.80185499984E+02 0.  0.
          6    2    1    2  501    0 -0.19068414214E+02 -0.19421232892E+03  0.53964202032E+02  0.26332877915E+03  0.16836827998E+03 0.  0.
         24    2    5    5    0    0 -0.63546883184E+02 -0.11673203890E+03 -0.58666126401E+01  0.15570282537E+03  0.80897326381E+02 0.  0.
         12    1    6    6    0    0 -0.60877281193E+02 -0.12046259672E+03 -0.23920985970E+02  0.13707477574E+03  0.00000000000E+00 0. -1.
        -11    1    6    6    0    0 -0.26696019911E+01  0.37305578268E+01  0.18054373330E+02  0.18628049625E+02  0.00000000000E+00 0.  1.
          5    1    5    5  501    0  0.44478468970E+02 -0.77480290028E+02  0.59830814672E+02  0.10762595379E+03  0.47000000000E+01 0. -1.
         13    1    4    4    0    0  0.12220640633E+02 -0.79705652397E+01  0.53560917874E+01  0.15542254886E+02  0.00000000000E+00 0. -1.
        -14    1    4    4    0    0 -0.62098176965E+02  0.96734253910E+02  0.54214409347E+02  0.12709406612E+03  0.00000000000E+00 0.  1.
         -5    1    3    3    0  503  0.68945950546E+02  0.10544864025E+03  0.11198587386E+03  0.16862943329E+03  0.47000000000E+01 0.  1.
</event>
<event>
12    1  0.9749377E-001  0.3391625E+03  0.7818608E-02  0.1067153E+00
         21   -1    0    0  501  502  0.00000000000E+00  0.00000000000E+00  0.27592643883E+04  0.27592643883E+04  0.00000000000E+00 0.  1.
         21   -1    0    0  502  503 -0.00000000000E+00 -0.00000000000E+00 -0.57483591295E+02  0.57483591295E+02  0.00000000000E+00 0. -1.
         -6    2    1    2    0  503 -0.26944312386E+03  0.16989655639E+03  0.19478092680E+04  0.19802802747E+04  0.16150722867E+03 0.  0.
        -24    2    3    3    0    0 -0.25409078423E+03  0.15532653505E+03  0.19219937040E+04  0.19465680633E+04  0.79868439305E+02 0.  0.
          6    2    1    2  501    0  0.26944312386E+03 -0.16989655639E+03  0.75397152899E+03  0.83646770490E+03  0.17245497366E+03 0.  0.
         24    2    5    5    0    0  0.19280044642E+03 -0.46633941639E+02  0.50208989490E+03  0.54572001395E+03  0.79808109932E+02 0.  0.
         12    1    6    6    0    0  0.10401845708E+03  0.13788096567E+00  0.33535856580E+03  0.35111995967E+03  0.00000000000E+00 0. -1.
        -11    1    6    6    0    0  0.88781989344E+02 -0.46771822604E+02  0.16673132910E+03  0.19460005428E+03  0.00000000000E+00 0.  1.
          5    1    5    5  501    0  0.76642677444E+02 -0.12326261475E+03  0.25188163409E+03  0.29074769095E+03  0.47000000000E+01 0. -1.
         13    1    4    4    0    0 -0.63676790450E+02  0.39491888626E+01  0.47594163074E+03  0.48019867306E+03  0.00000000000E+00 0. -1.
        -14    1    4    4    0    0 -0.19041399378E+03  0.15137734619E+03  0.14460520733E+04  0.14663693902E+04  0.00000000000E+00 0.  1.
         -5    1    3    3    0  503 -0.15352339635E+02  0.14570021336E+02  0.25815564021E+02  0.33712211434E+02  0.47000000000E+01 0.  1.
</event>
<event>
12    1  0.9749377E-001  0.5390334E+03  0.7818608E-02  0.1004065E+00
         21   -1    0    0  503  502  0.00000000000E+00  0.00000000000E+00  0.68182821032E+03  0.68182821032E+03  0.00000000000E+00 0.  1.
         21   -1    0    0  501  503 -0.00000000000E+00 -0.00000000000E+00 -0.52737194737E+03  0.52737194737E+03  0.00000000000E+00 0. -1.
          6    2    1    2  501    0 -0.68145587999E+02  0.51580778809E+03  0.32613047114E+03  0.63784554250E+03  0.17258144879E+03 0.  0.
         24    2    3    3    0    0 -0.10767686885E+03  0.33961535561E+03  0.19231738142E+03  0.41304668039E+03  0.81784394180E+02 0.  0.
         -6    2    1    2    0  502  0.68145587999E+02 -0.51580778809E+03 -0.17167420819E+03  0.57135461519E+03  0.16208814616E+03 0.  0.
        -24    2    5    5    0    0  0.62763896269E+02 -0.22107239483E+03 -0.12236367952E+03  0.27243734756E+03  0.80230467115E+02 0.  0.
         12    1    4    4    0    0 -0.10971557245E+03  0.23942904257E+03  0.15798943026E+03  0.30712283102E+03  0.00000000000E+00 0. -1.
        -11    1    4    4    0    0  0.20387035983E+01  0.10018631304E+03  0.34327951166E+02  0.10592384936E+03  0.00000000000E+00 0.  1.
          5    1    3    3  501    0  0.39531280849E+02  0.17619243248E+03  0.13381308971E+03  0.22479886211E+03  0.47000000000E+01 0. -1.
         11    1    6    6    0    0  0.24177974403E+02 -0.13073471136E+02  0.10796865045E+01  0.27507377496E+02  0.00000000000E+00 0. -1.
        -12    1    6    6    0    0  0.38585921867E+02 -0.20799892369E+03 -0.12344336602E+03  0.24492997007E+03  0.00000000000E+00 0.  1.
         -5    1    5    5    0  502  0.53816917300E+01 -0.29473539326E+03 -0.49310528670E+02  0.29891726763E+03  0.47000000000E+01 0.  1.
</event>
<event>
12    1  0.9749377E-001  0.5126351E+03  0.7818608E-02  0.1010533E+00
         21   -1    0    0  503  502  0.00000000000E+00  0.00000000000E+00  0.31749447052E+03  0.31749447052E+03  0.00000000000E+00 0. -1.
         21   -1    0    0  501  503 -0.00000000000E+00 -0.00000000000E+00 -0.92432557719E+03  0.92432557719E+03  0.00000000000E+00 0.  1.
          6    2    1    2  501    0 -0.33261303224E+03 -0.37143091642E+03 -0.16111986551E+03  0.55112585019E+03  0.17084418864E+03 0.  0.
         24    2    3    3    0    0 -0.64718760535E+02 -0.72231167215E+02 -0.32278306173E+02  0.12933198092E+03  0.79240221840E+02 0.  0.
         -6    2    1    2    0  502  0.33261303224E+03  0.37143091642E+03 -0.44571124116E+03  0.69069419752E+03  0.17264880280E+03 0.  0.
        -24    2    5    5    0    0  0.27136607732E+03  0.27934182263E+03 -0.26198539651E+03  0.47619742208E+03  0.80350700208E+02 0.  0.
         12    1    4    4    0    0  0.12859497549E+02 -0.21854623351E+02  0.10467818982E+02  0.27432945034E+02  0.00000000000E+00 0. -1.
        -11    1    4    4    0    0 -0.77578258083E+02 -0.50376543864E+02 -0.42746125155E+02  0.10189903589E+03  0.00000000000E+00 0.  1.
          5    1    3    3  501    0 -0.26789427171E+03 -0.29919974921E+03 -0.12884155933E+03  0.42179386927E+03  0.47000000000E+01 0. -1.
         11    1    6    6    0    0  0.47138179670E+02  0.17329928058E+02 -0.52711567990E+02  0.72806893829E+02  0.00000000000E+00 0. -1.
        -12    1    6    6    0    0  0.22422789765E+03  0.26201189457E+03 -0.20927382852E+03  0.40339052825E+03  0.00000000000E+00 0.  1.
         -5    1    5    5    0  502  0.61246954920E+02  0.92089093791E+02 -0.18372584465E+03  0.21449677544E+03  0.47000000000E+01 0.  1.
</event>
<event>
12    1  0.9749377E-001  0.2272066E+03  0.7818608E-02  0.1128621E+00
         21   -1    0    0  503  502  0.00000000000E+00  0.00000000000E+00  0.70353009841E+03  0.70353009841E+03  0.00000000000E+00 0. -1.
         21   -1    0    0  501  503 -0.00000000000E+00 -0.00000000000E+00 -0.12114658970E+03  0.12114658970E+03  0.00000000000E+00 0.  1.
          6    2    1    2  501    0 -0.16189289151E+03  0.11428122282E+03  0.10876752156E+03  0.28367246511E+03  0.17137732493E+03 0.  0.
         24    2    3    3    0    0 -0.33172952576E+02  0.10470840172E+02  0.73510793888E+02  0.11452594557E+03  0.80636667303E+02 0.  0.
         -6    2    1    2    0  502  0.16189289151E+03 -0.11428122282E+03  0.47361598716E+03  0.54100422301E+03  0.17059882710E+03 0.  0.
        -24    2    5    5    0    0  0.75721847340E+02 -0.12988037486E+03  0.35897835958E+03  0.39666899496E+03  0.76668891860E+02 0.  0.
         14    1    4    4    0    0 -0.37528649873E+02  0.19536051291E+01  0.88837424450E+02  0.96458820836E+02  0.00000000000E+00 0. -1.
        -13    1    4    4    0    0  0.43556972967E+01  0.85172350430E+01 -0.15326630561E+02  0.18067124732E+02  0.00000000000E+00 0.  1.
          5    1    3    3  501    0 -0.12871993894E+03  0.10381038265E+03  0.35256727672E+02  0.16914651954E+03  0.47000000000E+01 0. -1.
         11    1    6    6    0    0  0.53423949229E+01  0.10931363078E+01  0.83062861635E+02  0.83241666931E+02  0.00000000000E+00 0. -1.
        -12    1    6    6    0    0  0.70379452417E+02 -0.13097351117E+03  0.27591549794E+03  0.31342732803E+03  0.00000000000E+00 0.  1.
         -5    1    5    5    0  502  0.86171044172E+02  0.15599152039E+02  0.11463762758E+03  0.14433522804E+03  0.47000000000E+01 0.  1.
</event>
<event>
12    1  0.9749377E-001  0.1449334E+03  0.7818608E-02  0.1206841E+00
         21   -1    0    0  503  502  0.00000000000E+00  0.00000000000E+00  0.77510837278E+03  0.77510837278E+03  0.00000000000E+00 0. -1.
         21   -1    0    0  501  503 -0.00000000000E+00 -0.00000000000E+00 -0.45402749335E+02  0.45402749335E+02  0.00000000000E+00 0. -1.
          6    2    1    2  501    0  0.24921539475E+02  0.32253616275E+01  0.52077819683E+03  0.54905021075E+03  0.17208927204E+03 0.  0.
         24    2    3    3    0    0  0.52870455126E+02  0.72069800707E+01  0.50898656447E+03  0.51809657179E+03  0.80681530102E+02 0.  0.
         -6    2    1    2    0  502 -0.24921539475E+02 -0.32253616275E+01  0.20892742662E+03  0.27146091136E+03  0.17149014758E+03 0.  0.
        -24    2    5    5    0    0  0.28821991883E+02  0.48957094217E+02  0.13965081842E+03  0.16932025195E+03  0.77068101998E+02 0.  0.
         14    1    4    4    0    0  0.25833302733E+02  0.43389457696E+02  0.30662389441E+03  0.31075427139E+03  0.00000000000E+00 0. -1.
        -13    1    4    4    0    0  0.27037152393E+02 -0.36182477625E+02  0.20236267007E+03  0.20734230040E+03  0.00000000000E+00 0.  1.
          5    1    3    3  501    0 -0.27948915651E+02 -0.39816184432E+01  0.11791632352E+02  0.30953638963E+02  0.47000000000E+01 0. -1.
         11    1    6    6    0    0  0.37332961191E+02 -0.33934770894E+01  0.31897316590E+02  0.49220976054E+02  0.00000000000E+00 0. -1.
        -12    1    6    6    0    0 -0.85109693089E+01  0.52350571307E+02  0.10775350183E+03  0.12009927590E+03  0.00000000000E+00 0.  1.
         -5    1    5    5    0  502 -0.53743531357E+02 -0.52182455845E+02  0.69276608195E+02  0.10214065941E+03  0.47000000000E+01 0.  1.
</event>
<event>
12    1  0.1062169E+000  0.9982820E+03  0.7818608E-02  0.9310431E-01
         21   -1    0    0  501  502  0.00000000000E+00  0.00000000000E+00  0.21044230393E+04  0.21044230393E+04  0.00000000000E+00 0. -1.
         21   -1    0    0  502  503 -0.00000000000E+00 -0.00000000000E+00 -0.84125389182E+03  0.84125389182E+03  0.00000000000E+00 0.  1.
         -6    2    1    2    0  503 -0.67157725560E+03 -0.73409147780E+03  0.15906994637E+04  0.18841901379E+04  0.17303578798E+03 0.  0.
        -24    2    3    3    0    0 -0.28277247015E+03 -0.33759709544E+03  0.60732017351E+03  0.75483905218E+03  0.83738478740E+02 0.  0.
          6    2    1    2  501    0  0.67157725560E+03  0.73409147780E+03 -0.32753031626E+03  0.10614867932E+04  0.17196451972E+03 0.  0.
         24    2    5    5    0    0  0.58901955263E+03  0.66829242367E+03 -0.33626660291E+03  0.95545046665E+03  0.79066864537E+02 0.  0.
         12    1    6    6    0    0  0.36114110461E+03  0.46371783133E+03 -0.20870404774E+03  0.62371027254E+03  0.00000000000E+00 0. -1.
        -11    1    6    6    0    0  0.22787844802E+03  0.20457459234E+03 -0.12756255517E+03  0.33174019411E+03  0.00000000000E+00 0.  1.
          5    1    5    5  501    0  0.82557702965E+02  0.65799054124E+02  0.87362866473E+01  0.10603632654E+03  0.47000000000E+01 0. -1.
         13    1    4    4    0    0 -0.26295677147E+03 -0.29903916707E+03  0.58018890672E+03  0.70369727482E+03  0.00000000000E+00 0. -1.
        -14    1    4    4    0    0 -0.19815698682E+02 -0.38557928371E+02  0.27131266791E+02  0.51141777366E+02  0.00000000000E+00 0.  1.
         -5    1    3    3    0  503 -0.38880478544E+03 -0.39649438235E+03  0.98337929024E+03  0.11293510858E+04  0.47000000000E+01 0.  1.
</event>
<event>
12    1  0.9749377E-001  0.6254678E+03  0.7818608E-02  0.9853933E-01
         21   -1    0    0  501  502  0.00000000000E+00  0.00000000000E+00  0.46308822806E+03  0.46308822806E+03  0.00000000000E+00 0.  1.
         21   -1    0    0  502  503 -0.00000000000E+00 -0.00000000000E+00 -0.12154264935E+04  0.12154264935E+04  0.00000000000E+00 0. -1.
         -6    2    1    2    0  503 -0.56653847049E+03 -0.21996220073E+03  0.76780867583E+02  0.63623776747E+03  0.17191273029E+03 0.  0.
        -24    2    3    3    0    0 -0.40778683087E+03 -0.22515286928E+03  0.61870840386E+02  0.47663380439E+03  0.79798926173E+02 0.  0.
          6    2    1    2  501    0  0.56653847049E+03  0.21996220073E+03 -0.82911913306E+03  0.10422769541E+04  0.17191132600E+03 0.  0.
         24    2    5    5    0    0  0.30936201258E+03  0.17894871234E+03 -0.54673708928E+03  0.65811091531E+03  0.80380567192E+02 0.  0.
         14    1    6    6    0    0  0.73170180476E+02  0.81113074121E+02 -0.19111424753E+03  0.22013146462E+03  0.00000000000E+00 0. -1.
        -13    1    6    6    0    0  0.23619183211E+03  0.97835638221E+02 -0.35562284174E+03  0.43797945069E+03  0.00000000000E+00 0.  1.
          5    1    5    5  501    0  0.25717645790E+03  0.41013488391E+02 -0.28238204378E+03  0.38416603882E+03  0.47000000000E+01 0. -1.
         11    1    4    4    0    0 -0.10917652809E+03 -0.46258060672E+02 -0.16803934734E+02  0.11975681477E+03  0.00000000000E+00 0. -1.
        -12    1    4    4    0    0 -0.29861030279E+03 -0.17889480861E+03  0.78674775121E+02  0.35687698962E+03  0.00000000000E+00 0.  1.
         -5    1    3    3    0  503 -0.15875163961E+03  0.51906685463E+01  0.14910027197E+02  0.15960396308E+03  0.47000000000E+01 0.  1.
</event>
<event>
12    1  0.9749377E-001  0.4573540E+03  0.7818608E-02  0.1025551E+00
         21   -1    0    0  503  502  0.00000000000E+00  0.00000000000E+00  0.29104054490E+03  0.29104054490E+03  0.00000000000E+00 0. -1.
         21   -1    0    0  501  503 -0.00000000000E+00 -0.00000000000E+00 -0.87304982056E+03  0.87304982056E+03  0.00000000000E+00 0.  1.
          6    2    1    2  501    0 -0.40989905615E+03  0.16338604801E+03 -0.49006108545E+03  0.68154899724E+03  0.17215380116E+03 0.  0.
         24    2    3    3    0    0 -0.16972171295E+03  0.16861544932E+02 -0.15587069814E+03  0.24467385357E+03  0.80497506407E+02 0.  0.
         -6    2    1    2    0  502  0.40989905615E+03 -0.16338604801E+03 -0.91948190207E+02  0.48254136821E+03  0.17227729229E+03 0.  0.
        -24    2    5    5    0    0  0.29743199165E+03 -0.14284101966E+03 -0.64818105994E+01  0.33972144373E+03  0.80618229359E+02 0.  0.
         14    1    4    4    0    0 -0.42767868089E+02 -0.30782689696E+02 -0.49982655318E+02  0.72628715798E+02  0.00000000000E+00 0. -1.
        -13    1    4    4    0    0 -0.12695384486E+03  0.47644234628E+02 -0.10588804282E+03  0.17204513777E+03  0.00000000000E+00 0.  1.
          5    1    3    3  501    0 -0.24017734320E+03  0.14652450308E+03 -0.33419038731E+03  0.43687514367E+03  0.47000000000E+01 0. -1.
         13    1    6    6    0    0  0.41219123763E+02 -0.28020406807E+02  0.27472111896E+02  0.56911126271E+02  0.00000000000E+00 0. -1.
        -14    1    6    6    0    0  0.25621286789E+03 -0.11482061286E+03 -0.33953922495E+02  0.28281031746E+03  0.00000000000E+00 0.  1.
         -5    1    5    5    0  502  0.11246706450E+03 -0.20545028347E+02 -0.85466379607E+02  0.14281992448E+03  0.47000000000E+01 0.  1.
</event>
<event>
12    1  0.9749377E-001  0.2871387E+03  0.7818608E-02  0.1091853E+00
         21   -1    0    0  503  502  0.00000000000E+00  0.00000000000E+00  0.10605571536E+04  0.10605571536E+04  0.00000000000E+00 0. -1.
         21   -1    0    0  501  503 -0.00000000000E+00 -0.00000000000E+00 -0.12338464592E+03  0.12338464592E+03  0.00000000000E+00 0.  1.
          6    2    1    2  501    0 -0.23420338922E+03  0.52658904303E+01  0.81881710511E+03  0.86968143978E+03  0.17608349707E+03 0.  0.
         24    2    3    3    0    0 -0.23711940145E+02  0.23085851747E+02  0.24524286110E+03  0.25842559763E+03  0.74461506411E+02 0.  0.
         -6    2    1    2    0  502  0.23420338922E+03 -0.52658904303E+01  0.11835540262E+03  0.31426035979E+03  0.17283696156E+03 0.  0.
        -24    2    5    5    0    0  0.24737750730E+03 -0.28645137541E+02  0.93781615146E+02  0.27757102056E+03  0.78958882286E+02 0.  0.
         12    1    4    4    0    0  0.19605867396E+02  0.24219056422E+02  0.15765455997E+03  0.16070442748E+03  0.00000000000E+00 0. -1.
        -11    1    4    4    0    0 -0.43317807541E+02 -0.11332046751E+01  0.87588301121E+02  0.97721170155E+02  0.00000000000E+00 0.  1.
          5    1    3    3  501    0 -0.21049144908E+03 -0.17819961316E+02  0.57357424402E+03  0.61125584214E+03  0.47000000000E+01 0. -1.
         11    1    6    6    0    0  0.19485206238E+03 -0.55016449189E+02  0.72013247935E+02  0.21489542520E+03  0.00000000000E+00 0. -1.
        -12    1    6    6    0    0  0.52525444917E+02  0.26371311648E+02  0.21768367211E+02  0.62675595353E+02  0.00000000000E+00 0.  1.
         -5    1    5    5    0  502 -0.13174118078E+02  0.23379247111E+02  0.24573787472E+02  0.36689339233E+02  0.47000000000E+01 0.  1.
</event>
<event>
12    1  0.9749377E-001  0.2265123E+03  0.7818608E-02  0.1129119E+00
         21   -1    0    0  501  502  0.00000000000E+00  0.00000000000E+00  0.75892668583E+03  0.75892668583E+03  0.00000000000E+00 0.  1.
         21   -1    0    0  502  503 -0.00000000000E+00 -0.00000000000E+00 -0.11437457417E+03  0.11437457417E+03  0.00000000000E+00 0. -1.
         -6    2    1    2    0  503 -0.11185977859E+03 -0.13598953151E+03  0.85352364371E+02  0.26207876924E+03  0.17434016300E+03 0.  0.
        -24    2    3    3    0    0 -0.16032497735E+02 -0.10538801441E+03  0.49658112619E+01  0.13322455500E+03  0.79752418200E+02 0.  0.
          6    2    1    2  501    0  0.11185977859E+03  0.13598953151E+03  0.55919974729E+03  0.61122249076E+03  0.17286646030E+03 0.  0.
         24    2    5    5    0    0  0.12603087918E+03  0.65221660950E+02  0.46676183229E+03  0.49385226573E+03  0.76718998400E+02 0.  0.
         12    1    6    6    0    0  0.72941023826E+02  0.99415910191E+01  0.13946823518E+03  0.15770420671E+03  0.00000000000E+00 0. -1.
        -11    1    6    6    0    0  0.53089855353E+02  0.55280069930E+02  0.32729359711E+03  0.33614805902E+03  0.00000000000E+00 0.  1.
          5    1    5    5  501    0 -0.14171100587E+02  0.70767870561E+02  0.92437914997E+02  0.11737022503E+03  0.47000000000E+01 0. -1.
         13    1    4    4    0    0 -0.43690727281E+02 -0.42131816484E+02  0.17254994390E+02  0.63100748347E+02  0.00000000000E+00 0. -1.
        -14    1    4    4    0    0  0.27658229545E+02 -0.63256197928E+02 -0.12289183128E+02  0.70123806655E+02  0.00000000000E+00 0.  1.
         -5    1    3    3    0  503 -0.95827280856E+02 -0.30601517099E+02  0.80386553109E+02  0.12885421423E+03  0.47000000000E+01 0.  1.
</event>
<event>
12    1  0.9749377E-001  0.1241910E+04  0.7818608E-02  0.9076943E-01
         21   -1    0    0  503  502  0.00000000000E+00  0.00000000000E+00  0.11199850743E+04  0.11199850743E+04  0.00000000000E+00 0. -1.
         21   -1    0    0  501  503 -0.00000000000E+00 -0.00000000000E+00 -0.14442252933E+04  0.14442252933E+04  0.00000000000E+00 0.  1.
          6    2    1    2  501    0 -0.11282658060E+04 -0.50432771313E+03  0.87312597796E+02  0.12506052387E+04  0.17046935883E+03 0.  0.
         24    2    3    3    0    0 -0.99924029573E+03 -0.39167511971E+03  0.82472827854E+02  0.10791884879E+04  0.77171607989E+02 0.  0.
         -6    2    1    2    0  502  0.11282658060E+04  0.50432771313E+03 -0.41155281684E+03  0.13136051289E+04  0.16986036176E+03 0.  0.
        -24    2    5    5    0    0  0.47498108048E+03  0.25309084489E+03 -0.13254505562E+03  0.56010110281E+03  0.80517395773E+02 0.  0.
         14    1    4    4    0    0 -0.87936824881E+03 -0.32768937446E+03  0.51672994060E+02  0.93986112882E+03  0.00000000000E+00 0. -1.
        -13    1    4    4    0    0 -0.11987204692E+03 -0.63985745249E+02  0.30799833795E+02  0.13932735909E+03  0.00000000000E+00 0.  1.
          5    1    3    3  501    0 -0.12902551022E+03 -0.11265259341E+03  0.48397699421E+01  0.17141675083E+03  0.47000000000E+01 0. -1.
         13    1    6    6    0    0  0.15486591454E+03  0.83695052628E+02 -0.82775484883E+02  0.19452530483E+03  0.00000000000E+00 0. -1.
        -14    1    6    6    0    0  0.32011516594E+03  0.16939579226E+03 -0.49769570733E+02  0.36557579799E+03  0.00000000000E+00 0.  1.
         -5    1    5    5    0  502  0.65328472547E+03  0.25123686824E+03 -0.27900776122E+03  0.75350402608E+03  0.47000000000E+01 0.  1.
</event>
<event>
12    1  0.9749377E-001  0.3310144E+03  0.7818608E-02  0.1070689E+00
         21   -1    0    0  503  502  0.00000000000E+00  0.00000000000E+00  0.57259866851E+03  0.57259866851E+03  0.00000000000E+00 0.  1.
         21   -1    0    0  501  503 -0.00000000000E+00 -0.00000000000E+00 -0.32533385332E+03  0.32533385332E+03  0.00000000000E+00 0. -1.
          6    2    1    2  501    0 -0.25725729347E+03 -0.16349707570E+03  0.38640531877E+03  0.52094938190E+03  0.17078225705E+03 0.  0.
         24    2    3    3    0    0 -0.17746007950E+03 -0.13289140365E+03  0.36224150300E+03  0.43200961290E+03  0.79127707889E+02 0.  0.
         -6    2    1    2    0  502  0.25725729347E+03  0.16349707570E+03 -0.13914050358E+03  0.37698313993E+03  0.17275300070E+03 0.  0.
        -24    2    5    5    0    0  0.22755153891E+03  0.74598512129E+02 -0.75706743464E+02  0.26370773050E+03  0.80409049535E+02 0.  0.
         12    1    4    4    0    0 -0.13186065572E+03 -0.51503906394E+02  0.20376966217E+03  0.24811682757E+03  0.00000000000E+00 0. -1.
        -11    1    4    4    0    0 -0.45599423778E+02 -0.81387497257E+02  0.15847184083E+03  0.18389278533E+03  0.00000000000E+00 0.  1.
          5    1    3    3  501    0 -0.79797213967E+02 -0.30605672051E+02  0.24163815771E+02  0.88939769008E+02  0.47000000000E+01 0. -1.
         13    1    6    6    0    0  0.96885356303E+02 -0.76978337138E+00 -0.47421738324E+01  0.97004397040E+02  0.00000000000E+00 0. -1.
        -14    1    6    6    0    0  0.13066618261E+03  0.75368295501E+02 -0.70964569631E+02  0.16670333346E+03  0.00000000000E+00 0.  1.
         -5    1    5    5    0  502  0.29705754553E+02  0.88898563573E+02 -0.63433760117E+02  0.11327540943E+03  0.47000000000E+01 0.  1.
</event>
<event>
12    1  0.9749377E-001  0.2261421E+03  0.7818608E-02  0.1129385E+00
         21   -1    0    0  501  502  0.00000000000E+00  0.00000000000E+00  0.38201398399E+03  0.38201398399E+03  0.00000000000E+00 0.  1.
         21   -1    0    0  502  503 -0.00000000000E+00 -0.00000000000E+00 -0.19504517397E+03  0.19504517397E+03  0.00000000000E+00 0. -1.
         -6    2    1    2    0  503  0.57894477765E+01 -0.18878165685E+03 -0.47545478565E+01  0.25565990637E+03  0.17224212705E+03 0.  0.
        -24    2    3    3    0    0 -0.19522039131E+02 -0.18521631672E+03 -0.45010415083E+02  0.20774323009E+03  0.80281493463E+02 0.  0.
          6    2    1    2  501    0 -0.57894477765E+01  0.18878165685E+03  0.19172335788E+03  0.32139925159E+03  0.17569177925E+03 0.  0.
         24    2    5    5    0    0  0.44932071020E+02  0.14458818231E+03  0.71749655016E+02  0.18377107483E+03  0.75492790900E+02 0.  0.
         14    1    6    6    0    0 -0.31982564342E+01  0.54643730089E+02 -0.66126375885E+01  0.55135225202E+02  0.00000000000E+00 0. -1.
        -13    1    6    6    0    0  0.48130327454E+02  0.89944452224E+02  0.78362292604E+02  0.12863584963E+03  0.00000000000E+00 0.  1.
          5    1    5    5  501    0 -0.50721518796E+02  0.44193474542E+02  0.11997370286E+03  0.13762817676E+03  0.47000000000E+01 0. -1.
         13    1    4    4    0    0 -0.46808108211E+02 -0.15241305770E+03 -0.28360890318E+02  0.16194159209E+03  0.00000000000E+00 0. -1.
        -14    1    4    4    0    0  0.27286069081E+02 -0.32803259022E+02 -0.16649524764E+02  0.45801637997E+02  0.00000000000E+00 0.  1.
         -5    1    3    3    0  503  0.25311486907E+02 -0.35653401364E+01  0.40255867226E+02  0.47916676282E+02  0.47000000000E+01 0.  1.
</event>
<event>
12    1  0.9749377E-001  0.4118563E+03  0.7818608E-02  0.1039750E+00
         21   -1    0    0  501  502  0.00000000000E+00  0.00000000000E+00  0.22364098896E+03  0.22364098896E+03  0.00000000000E+00 0. -1.
         21   -1    0    0  502  503 -0.00000000000E+00 -0.00000000000E+00 -0.81776883858E+03  0.81776883858E+03  0.00000000000E+00 0.  1.
         -6    2    1    2    0  503 -0.16455692723E+03 -0.35487467650E+03 -0.29381138445E+03  0.51908251901E+03  0.17351228657E+03 0.  0.
        -24    2    3    3    0    0 -0.91544244770E+02 -0.27128940535E+03 -0.13809727662E+03  0.32780700377E+03  0.80051756408E+02 0.  0.
          6    2    1    2  501    0  0.16455692723E+03  0.35487467650E+03 -0.30031646518E+03  0.52232730854E+03  0.17210700064E+03 0.  0.
         24    2    5    5    0    0  0.18021790275E+03  0.24396217133E+03 -0.19855791546E+03  0.37092142226E+03  0.78494727167E+02 0.  0.
         14    1    6    6    0    0  0.10839057568E+03  0.20383931974E+03 -0.14110373687E+03  0.27057207862E+03  0.00000000000E+00 0. -1.
        -13    1    6    6    0    0  0.71827327064E+02  0.40122851587E+02 -0.57454178586E+02  0.10034934364E+03  0.00000000000E+00 0.  1.
          5    1    5    5  501    0 -0.15660975519E+02  0.11091250517E+03 -0.10175854972E+03  0.15140588627E+03  0.47000000000E+01 0. -1.
         13    1    4    4    0    0 -0.83238122743E+01 -0.55091952209E+02  0.42961792896E+01  0.55882610940E+02  0.00000000000E+00 0. -1.
        -14    1    4    4    0    0 -0.83220432496E+02 -0.21619745314E+03 -0.14239345591E+03  0.27192439283E+03  0.00000000000E+00 0.  1.
         -5    1    3    3    0  503 -0.73012682460E+02 -0.83585271147E+02 -0.15571410783E+03  0.19127551524E+03  0.47000000000E+01 0.  1.
</event>
<event>
12    1  0.9749377E-001  0.3373247E+03  0.7818608E-02  0.1067941E+00
         21   -1    0    0  501  502  0.00000000000E+00  0.00000000000E+00  0.16447438070E+03  0.16447438070E+03  0.00000000000E+00 0.  1.
         21   -1    0    0  502  503 -0.00000000000E+00 -0.00000000000E+00 -0.76373284456E+03  0.76373284456E+03  0.00000000000E+00 0. -1.
         -6    2    1    2    0  503  0.17403794798E+03 -0.24306627770E+03 -0.40619970300E+03  0.53297605864E+03  0.17232195935E+03 0.  0.
        -24    2    3    3    0    0  0.34614285390E+02 -0.16045174847E+03 -0.19793383192E+03  0.26904257993E+03  0.79140354148E+02 0.  0.
          6    2    1    2  501    0 -0.17403794798E+03  0.24306627770E+03 -0.19305876086E+03  0.39523116661E+03  0.17194640800E+03 0.  0.
         24    2    5    5    0    0 -0.16818249132E+03  0.25693254899E+03 -0.15303495575E+03  0.35221309102E+03  0.79590694715E+02 0.  0.
         12    1    6    6    0    0 -0.10704355169E+03  0.22020548186E+03 -0.10617493570E+03  0.26687430219E+03  0.00000000000E+00 0. -1.
        -11    1    6    6    0    0 -0.61138939633E+02  0.36727067131E+02 -0.46860020043E+02  0.85338788824E+02  0.00000000000E+00 0.  1.
          5    1    5    5  501    0 -0.58554566553E+01 -0.13866271289E+02 -0.40023805113E+02  0.43018075594E+02  0.47000000000E+01 0. -1.
         13    1    4    4    0    0 -0.24081794921E+02 -0.43088569237E+02 -0.38813726001E+02  0.62793813163E+02  0.00000000000E+00 0. -1.
        -14    1    4    4    0    0  0.58696080311E+02 -0.11736317924E+03 -0.15912010592E+03  0.20624876677E+03  0.00000000000E+00 0.  1.
         -5    1    3    3    0  503  0.13942366259E+03 -0.82614529232E+02 -0.20826587108E+03  0.26393347871E+03  0.47000000000E+01 0.  1.
</event>
<event>
12    1  0.9749377E-001  0.2615791E+03  0.7818608E-02  0.1106198E+00
         21   -1    0    0  501  502  0.00000000000E+00  0.00000000000E+00  0.42671032059E+03  0.42671032059E+03  0.00000000000E+00 0.  1.
         21   -1    0    0  502  503 -0.00000000000E+00 -0.00000000000E+00 -0.30175881479E+03  0.30175881479E+03  0.00000000000E+00 0. -1.
         -6    2    1    2    0  503 -0.88133068975E+02  0.23648652657E+03  0.25275933974E+03  0.39819022708E+03  0.17599675570E+03 0.  0.
        -24    2    3    3    0    0 -0.83985921993E+02  0.18460980619E+03  0.26556942703E+03  0.34438891407E+03  0.83319793123E+02 0.  0.
          6    2    1    2  501    0  0.88133068975E+02 -0.23648652657E+03 -0.12780783395E+03  0.33027890830E+03  0.17045820530E+03 0.  0.
         24    2    5    5    0    0  0.84360736599E+02 -0.23157301321E+03 -0.15505215359E+03  0.30194666416E+03  0.79923859652E+02 0.  0.
         14    1    6    6    0    0  0.95941562894E+02 -0.16192973105E+03 -0.11891353183E+03  0.22263523832E+03  0.00000000000E+00 0. -1.
        -13    1    6    6    0    0 -0.11580826295E+02 -0.69643282153E+02 -0.36138621766E+02  0.79311425847E+02  0.00000000000E+00 0.  1.
          5    1    5    5  501    0  0.37723323760E+01 -0.49135133644E+01  0.27244319644E+02  0.28332244139E+02  0.47000000000E+01 0. -1.
         11    1    4    4    0    0 -0.74302193945E+02  0.17710316341E+03  0.27001705642E+03  0.33135412669E+03  0.00000000000E+00 0. -1.
        -12    1    4    4    0    0 -0.96837280480E+01  0.75066427756E+01 -0.44476293959E+01  0.13034787375E+02  0.00000000000E+00 0.  1.
         -5    1    3    3    0  503 -0.41471469824E+01  0.51876720381E+02 -0.12810087286E+02  0.53801313012E+02  0.47000000000E+01 0.  1.
</event>
<event>
12    1  0.9749377E-001  0.6019085E+03  0.7818608E-02  0.9901454E-01
         21   -1    0    0  501  502  0.00000000000E+00  0.00000000000E+00  0.22276768231E+03  0.22276768231E+03  0.00000000000E+00 0.  1.
         21   -1    0    0  502  503 -0.00000000000E+00 -0.00000000000E+00 -0.17170357427E+04  0.17170357427E+04  0.00000000000E+00 0. -1.
         -6    2    1    2    0  503 -0.58326068530E+03 -0.11161060252E+03 -0.73147208111E+03  0.95833182050E+03  0.17520992873E+03 0.  0.
        -24    2    3    3    0    0 -0.45334672595E+03 -0.93435013227E+02 -0.65625953568E+03  0.80704730090E+03  0.79971320451E+02 0.  0.
          6    2    1    2  501    0  0.58326068530E+03  0.11161060252E+03 -0.76279597927E+03  0.98147160449E+03  0.16964330468E+03 0.  0.
         24    2    5    5    0    0  0.22318355149E+03 -0.64541049047E+01 -0.26049202994E+03  0.35224496413E+03  0.79798897023E+02 0.  0.
         14    1    6    6    0    0  0.61575746339E+02 -0.28021406895E+02 -0.11652165907E+03  0.13473703579E+03  0.00000000000E+00 0. -1.
        -13    1    6    6    0    0  0.16160780515E+03  0.21567301990E+02 -0.14397037087E+03  0.21750792833E+03  0.00000000000E+00 0.  1.
          5    1    5    5  501    0  0.36007713381E+03  0.11806470742E+03 -0.50230394933E+03  0.62922664037E+03  0.47000000000E+01 0. -1.
         11    1    4    4    0    0 -0.40212705597E+02 -0.94744992793E+01 -0.10664357703E+03  0.11436643017E+03  0.00000000000E+00 0. -1.
        -12    1    4    4    0    0 -0.41313402035E+03 -0.83960513948E+02 -0.54961595865E+03  0.69268087073E+03  0.00000000000E+00 0.  1.
         -5    1    3    3    0  503 -0.12991395935E+03 -0.18175589289E+02 -0.75212545434E+02  0.15128451960E+03  0.47000000000E+01 0.  1.
</event>
<event>
12    1  0.9749377E-001  0.1842373E+03  0.7818608E-02  0.1163764E+00
         21   -1    0    0  503  502  0.00000000000E+00  0.00000000000E+00  0.20428622759E+02  0.20428622759E+02  0.00000000000E+00 0.  1.
         21   -1    0    0  501  503 -0.00000000000E+00 -0.00000000000E+00 -0.26450594658E+04  0.26450594658E+04  0.00000000000E+00 0. -1.
          6    2    1    2  501    0 -0.54704515489E+02 -0.13367775883E+03 -0.96186090140E+03  0.98727893277E+03  0.16935456958E+03 0.  0.
         24    2    3    3    0    0 -0.57473323391E+02 -0.69999603516E+02 -0.84828290551E+03  0.85695385878E+03  0.81135078120E+02 0.  0.
         -6    2    1    2    0  502  0.54704515489E+02  0.13367775883E+03 -0.16627699417E+04  0.16782091558E+04  0.17527054664E+03 0.  0.
        -24    2    5    5    0    0  0.39275340838E+02 -0.12579285507E+01 -0.75078171909E+03  0.75615150725E+03  0.80918337905E+02 0.  0.
         14    1    4    4    0    0 -0.64901183134E+02 -0.17753963652E+02 -0.54164250715E+03  0.54580580095E+03  0.00000000000E+00 0. -1.
        -13    1    4    4    0    0  0.74278597428E+01 -0.52245639864E+02 -0.30664039837E+03  0.31114805784E+03  0.00000000000E+00 0.  1.
          5    1    3    3  501    0  0.27688079021E+01 -0.63678155312E+02 -0.11357799588E+03  0.13032507399E+03  0.47000000000E+01 0. -1.
         13    1    6    6    0    0  0.42929047510E+02 -0.51912534254E+01 -0.17224749229E+03  0.17759237268E+03  0.00000000000E+00 0. -1.
        -14    1    6    6    0    0 -0.36537066716E+01  0.39333248747E+01 -0.57853422680E+03  0.57855913457E+03  0.00000000000E+00 0.  1.
         -5    1    5    5    0  502  0.15429174651E+02  0.13493568738E+03 -0.91198822257E+03  0.92205764856E+03  0.47000000000E+01 0.  1.
</event>
<event>
12    1  0.9749377E-001  0.2640761E+03  0.7818608E-02  0.1104719E+00
         21   -1    0    0  501  502  0.00000000000E+00  0.00000000000E+00  0.39555426336E+03  0.39555426336E+03  0.00000000000E+00 0. -1.
         21   -1    0    0  502  503 -0.00000000000E+00 -0.00000000000E+00 -0.24124101019E+03  0.24124101019E+03  0.00000000000E+00 0.  1.
         -6    2    1    2    0  503 -0.24103346805E+03 -0.68950611856E+02  0.18869970350E+02  0.30471743411E+03  0.17217816144E+03 0.  0.
        -24    2    3    3    0    0 -0.15392640227E+03 -0.27540527798E+02  0.78156174510E+02  0.19140644624E+03  0.77950125458E+02 0.  0.
          6    2    1    2  501    0  0.24103346805E+03  0.68950611856E+02  0.13544328282E+03  0.33207783943E+03  0.17052709165E+03 0.  0.
         24    2    5    5    0    0  0.23408296013E+03  0.82316278602E+02  0.77245554334E+02  0.27177845130E+03  0.79535205921E+02 0.  0.
         14    1    6    6    0    0  0.23148465692E+03  0.92234522269E+02  0.78935861658E+02  0.26138711473E+03  0.00000000000E+00 0. -1.
        -13    1    6    6    0    0  0.25983032081E+01 -0.99182436664E+01 -0.16903073239E+01  0.10391336576E+02  0.00000000000E+00 0.  1.
          5    1    5    5  501    0  0.69505079125E+01 -0.13365666746E+02  0.58197728488E+02  0.60299388131E+02  0.47000000000E+01 0. -1.
         11    1    4    4    0    0 -0.88118392397E+02 -0.15577291283E+02  0.12639157991E+01  0.89493578348E+02  0.00000000000E+00 0. -1.
        -12    1    4    4    0    0 -0.65808009877E+02 -0.11963236515E+02  0.76892258711E+02  0.10191286789E+03  0.00000000000E+00 0.  1.
         -5    1    3    3    0  503 -0.87107065771E+02 -0.41410084058E+02 -0.59286204159E+02  0.11331098787E+03  0.47000000000E+01 0.  1.
</event>
<event>
12    1  0.9749377E-001  0.2758358E+03  0.7818608E-02  0.1097985E+00
         21   -1    0    0  503  502  0.00000000000E+00  0.00000000000E+00  0.10964067666E+04  0.10964067666E+04  0.00000000000E+00 0. -1.
         21   -1    0    0  501  503 -0.00000000000E+00 -0.00000000000E+00 -0.22237745040E+03  0.22237745040E+03  0.00000000000E+00 0.  1.
          6    2    1    2  501    0 -0.21316659161E+03 -0.73529141742E+02  0.97733027689E+03  0.10176570255E+04  0.17206051516E+03 0.  0.
         24    2    3    3    0    0 -0.19893049269E+03 -0.13556049576E+02  0.82792090695E+03  0.85596383413E+03  0.86394153577E+02 0.  0.
         -6    2    1    2    0  502  0.21316659161E+03  0.73529141742E+02 -0.10330096068E+03  0.30112719156E+03  0.17076289573E+03 0.  0.
        -24    2    5    5    0    0  0.77913523963E+02  0.91456623170E+02 -0.37684636862E+02  0.14965977312E+03  0.80889336115E+02 0.  0.
         12    1    4    4    0    0 -0.96005547054E+02 -0.38421101697E+02  0.52453596345E+03  0.53463185752E+03  0.00000000000E+00 0. -1.
        -11    1    4    4    0    0 -0.10292494564E+03  0.24865052121E+02  0.30338494350E+03  0.32133197661E+03  0.00000000000E+00 0.  1.
          5    1    3    3  501    0 -0.14236098922E+02 -0.59973092167E+02  0.14940936994E+03  0.16169319133E+03  0.47000000000E+01 0. -1.
         13    1    6    6    0    0  0.93331352724E+02  0.87925872995E+02 -0.28446833413E+02  0.13134276864E+03  0.00000000000E+00 0. -1.
        -14    1    6    6    0    0 -0.15417828761E+02  0.35307501748E+01 -0.92378034490E+01  0.18317004479E+02  0.00000000000E+00 0.  1.
         -5    1    5    5    0  502  0.13525306765E+03 -0.17927481427E+02 -0.65616323814E+02  0.15146741844E+03  0.47000000000E+01 0.  1.
</event>
<event>
12    1  0.9749377E-001  0.2490281E+03  0.7818608E-02  0.1113921E+00
         21   -1    0    0  503  502  0.00000000000E+00  0.00000000000E+00  0.25073361019E+03  0.25073361019E+03  0.00000000000E+00 0. -1.
         21   -1    0    0  501  503 -0.00000000000E+00 -0.00000000000E+00 -0.34303320760E+03  0.34303320760E+03  0.00000000000E+00 0.  1.
          6    2    1    2  501    0  0.86466677992E+02 -0.18113871724E+03  0.80712808668E+02  0.27606518716E+03  0.17149259107E+03 0.  0.
         24    2    3    3    0    0  0.67322764639E+02 -0.26038729879E+02  0.33139555848E+02  0.11263997527E+03  0.79869667421E+02 0.  0.
         -6    2    1    2    0  502 -0.86466677992E+02  0.18113871724E+03 -0.17301240608E+03  0.31770163063E+03  0.17525213882E+03 0.  0.
        -24    2    5    5    0    0  0.14319019565E+02  0.11842916343E+03 -0.69540431589E+02  0.16016184367E+03  0.81150745347E+02 0.  0.
         14    1    4    4    0    0  0.56569710360E+02 -0.51092583942E+02  0.10000275507E+02  0.76880360134E+02  0.00000000000E+00 0. -1.
        -13    1    4    4    0    0  0.10753054279E+02  0.25053854063E+02  0.23139280341E+02  0.35759615133E+02  0.00000000000E+00 0.  1.
          5    1    3    3  501    0  0.19143913353E+02 -0.15509998736E+03  0.47573252820E+02  0.16342521189E+03  0.47000000000E+01 0. -1.
         11    1    6    6    0    0  0.89571622951E+01  0.93202266160E+02 -0.86447306513E+01  0.94029913016E+02  0.00000000000E+00 0. -1.
        -12    1    6    6    0    0  0.53618572695E+01  0.25226897265E+02 -0.60895700938E+02  0.66131930652E+02  0.00000000000E+00 0.  1.
         -5    1    5    5    0  502 -0.10078569756E+03  0.62709553816E+02 -0.10347197449E+03  0.15753978696E+03  0.47000000000E+01 0.  1.
</event>
<event>
12    1  0.9749377E-001  0.1591913E+03  0.7818608E-02  0.1189613E+00
         21   -1    0    0  503  502  0.00000000000E+00  0.00000000000E+00  0.51986499631E+03  0.51986499631E+03  0.00000000000E+00 0.  1.
         21   -1    0    0  501  503 -0.00000000000E+00 -0.00000000000E+00 -0.26285848036E+03  0.26285848036E+03  0.00000000000E+00 0.  1.
          6    2    1    2  501    0 -0.38620678359E+02  0.97555794047E+02  0.45339513419E+03  0.49617923916E+03  0.17209880859E+03 0.  0.
         24    2    3    3    0    0  0.19843277550E+02  0.61479198076E+02  0.38856181508E+03  0.40160120691E+03  0.78293025199E+02 0.  0.
         -6    2    1    2    0  502  0.38620678359E+02 -0.97555794047E+02 -0.19638861824E+03  0.28654423751E+03  0.18036191651E+03 0.  0.
        -24    2    5    5    0    0  0.51945855582E+02 -0.30753609729E+02 -0.19415042506E+03  0.21822738976E+03  0.79275782338E+02 0.  0.
         14    1    4    4    0    0 -0.21478348253E+02  0.49671043513E+01  0.18560077145E+03  0.18690542510E+03  0.00000000000E+00 0. -1.
        -13    1    4    4    0    0  0.41321625802E+02  0.56512093724E+02  0.20296104363E+03  0.21469578181E+03  0.00000000000E+00 0.  1.
          5    1    3    3  501    0 -0.58463955908E+02  0.36076595972E+02  0.64833319111E+02  0.94578032250E+02  0.47000000000E+01 0. -1.
         11    1    6    6    0    0 -0.14867398849E+02 -0.13740191868E+02 -0.97052370802E+02  0.99141288570E+02  0.00000000000E+00 0. -1.
        -12    1    6    6    0    0  0.66813254431E+02 -0.17013417861E+02 -0.97098054261E+02  0.11908610119E+03  0.00000000000E+00 0.  1.
         -5    1    5    5    0  502 -0.13325177223E+02 -0.66802184319E+02 -0.22381931736E+01  0.68316847750E+02  0.47000000000E+01 0.  1.
</event>
<event>
12    1  0.9749379E-001  0.7516563E+03  0.7818608E-02  0.9632755E-01
         21   -1    0    0  501  502  0.00000000000E+00  0.00000000000E+00  0.60332289177E+03  0.60332289177E+03  0.00000000000E+00 0.  1.
         21   -1    0    0  502  503 -0.00000000000E+00 -0.00000000000E+00 -0.10279506032E+04  0.10279506032E+04  0.00000000000E+00 0. -1.
         -6    2    1    2    0  503 -0.64064824414E+03 -0.36388576128E+03 -0.43863967791E+03  0.87441776435E+03  0.17134363015E+03 0.  0.
        -24    2    3    3    0    0 -0.39358955670E+03 -0.29680089576E+03 -0.26818859831E+03  0.56682381974E+03  0.79753416853E+02 0.  0.
          6    2    1    2  501    0  0.64064824414E+03  0.36388576128E+03  0.14011966516E+02  0.75685573058E+03  0.17260139548E+03 0.  0.
         24    2    5    5    0    0  0.29067587711E+03  0.20071482321E+03  0.60102338609E+02  0.36794465447E+03  0.83618609535E+02 0.  0.
         12    1    6    6    0    0  0.20233525740E+03  0.18308549209E+03  0.42626988930E+02  0.27618275469E+03  0.00000000000E+00 0. -1.
        -11    1    6    6    0    0  0.88340619702E+02  0.17629331118E+02  0.17475349680E+02  0.91761899781E+02  0.00000000000E+00 0.  1.
          5    1    5    5  501    0  0.34997236703E+03  0.16317093807E+03 -0.46090372093E+02  0.38891107610E+03  0.47000000000E+01 0. -1.
         11    1    4    4    0    0 -0.17082067385E+02 -0.36830427810E+02 -0.33326362580E+02  0.52525459366E+02  0.00000000000E+00 0. -1.
        -12    1    4    4    0    0 -0.37650748931E+03 -0.25997046795E+03 -0.23486223573E+03  0.51429836037E+03  0.00000000000E+00 0.  1.
         -5    1    3    3    0  503 -0.24705868744E+03 -0.67084865521E+02 -0.17045107960E+03  0.30759394461E+03  0.47000000000E+01 0.  1.
</event>
<event>
12    1  0.1089778E+000  0.8830807E+03  0.7818608E-02  0.9446982E-01
         21   -1    0    0  501  502  0.00000000000E+00  0.00000000000E+00  0.92160626536E+03  0.92160626536E+03  0.00000000000E+00 0. -1.
         21   -1    0    0  502  503 -0.00000000000E+00 -0.00000000000E+00 -0.11751245641E+04  0.11751245641E+04  0.00000000000E+00 0.  1.
         -6    2    1    2    0  503  0.60999614834E+03  0.62924954593E+03  0.41129317719E+03  0.98328235197E+03  0.17213893821E+03 0.  0.
        -24    2    3    3    0    0  0.19878886246E+03  0.17116378637E+03  0.16510276330E+03  0.32028476150E+03  0.80680557752E+02 0.  0.
          6    2    1    2  501    0 -0.60999614834E+03 -0.62924954593E+03 -0.66481147594E+03  0.11134484775E+04  0.17246136226E+03 0.  0.
         24    2    5    5    0    0 -0.29302909886E+03 -0.21896154644E+03 -0.29951402208E+03  0.47920193807E+03  0.78202534703E+02 0.  0.
         14    1    6    6    0    0 -0.28253091338E+03 -0.21739628557E+03 -0.30317478168E+03  0.46797415553E+03  0.00000000000E+00 0. -1.
        -13    1    6    6    0    0 -0.10498185480E+02 -0.15652608726E+01  0.36607596064E+01  0.11227782544E+02  0.00000000000E+00 0.  1.
          5    1    5    5  501    0 -0.31696704948E+03 -0.41028799949E+03 -0.36529745386E+03  0.63424653943E+03  0.47000000000E+01 0. -1.
         11    1    4    4    0    0  0.19081972618E+03  0.15113047793E+03  0.17153381530E+03  0.29778589465E+03  0.00000000000E+00 0. -1.
        -12    1    4    4    0    0  0.79691362812E+01  0.20033308433E+02 -0.64310520014E+01  0.22498866853E+02  0.00000000000E+00 0.  1.
         -5    1    3    3    0  503  0.41120728588E+03  0.45808575956E+03  0.24619041389E+03  0.66299759047E+03  0.47000000000E+01 0.  1.
</event>
<event>
12    1  0.9749377E-001  0.6782533E+03  0.7818608E-02  0.9755162E-01
         21   -1    0    0  503  502  0.00000000000E+00  0.00000000000E+00  0.56178184371E+03  0.56178184371E+03  0.00000000000E+00 0. -1.
         21   -1    0    0  501  503 -0.00000000000E+00 -0.00000000000E+00 -0.86021496489E+03  0.86021496489E+03  0.00000000000E+00 0.  1.
          6    2    1    2  501    0  0.35174177384E+03 -0.55799149760E+03 -0.86065800885E+01  0.68160548525E+03  0.17156683083E+03 0.  0.
         24    2    3    3    0    0  0.23815660897E+03 -0.48334670747E+03 -0.18036450271E+02  0.54528070092E+03  0.81627931702E+02 0.  0.
         -6    2    1    2    0  502 -0.35174177384E+03  0.55799149760E+03 -0.28982654109E+03  0.74039132335E+03  0.17059630980E+03 0.  0.
        -24    2    5    5    0    0 -0.23102447929E+03  0.47707031774E+03 -0.23046621160E+03  0.58333515101E+03  0.78719918827E+02 0.  0.
         12    1    4    4    0    0  0.94808747127E+01 -0.24383834810E+01 -0.80569342847E+01  0.12678599662E+02  0.00000000000E+00 0. -1.
        -11    1    4    4    0    0  0.22867573426E+03 -0.48090832399E+03 -0.99795159865E+01  0.53260210126E+03  0.00000000000E+00 0.  1.
          5    1    3    3  501    0  0.11358516487E+03 -0.74644790127E+02  0.94298701827E+01  0.13632478433E+03  0.47000000000E+01 0. -1.
         13    1    6    6    0    0 -0.14618509518E+02  0.72831352297E+02 -0.54827352913E+02  0.92326298125E+02  0.00000000000E+00 0. -1.
        -14    1    6    6    0    0 -0.21640596977E+03  0.40423896544E+03 -0.17563885869E+03  0.49100885289E+03  0.00000000000E+00 0.  1.
         -5    1    5    5    0  502 -0.12071729455E+03  0.80921179866E+02 -0.59360329483E+02  0.15705617234E+03  0.47000000000E+01 0.  1.
</event>
<event>
12    1  0.9749377E-001  0.4408058E+03  0.7818608E-02  0.1030500E+00
         21   -1    0    0  503  502  0.00000000000E+00  0.00000000000E+00  0.46363710403E+03  0.46363710403E+03  0.00000000000E+00 0.  1.
         21   -1    0    0  501  503 -0.00000000000E+00 -0.00000000000E+00 -0.44624928116E+03  0.44624928116E+03  0.00000000000E+00 0. -1.
          6    2    1    2  501    0 -0.34673902372E+03  0.23779649674E+03  0.22791051275E+02  0.45413256796E+03  0.17012299325E+03 0.  0.
         24    2    3    3    0    0 -0.70518802055E+02  0.44977997842E+02  0.16084043996E+02  0.11717016899E+03  0.80462601850E+02 0.  0.
         -6    2    1    2    0  502  0.34673902372E+03 -0.23779649674E+03 -0.54032284053E+01  0.45575381723E+03  0.17580450110E+03 0.  0.
        -24    2    5    5    0    0  0.25366510643E+03 -0.14184077466E+03 -0.66806454425E+02  0.30857127463E+03  0.79299039067E+02 0.  0.
         12    1    4    4    0    0 -0.69218539430E+02 -0.17500556927E+01  0.75450846351E+01  0.69650536236E+02  0.00000000000E+00 0. -1.
        -11    1    4    4    0    0 -0.13002626245E+01  0.46728053534E+02  0.85389593611E+01  0.47519632753E+02  0.00000000000E+00 0.  1.
          5    1    3    3  501    0 -0.27622022166E+03  0.19281849890E+03  0.67070072788E+01  0.33696239897E+03  0.47000000000E+01 0. -1.
         13    1    6    6    0    0  0.13453116916E+02 -0.23752988435E+02 -0.26205765607E+02  0.37840890124E+02  0.00000000000E+00 0. -1.
        -14    1    6    6    0    0  0.24021198951E+03 -0.11808778623E+03 -0.40600688819E+02  0.27073038451E+03  0.00000000000E+00 0.  1.
         -5    1    5    5    0  502  0.93073917288E+02 -0.95955722080E+02  0.61403226020E+02  0.14718254260E+03  0.47000000000E+01 0.  1.
</event>
<event>
12    1  0.9749377E-001  0.3213545E+03  0.7818608E-02  0.1075028E+00
         21   -1    0    0  501  502  0.00000000000E+00  0.00000000000E+00  0.34998011075E+03  0.34998011075E+03  0.00000000000E+00 0. -1.
         21   -1    0    0  502  503 -0.00000000000E+00 -0.00000000000E+00 -0.50956829379E+03  0.50956829379E+03  0.00000000000E+00 0.  1.
         -6    2    1    2    0  503  0.48448275574E+02  0.28620905806E+03  0.17956799929E+03  0.38164115312E+03  0.17071157859E+03 0.  0.
        -24    2    3    3    0    0  0.26546859513E+01  0.27119373749E+03  0.12655550532E+03  0.30984333129E+03  0.80209122973E+02 0.  0.
          6    2    1    2  501    0 -0.48448275574E+02 -0.28620905806E+03 -0.33915618233E+03  0.47790725142E+03  0.17060353052E+03 0.  0.
         24    2    5    5    0    0  0.25587088583E+02 -0.17239288014E+03 -0.14038590237E+03  0.23714373322E+03  0.78453453681E+02 0.  0.
         12    1    6    6    0    0  0.47272680476E+02 -0.12838371951E+03 -0.77007021456E+02  0.15699416265E+03  0.00000000000E+00 0. -1.
        -11    1    6    6    0    0 -0.21685591893E+02 -0.44009160633E+02 -0.63378880917E+02  0.80149570564E+02  0.00000000000E+00 0.  1.
          5    1    5    5  501    0 -0.74035364157E+02 -0.11381617792E+03 -0.19877027996E+03  0.24076351821E+03  0.47000000000E+01 0. -1.
         11    1    4    4    0    0 -0.11630496576E+02  0.81394703951E+02  0.78178177588E+02  0.11345569061E+03  0.00000000000E+00 0. -1.
        -12    1    4    4    0    0  0.14285182527E+02  0.18979903354E+03  0.48377327729E+02  0.19638764068E+03  0.00000000000E+00 0.  1.
         -5    1    3    3    0  503  0.45793589623E+02  0.15015320569E+02  0.53012493975E+02  0.71797821832E+02  0.47000000000E+01 0.  1.
</event>
<event>
12    1  0.9749377E-001  0.2686814E+03  0.7818608E-02  0.1102037E+00
         21   -1    0    0  503  502  0.00000000000E+00  0.00000000000E+00  0.54636683689E+03  0.54636683689E+03  0.00000000000E+00 0. -1.
         21   -1    0    0  501  503 -0.00000000000E+00 -0.00000000000E+00 -0.56776992922E+03  0.56776992922E+03  0.00000000000E+00 0.  1.
          6    2    1    2  501    0 -0.14886784527E+03 -0.18601538452E+03  0.46231157340E+03  0.54743349743E+03  0.17084520647E+03 0.  0.
         24    2    3    3    0    0 -0.76567099280E+02 -0.54837342002E+01  0.14463272057E+03  0.17492709725E+03  0.61548951741E+02 0.  0.
         -6    2    1    2    0  502  0.14886784527E+03  0.18601538452E+03 -0.48371466573E+03  0.56670326868E+03  0.17438279231E+03 0.  0.
        -24    2    5    5    0    0  0.99391846145E+02  0.13394359308E+03 -0.19005444940E+03  0.26434957082E+03  0.77073838938E+02 0.  0.
         14    1    4    4    0    0 -0.35978172373E+02  0.19951542497E+02  0.10494807392E+03  0.11272351642E+03  0.00000000000E+00 0. -1.
        -13    1    4    4    0    0 -0.40588926907E+02 -0.25435276697E+02  0.39684646647E+02  0.62203580826E+02  0.00000000000E+00 0.  1.
          5    1    3    3  501    0 -0.72300745991E+02 -0.18053165032E+03  0.31767885283E+03  0.37250640018E+03  0.47000000000E+01 0. -1.
         11    1    6    6    0    0  0.43766308920E+02  0.84930830779E+01 -0.31128929409E+02  0.54374925313E+02  0.00000000000E+00 0. -1.
        -12    1    6    6    0    0  0.55625537225E+02  0.12545051000E+03 -0.15892551999E+03  0.20997464551E+03  0.00000000000E+00 0.  1.
         -5    1    5    5    0  502  0.49475999126E+02  0.52071791444E+02 -0.29366021633E+03  0.30235369786E+03  0.47000000000E+01 0.  1.
</event>
<event>
12    1  0.9749377E-001  0.1471867E+04  0.7818608E-02  0.8903380E-01
         21   -1    0    0  503  502  0.00000000000E+00  0.00000000000E+00  0.23259050166E+04  0.23259050166E+04  0.00000000000E+00 0. -1.
         21   -1    0    0  501  503 -0.00000000000E+00 -0.00000000000E+00 -0.93404513444E+03  0.93404513444E+03  0.00000000000E+00 0.  1.
          6    2    1    2  501    0 -0.66178182580E+03 -0.13054223853E+04  0.72938472967E+03  0.16443329910E+04  0.17247061277E+03 0.  0.
         24    2    3    3    0    0 -0.41890957946E+03 -0.96547796947E+03  0.53962327445E+03  0.11854423354E+04  0.80295123571E+02 0.  0.
         -6    2    1    2    0  502  0.66178182580E+03  0.13054223853E+04  0.66247515244E+03  0.16156171600E+04  0.17106341216E+03 0.  0.
        -24    2    5    5    0    0  0.44765966682E+03  0.10136126265E+04  0.47987975133E+03  0.12101983583E+04  0.80534195358E+02 0.  0.
         12    1    4    4    0    0 -0.33027108446E+03 -0.70709481333E+03  0.36797616071E+03  0.86282589154E+03  0.00000000000E+00 0. -1.
        -11    1    4    4    0    0 -0.88638495004E+02 -0.25838315614E+03  0.17164711375E+03  0.32261644383E+03  0.00000000000E+00 0.  1.
          5    1    3    3  501    0 -0.24287224634E+03 -0.33994441587E+03  0.18976145522E+03  0.45889065562E+03  0.47000000000E+01 0. -1.
         13    1    6    6    0    0  0.40119826297E+02  0.15225483252E+03  0.82496869684E+02  0.17775507868E+03  0.00000000000E+00 0. -1.
        -14    1    6    6    0    0  0.40753984052E+03  0.86135779402E+03  0.39738288165E+03  0.10324432796E+04  0.00000000000E+00 0.  1.
         -5    1    5    5    0  502  0.21412215898E+03  0.29180975880E+03  0.18259540111E+03  0.40541880174E+03  0.47000000000E+01 0.  1.
</event>
<event>
12    1  0.9749377E-001  0.5761489E+03  0.7818608E-02  0.9956163E-01
         21   -1    0    0  501  502  0.00000000000E+00  0.00000000000E+00  0.23651535700E+03  0.23651535700E+03  0.00000000000E+00 0. -1.
         21   -1    0    0  502  503 -0.00000000000E+00 -0.00000000000E+00 -0.14563545243E+04  0.14563545243E+04  0.00000000000E+00 0.  1.
         -6    2    1    2    0  503  0.31963489653E+03 -0.45728267531E+03 -0.69861298314E+03  0.91040690615E+03  0.17177520875E+03 0.  0.
        -24    2    3    3    0    0  0.32092832577E+03 -0.46672690587E+03 -0.69248428073E+03  0.89813835109E+03  0.79303364987E+02 0.  0.
          6    2    1    2  501    0 -0.31963489653E+03  0.45728267531E+03 -0.52122618418E+03  0.78246297517E+03  0.17116559297E+03 0.  0.
         24    2    5    5    0    0 -0.18865625599E+03  0.35582517396E+03 -0.42368700688E+03  0.59014810323E+03  0.81002262969E+02 0.  0.
         14    1    6    6    0    0 -0.18475107180E+03  0.29343442305E+03 -0.37632363769E+03  0.51171886759E+03  0.00000000000E+00 0. -1.
        -13    1    6    6    0    0 -0.39051841818E+01  0.62390750911E+02 -0.47363369185E+02  0.78429235642E+02  0.00000000000E+00 0.  1.
          5    1    5    5  501    0 -0.13097864055E+03  0.10145750135E+03 -0.97539177303E+02  0.19231487194E+03  0.47000000000E+01 0. -1.
         11    1    4    4    0    0  0.90670430426E+01 -0.18678933667E+02 -0.55395373917E+02  0.59158780277E+02  0.00000000000E+00 0. -1.
        -12    1    4    4    0    0  0.31186128272E+03 -0.44804797220E+03 -0.63708890681E+03  0.83897957081E+03  0.00000000000E+00 0.  1.
         -5    1    3    3    0  503 -0.12934292349E+01  0.94442305610E+01 -0.61287024074E+01  0.12268555061E+02  0.47000000000E+01 0.  1.
</event>
<event>
12    1  0.9749377E-001  0.2114208E+03  0.7818608E-02  0.1140446E+00
         21   -1    0    0  501  502  0.00000000000E+00  0.00000000000E+00  0.16860875979E+03  0.16860875979E+03  0.00000000000E+00 0.  1.
         21   -1    0    0  502  503 -0.00000000000E+00 -0.00000000000E+00 -0.45086393760E+03  0.45086393760E+03  0.00000000000E+00 0. -1.
         -6    2    1    2    0  503 -0.11308791209E+01  0.17732342261E+03 -0.38474330989E+01  0.24720222023E+03  0.17218960437E+03 0.  0.
        -24    2    3    3    0    0  0.29706868622E+02  0.66605977934E+02 -0.54715212565E+02  0.12142885171E+03  0.80201977548E+02 0.  0.
          6    2    1    2  501    0  0.11308791209E+01 -0.17732342261E+03 -0.27840774471E+03  0.37227047717E+03  0.17213239313E+03 0.  0.
         24    2    5    5    0    0  0.26779572454E+02 -0.16038220315E+03 -0.13676367498E+03  0.22725326138E+03  0.80623479365E+02 0.  0.
         12    1    6    6    0    0 -0.27327951572E+02 -0.75352258434E+02 -0.51827516020E+02  0.95450883731E+02  0.00000000000E+00 0. -1.
        -11    1    6    6    0    0  0.54107524025E+02 -0.85029944715E+02 -0.84936158964E+02  0.13180237765E+03  0.00000000000E+00 0.  1.
          5    1    5    5  501    0 -0.25648693333E+02 -0.16941219456E+02 -0.14164406973E+03  0.14501721579E+03  0.47000000000E+01 0. -1.
         13    1    4    4    0    0  0.45502346865E+02  0.26460949785E+02 -0.11476058041E+01  0.52649429558E+02  0.00000000000E+00 0. -1.
        -14    1    4    4    0    0 -0.15795478243E+02  0.40145028149E+02 -0.53567606760E+02  0.68779422155E+02  0.00000000000E+00 0.  1.
         -5    1    3    3    0  503 -0.30837747743E+02  0.11071744467E+03  0.50867779466E+02  0.12577336852E+03  0.47000000000E+01 0.  1.
</event>
<event>
12    1  0.9749377E-001  0.8864159E+03  0.7818608E-02  0.9442723E-01
         21   -1    0    0  503  502  0.00000000000E+00  0.00000000000E+00  0.17158950217E+04  0.17158950217E+04  0.00000000000E+00 0.  1.
         21   -1    0    0  501  503 -0.00000000000E+00 -0.00000000000E+00 -0.49932917009E+03  0.49932917009E+03  0.00000000000E+00 0. -1.
          6    2    1    2  501    0 -0.12869917553E+03 -0.86568320674E+03  0.31132324187E+03  0.94461560704E+03  0.17148058763E+03 0.  0.
         24    2    3    3    0    0 -0.13503658772E+03 -0.52620062028E+03  0.15260113414E+03  0.56977779307E+03  0.78978823314E+02 0.  0.
         -6    2    1    2    0  502  0.12869917553E+03  0.86568320674E+03  0.90524260978E+03  0.12706085848E+04  0.17032645412E+03 0.  0.
        -24    2    5    5    0    0  0.11061933595E+03  0.35457054359E+03  0.40624480091E+03  0.55605702032E+03  0.78788728339E+02 0.  0.
         12    1    4    4    0    0 -0.32161277131E+02 -0.26036569692E+03  0.51633359540E+02  0.26737735076E+03  0.00000000000E+00 0. -1.
        -11    1    4    4    0    0 -0.10287531058E+03 -0.26583492336E+03  0.10096777460E+03  0.30240044232E+03  0.00000000000E+00 0.  1.
          5    1    3    3  501    0  0.63374121894E+01 -0.33948258646E+03  0.15872210773E+03  0.37483781397E+03  0.47000000000E+01 0. -1.
         11    1    6    6    0    0  0.58620926761E+01  0.85011751619E+02  0.56551577855E+02  0.10227141830E+03  0.00000000000E+00 0. -1.
        -12    1    6    6    0    0  0.10475724327E+03  0.26955879197E+03  0.34969322306E+03  0.45378560202E+03  0.00000000000E+00 0.  1.
         -5    1    5    5    0  502  0.18079839578E+02  0.51111266315E+03  0.49899780887E+03  0.71455156447E+03  0.47000000000E+01 0.  1.
</event>
<event>
12    1  0.9749377E-001  0.7758017E+03  0.7818608E-02  0.9595719E-01
         21   -1    0    0  503  502  0.00000000000E+00  0.00000000000E+00  0.16675080496E+04  0.16675080496E+04  0.00000000000E+00 0. -1.
         21   -1    0    0  501  503 -0.00000000000E+00 -0.00000000000E+00 -0.51580481463E+03  0.51580481463E+03  0.00000000000E+00 0.  1.
          6    2    1    2  501    0 -0.58307320135E+03  0.49802939081E+03 -0.42851057200E+01  0.78563832799E+03  0.17088472148E+03 0.  0.
         24    2    3    3    0    0 -0.21628350745E+03  0.14072137698E+03  0.31066184607E+02  0.27233968195E+03  0.81380175757E+02 0.  0.
         -6    2    1    2    0  502  0.58307320135E+03 -0.49802939081E+03  0.11559883407E+04  0.13976745362E+04  0.17081403100E+03 0.  0.
        -24    2    5    5    0    0  0.45081166893E+03 -0.30971654662E+03  0.76273816623E+03  0.94201827329E+03  0.80457547195E+02 0.  0.
         12    1    4    4    0    0 -0.63630455004E+02  0.53130544224E+02  0.47561590893E+02  0.95570887104E+02  0.00000000000E+00 0. -1.
        -11    1    4    4    0    0 -0.15265305244E+03  0.87590832758E+02 -0.16495406286E+02  0.17676879485E+03  0.00000000000E+00 0.  1.
          5    1    3    3  501    0 -0.36678969390E+03  0.35730801383E+03 -0.35351290327E+02  0.51329864604E+03  0.47000000000E+01 0. -1.
         13    1    6    6    0    0  0.21828857842E+03 -0.18758998029E+03  0.44221852863E+03  0.52763351982E+03  0.00000000000E+00 0. -1.
        -14    1    6    6    0    0  0.23252309051E+03 -0.12212656633E+03  0.32051963761E+03  0.41438475348E+03  0.00000000000E+00 0.  1.
         -5    1    5    5    0  502  0.13226153242E+03 -0.18831284419E+03  0.39325017447E+03  0.45565626295E+03  0.47000000000E+01 0.  1.
</event>
<event>
12    1  0.9749377E-001  0.1750934E+03  0.7818608E-02  0.1172638E+00
         21   -1    0    0  503  502  0.00000000000E+00  0.00000000000E+00  0.53073798262E+03  0.53073798262E+03  0.00000000000E+00 0.  1.
         21   -1    0    0  501  503 -0.00000000000E+00 -0.00000000000E+00 -0.70957899782E+02  0.70957899782E+02  0.00000000000E+00 0.  1.
          6    2    1    2  501    0  0.10144132394E+02  0.81589714646E+02  0.21542857552E+03  0.29107479852E+03  0.17763806524E+03 0.  0.
         24    2    3    3    0    0 -0.58830746286E+02  0.68310337586E+02  0.10646372072E+03  0.16134698605E+03  0.81061502267E+02 0.  0.
         -6    2    1    2    0  502 -0.10144132394E+02 -0.81589714646E+02  0.24435150731E+03  0.31062108388E+03  0.17325707393E+03 0.  0.
        -24    2    5    5    0    0  0.50489142154E+02 -0.88079325149E+02  0.15203353172E+03  0.19988171579E+03  0.80816981801E+02 0.  0.
         12    1    4    4    0    0 -0.47200005251E+02  0.37733167303E+02  0.12307482501E+02  0.61669332216E+02  0.00000000000E+00 0. -1.
        -11    1    4    4    0    0 -0.11630741035E+02  0.30577170283E+02  0.94156238216E+02  0.99677653838E+02  0.00000000000E+00 0.  1.
          5    1    3    3  501    0  0.68974878680E+02  0.13279377060E+02  0.10896485480E+03  0.12972781246E+03  0.47000000000E+01 0. -1.
         13    1    6    6    0    0  0.12033042287E+02 -0.86143317986E+02  0.79867575788E+02  0.11808596446E+03  0.00000000000E+00 0. -1.
        -14    1    6    6    0    0  0.38456099867E+02 -0.19360071631E+01  0.72165955929E+02  0.81795751332E+02  0.00000000000E+00 0.  1.
         -5    1    5    5    0  502 -0.60633274548E+02  0.64896105030E+01  0.92317975597E+02  0.11073936809E+03  0.47000000000E+01 0.  1.
</event>
<event>
12    1  0.9749377E-001  0.4187064E+03  0.7818608E-02  0.1037488E+00
         21   -1    0    0  501  502  0.00000000000E+00  0.00000000000E+00  0.20979891264E+03  0.20979891264E+03  0.00000000000E+00 0. -1.
         21   -1    0    0  502  503 -0.00000000000E+00 -0.00000000000E+00 -0.10471182777E+04  0.10471182777E+04  0.00000000000E+00 0.  1.
         -6    2    1    2    0  503  0.86777283457E+02 -0.39388118086E+03 -0.19443337220E+03  0.47966945095E+03  0.17206325693E+03 0.  0.
        -24    2    3    3    0    0  0.82403996642E+02 -0.12633014767E+03 -0.70940126491E+02  0.18492319951E+03  0.80089720300E+02 0.  0.
          6    2    1    2  501    0 -0.86777283457E+02  0.39388118086E+03 -0.64288599290E+03  0.77724773943E+03  0.16774673476E+03 0.  0.
         24    2    5    5    0    0 -0.32104981179E+02  0.23448669365E+03 -0.48749194770E+03  0.54797702069E+03  0.81336810933E+02 0.  0.
         12    1    6    6    0    0 -0.58127727054E+01  0.22013899845E+03 -0.42414308576E+03  0.47790409515E+03  0.00000000000E+00 0. -1.
        -11    1    6    6    0    0 -0.26292208474E+02  0.14347695203E+02 -0.63348861936E+02  0.70072925532E+02  0.00000000000E+00 0.  1.
          5    1    5    5  501    0 -0.54672302278E+02  0.15939448721E+03 -0.15539404520E+03  0.22927071875E+03  0.47000000000E+01 0. -1.
         13    1    4    4    0    0  0.10917788518E+02 -0.22131350048E+02  0.17873726908E+02  0.30470721597E+02  0.00000000000E+00 0. -1.
        -14    1    4    4    0    0  0.71486208124E+02 -0.10419879762E+03 -0.88813853399E+02  0.15445247791E+03  0.00000000000E+00 0.  1.
         -5    1    3    3    0  503  0.43732868154E+01 -0.26755103320E+03 -0.12349324571E+03  0.29474625144E+03  0.47000000000E+01 0.  1.
</event>
<event>
12    1  0.9749377E-001  0.3701188E+03  0.7818608E-02  0.1054648E+00
         21   -1    0    0  503  502  0.00000000000E+00  0.00000000000E+00  0.16793611737E+03  0.16793611737E+03  0.00000000000E+00 0.  1.
         21   -1    0    0  501  503 -0.00000000000E+00 -0.00000000000E+00 -0.94479095628E+03  0.94479095628E+03  0.00000000000E+00 0. -1.
          6    2    1    2  501    0 -0.17769180350E+03 -0.29610933310E+03 -0.24815422877E+03  0.45841706797E+03  0.17120330830E+03 0.  0.
         24    2    3    3    0    0 -0.91668323840E+02 -0.26135746035E+03 -0.21248907980E+03  0.35890915591E+03  0.83386866380E+02 0.  0.
         -6    2    1    2    0  502  0.17769180350E+03  0.29610933310E+03 -0.52870061014E+03  0.65431000568E+03  0.17129545876E+03 0.  0.
        -24    2    5    5    0    0  0.45765094853E+02  0.13986987739E+03 -0.32596418835E+03  0.36631769555E+03  0.79233676417E+02 0.  0.
         12    1    4    4    0    0 -0.90090160895E+01 -0.57056190149E+02 -0.80925212205E+01  0.58327181528E+02  0.00000000000E+00 0. -1.
        -11    1    4    4    0    0 -0.82659307750E+02 -0.20430127020E+03 -0.20439655858E+03  0.30058197438E+03  0.00000000000E+00 0.  1.
          5    1    3    3  501    0 -0.86023479658E+02 -0.34751872750E+02 -0.35665148967E+02  0.99507912062E+02  0.47000000000E+01 0. -1.
         13    1    6    6    0    0  0.54878068642E+02  0.14439463355E+03 -0.28567821171E+03  0.32476676749E+03  0.00000000000E+00 0. -1.
        -14    1    6    6    0    0 -0.91129737894E+01 -0.45247561558E+01 -0.40285976633E+02  0.41550928062E+02  0.00000000000E+00 0.  1.
         -5    1    5    5    0  502  0.13192670865E+03  0.15623945571E+03 -0.20273642179E+03  0.28799231013E+03  0.47000000000E+01 0.  1.
</event>
<event>
12    1  0.9749377E-001  0.4151358E+03  0.7818608E-02  0.1038661E+00
         21   -1    0    0  503  502  0.00000000000E+00  0.00000000000E+00  0.13308510450E+03  0.13308510450E+03  0.00000000000E+00 0.  1.
         21   -1    0    0  501  503 -0.00000000000E+00 -0.00000000000E+00 -0.14074801193E+04  0.14074801193E+04  0.00000000000E+00 0. -1.
          6    2    1    2  501    0 -0.68102360702E+02 -0.38889276750E+03 -0.55449145545E+03  0.70212148518E+03  0.17215774637E+03 0.  0.
         24    2    3    3    0    0 -0.40022612213E+01 -0.30517947260E+03 -0.34284466514E+03  0.46561949292E+03  0.78157016164E+02 0.  0.
         -6    2    1    2    0  502  0.68102360702E+02  0.38889276750E+03 -0.71990355934E+03  0.83844373861E+03  0.16985656280E+03 0.  0.
        -24    2    5    5    0    0  0.10382838364E+03  0.34699125057E+03 -0.65902143809E+03  0.75621960272E+03  0.79847169314E+02 0.  0.
         12    1    4    4    0    0 -0.37873728029E+01 -0.98483165553E+02 -0.60294349991E+02  0.11553651687E+03  0.00000000000E+00 0. -1.
        -11    1    4    4    0    0 -0.21488841831E+00 -0.20669630705E+03 -0.28255031515E+03  0.35008297605E+03  0.00000000000E+00 0.  1.
          5    1    3    3  501    0 -0.64100099481E+02 -0.83713294901E+02 -0.21164679031E+03  0.23650199226E+03  0.47000000000E+01 0. -1.
         13    1    6    6    0    0  0.64294944758E+02  0.14845265584E+03 -0.36502137571E+03  0.39926511953E+03  0.00000000000E+00 0. -1.
        -14    1    6    6    0    0  0.39533438886E+02  0.19853859473E+03 -0.29400006238E+03  0.35695448319E+03  0.00000000000E+00 0.  1.
         -5    1    5    5    0  502 -0.35726022942E+02  0.41901516935E+02 -0.60882121243E+02  0.82224135896E+02  0.47000000000E+01 0.  1.
</event>
<event>
12    1  0.9749377E-001  0.1931512E+03  0.7818608E-02  0.1155649E+00
         21   -1    0    0  503  502  0.00000000000E+00  0.00000000000E+00  0.71127084917E+02  0.71127084917E+02  0.00000000000E+00 0. -1.
         21   -1    0    0  501  503 -0.00000000000E+00 -0.00000000000E+00 -0.74964716157E+03  0.74964716157E+03  0.00000000000E+00 0. -1.
          6    2    1    2  501    0 -0.26195430906E+02 -0.11260904354E+03 -0.15908343137E+03  0.26124109352E+03  0.17196619877E+03 0.  0.
         24    2    3    3    0    0  0.36340660728E+02 -0.16941045254E+02 -0.91348567478E+02  0.12830039080E+03  0.80677052885E+02 0.  0.
         -6    2    1    2    0  502  0.26195430906E+02  0.11260904354E+03 -0.51943664528E+03  0.55953315297E+03  0.17290437681E+03 0.  0.
        -24    2    5    5    0    0  0.53319410801E+02  0.17949560977E+02 -0.13076485537E+03  0.15855437772E+03  0.69820462522E+02 0.  0.
         12    1    4    4    0    0  0.46282282542E+02  0.19350451676E+02 -0.66124336185E+02  0.82999502970E+02  0.00000000000E+00 0. -1.
        -11    1    4    4    0    0 -0.99416218137E+01 -0.36291496930E+02 -0.25224231293E+02  0.45300887828E+02  0.00000000000E+00 0.  1.
          5    1    3    3  501    0 -0.62536091634E+02 -0.95667998289E+02 -0.67734863891E+02  0.13294070272E+03  0.47000000000E+01 0. -1.
         13    1    6    6    0    0  0.76695482979E+01 -0.22979843802E+02 -0.17935626766E+02  0.30142692311E+02  0.00000000000E+00 0. -1.
        -14    1    6    6    0    0  0.45649862503E+02  0.40929404779E+02 -0.11282922860E+03  0.12841168541E+03  0.00000000000E+00 0.  1.
         -5    1    5    5    0  502 -0.27123979894E+02  0.94659482566E+02 -0.38867178991E+03  0.40097877525E+03  0.47000000000E+01 0.  1.
</event>
<event>
12    1  0.9749377E-001  0.4221184E+03  0.7818608E-02  0.1036379E+00
         21   -1    0    0  501  502  0.00000000000E+00  0.00000000000E+00  0.49427180630E+03  0.49427180630E+03  0.00000000000E+00 0. -1.
         21   -1    0    0  502  503 -0.00000000000E+00 -0.00000000000E+00 -0.47083734611E+03  0.47083734611E+03  0.00000000000E+00 0.  1.
         -6    2    1    2    0  503  0.39404620756E+03 -0.90083198371E+02 -0.18711827788E+03  0.47796307655E+03  0.17334375183E+03 0.  0.
        -24    2    3    3    0    0  0.39124423891E+03 -0.10723568375E+03 -0.19589538080E+03  0.45793344054E+03  0.82197867346E+02 0.  0.
          6    2    1    2  501    0 -0.39404620756E+03  0.90083198371E+02  0.21055273808E+03  0.48714607586E+03  0.17202164804E+03 0.  0.
         24    2    5    5    0    0 -0.12341431934E+03  0.71023306613E+02  0.54931435765E+02  0.17434425661E+03  0.84279611271E+02 0.  0.
         12    1    6    6    0    0 -0.43719403743E+02  0.26749996521E+02 -0.21302002348E+02  0.55504269039E+02  0.00000000000E+00 0. -1.
        -11    1    6    6    0    0 -0.79694915600E+02  0.44273310092E+02  0.76233438113E+02  0.11883998757E+03  0.00000000000E+00 0.  1.
          5    1    5    5  501    0 -0.27063188822E+03  0.19059891757E+02  0.15562130231E+03  0.31280181925E+03  0.47000000000E+01 0. -1.
         13    1    4    4    0    0  0.16218002088E+03 -0.67137921782E+01 -0.58531207153E+02  0.17254951866E+03  0.00000000000E+00 0. -1.
        -14    1    4    4    0    0  0.22906421802E+03 -0.10052189157E+03 -0.13736417365E+03  0.28538392188E+03  0.00000000000E+00 0.  1.
         -5    1    3    3    0  503  0.28019686576E+01  0.17152485378E+02  0.87771029192E+01  0.20029636009E+02  0.47000000000E+01 0.  1.
</event>
<event>
12    1  0.9749377E-001  0.3970963E+03  0.7818608E-02  0.1044790E+00
         21   -1    0    0  501  502  0.00000000000E+00  0.00000000000E+00  0.31597407150E+03  0.31597407150E+03  0.00000000000E+00 0. -1.
         21   -1    0    0  502  503 -0.00000000000E+00 -0.00000000000E+00 -0.55504437469E+03  0.55504437469E+03  0.00000000000E+00 0.  1.
         -6    2    1    2    0  503 -0.29619785641E+03  0.22717868509E+03 -0.19945830461E+03  0.45714536134E+03  0.17278582411E+03 0.  0.
        -24    2    3    3    0    0 -0.30254617788E+03  0.20672203380E+03 -0.15188339818E+03  0.40475989112E+03  0.80584203238E+02 0.  0.
          6    2    1    2  501    0  0.29619785641E+03 -0.22717868509E+03 -0.39611998576E+02  0.41387308485E+03  0.17429427654E+03 0.  0.
         24    2    5    5    0    0  0.16781300639E+03 -0.21221639301E+03 -0.17048071142E+02  0.28258043190E+03  0.79775066201E+02 0.  0.
         12    1    6    6    0    0  0.91119853417E+02 -0.11215706742E+03  0.30770628110E+02  0.14774595430E+03  0.00000000000E+00 0. -1.
        -11    1    6    6    0    0  0.76693152976E+02 -0.10005932559E+03 -0.47818699252E+02  0.13483447760E+03  0.00000000000E+00 0.  1.
          5    1    5    5  501    0  0.12838485002E+03 -0.14962292084E+02 -0.22563927435E+02  0.13129265295E+03  0.47000000000E+01 0. -1.
         13    1    4    4    0    0 -0.34679213980E+02  0.11628199913E+01 -0.43722599604E+00  0.34701458170E+02  0.00000000000E+00 0. -1.
        -14    1    4    4    0    0 -0.26786696390E+03  0.20555921381E+03 -0.15144617218E+03  0.37005843295E+03  0.00000000000E+00 0.  1.
         -5    1    3    3    0  503  0.63483214716E+01  0.20456651292E+02 -0.47574906433E+02  0.52385470216E+02  0.47000000000E+01 0.  1.
</event>
<event>
12    1  0.9749377E-001  0.3288391E+03  0.7818608E-02  0.1071652E+00
         21   -1    0    0  501  502  0.00000000000E+00  0.00000000000E+00  0.10613961664E+04  0.10613961664E+04  0.00000000000E+00 0. -1.
         21   -1    0    0  502  503 -0.00000000000E+00 -0.00000000000E+00 -0.11986101131E+03  0.11986101131E+03  0.00000000000E+00 0.  1.
         -6    2    1    2    0  503 -0.22388130489E+03  0.21428344790E+03  0.53379826998E+03  0.64116829243E+03  0.17353948099E+03 0.  0.
        -24    2    3    3    0    0 -0.10022963709E+03  0.75595465798E+02  0.34942459352E+03  0.37936715817E+03  0.77853962904E+02 0.  0.
          6    2    1    2  501    0  0.22388130489E+03 -0.21428344790E+03  0.40773688513E+03  0.54008888530E+03  0.17148294901E+03 0.  0.
         24    2    5    5    0    0  0.19377932132E+03 -0.23241814363E+03  0.39062155532E+03  0.50071857772E+03  0.81026389118E+02 0.  0.
         14    1    6    6    0    0  0.19156777997E+03 -0.22247050380E+03  0.39270751457E+03  0.49031676637E+03  0.00000000000E+00 0. -1.
        -13    1    6    6    0    0  0.22115413569E+01 -0.99476398261E+01 -0.20859592550E+01  0.10401811347E+02  0.00000000000E+00 0.  1.
          5    1    5    5  501    0  0.30101983570E+02  0.18134695731E+02  0.17115329812E+02  0.39370307577E+02  0.47000000000E+01 0. -1.
         11    1    4    4    0    0 -0.28017225967E+02  0.47399465592E+02  0.68193754471E+02  0.87647375535E+02  0.00000000000E+00 0. -1.
        -12    1    4    4    0    0 -0.72212411124E+02  0.28196000206E+02  0.28123083905E+03  0.29171978263E+03  0.00000000000E+00 0.  1.
         -5    1    3    3    0  503 -0.12365166780E+03  0.13868798210E+03  0.18437367646E+03  0.26180113426E+03  0.47000000000E+01 0.  1.
</event>
<event>
12    1  0.9749377E-001  0.5246855E+03  0.7818608E-02  0.1007529E+00
         21   -1    0    0  503  502  0.00000000000E+00  0.00000000000E+00  0.62514552536E+03  0.62514552536E+03  0.00000000000E+00 0. -1.
         21   -1    0    0  501  503 -0.00000000000E+00 -0.00000000000E+00 -0.47337494115E+03  0.47337494115E+03  0.00000000000E+00 0.  1.
          6    2    1    2  501    0  0.14664292719E+03  0.49453067419E+03  0.52398245829E+02  0.54598295166E+03  0.17113465906E+03 0.  0.
         24    2    3    3    0    0  0.12708457092E+03  0.27702105024E+03  0.84044101547E+02  0.32526476937E+03  0.76436959304E+02 0.  0.
         -6    2    1    2    0  502 -0.14664292719E+03 -0.49453067419E+03  0.99372338385E+02  0.55253751485E+03  0.17134207851E+03 0.  0.
        -24    2    5    5    0    0 -0.12118863988E+03 -0.47552313740E+03  0.58421077960E+02  0.50049615699E+03  0.79211363917E+02 0.  0.
         14    1    4    4    0    0  0.24013291133E+02  0.46476241013E+02  0.46423646651E+02  0.69941647808E+02  0.00000000000E+00 0. -1.
        -13    1    4    4    0    0  0.10307127978E+03  0.23054480923E+03  0.37620454896E+02  0.25532312156E+03  0.00000000000E+00 0.  1.
          5    1    3    3  501    0  0.19558356272E+02  0.21750962395E+03 -0.31645855718E+02  0.22071818229E+03  0.47000000000E+01 0. -1.
         11    1    6    6    0    0 -0.46171865446E+02 -0.29325933680E+03  0.76782055112E+01  0.29697110064E+03  0.00000000000E+00 0. -1.
        -12    1    6    6    0    0 -0.75016774437E+02 -0.18226380060E+03  0.50742872449E+02  0.20352505635E+03  0.00000000000E+00 0.  1.
         -5    1    5    5    0  502 -0.25454287307E+02 -0.19007536789E+02  0.40951260425E+02  0.52041357856E+02  0.47000000000E+01 0.  1.
</event>
<event>
12    1  0.9749377E-001  0.3425483E+03  0.7818608E-02  0.1065716E+00
         21   -1    0    0  501  502  0.00000000000E+00  0.00000000000E+00  0.10807918225E+04  0.10807918225E+04  0.00000000000E+00 0.  1.
         21   -1    0    0  502  503 -0.00000000000E+00 -0.00000000000E+00 -0.13845854094E+03  0.13845854094E+03  0.00000000000E+00 0. -1.
         -6    2    1    2    0  503 -0.20262453992E+02  0.32242729325E+03  0.67204669935E+03  0.76490786967E+03  0.17049151449E+03 0.  0.
        -24    2    3    3    0    0 -0.21764639162E+02  0.26706737907E+03  0.64539944874E+03  0.70327068429E+03  0.79060245739E+02 0.  0.
          6    2    1    2  501    0  0.20262453992E+02 -0.32242729325E+03  0.27028658226E+03  0.45434249381E+03  0.17030073006E+03 0.  0.
         24    2    5    5    0    0  0.47169606884E+02 -0.32327224438E+03  0.25984313492E+03  0.42508733338E+03  0.80317310942E+02 0.  0.
         12    1    6    6    0    0  0.41752999162E+02 -0.13882025961E+03  0.72339731074E+02  0.16201053703E+03  0.00000000000E+00 0. -1.
        -11    1    6    6    0    0  0.54166077225E+01 -0.18445198477E+03  0.18750340385E+03  0.26307679635E+03  0.00000000000E+00 0.  1.
          5    1    5    5  501    0 -0.26907152892E+02  0.84495113440E+00  0.10443447340E+02  0.29255160425E+02  0.47000000000E+01 0. -1.
         11    1    4    4    0    0 -0.30750535270E+02  0.84753969009E+02  0.14642382631E+03  0.17195571405E+03  0.00000000000E+00 0. -1.
        -12    1    4    4    0    0  0.89858961086E+01  0.18231341006E+03  0.49897562243E+03  0.53131497024E+03  0.00000000000E+00 0.  1.
         -5    1    3    3    0  503  0.15021851693E+01  0.55359914172E+02  0.26647250604E+02  0.61637185385E+02  0.47000000000E+01 0.  1.
</event>
<event>
12    1  0.9749377E-001  0.7214851E+03  0.7818608E-02  0.9681179E-01
         21   -1    0    0  503  502  0.00000000000E+00  0.00000000000E+00  0.57225293907E+03  0.57225293907E+03  0.00000000000E+00 0. -1.
         21   -1    0    0  501  503 -0.00000000000E+00 -0.00000000000E+00 -0.11838290028E+04  0.11838290028E+04  0.00000000000E+00 0.  1.
          6    2    1    2  501    0 -0.68693283495E+03 -0.18954150287E+03  0.94074792805E+02  0.73863913595E+03  0.17010292610E+03 0.  0.
         24    2    3    3    0    0 -0.46288859218E+03 -0.74622241619E+02  0.10231159377E+03  0.48666256121E+03  0.80860735537E+02 0.  0.
         -6    2    1    2    0  502  0.68693283495E+03  0.18954150287E+03 -0.70565085653E+03  0.10174428059E+04  0.17159263076E+03 0.  0.
        -24    2    5    5    0    0  0.30584650491E+03  0.12449536226E+03 -0.26195553914E+03  0.42893161993E+03  0.79501259721E+02 0.  0.
         12    1    4    4    0    0 -0.14736240334E+03  0.75474709646E+01  0.10480524368E+02  0.14792729170E+03  0.00000000000E+00 0. -1.
        -11    1    4    4    0    0 -0.31552618883E+03 -0.82169712583E+02  0.91831069401E+02  0.33873526952E+03  0.00000000000E+00 0.  1.
          5    1    3    3  501    0 -0.22404424277E+03 -0.11491926125E+03 -0.82368009644E+01  0.25197657473E+03  0.47000000000E+01 0. -1.
         11    1    6    6    0    0  0.28305752007E+03  0.12102291746E+03 -0.26433130741E+03  0.40575749691E+03  0.00000000000E+00 0. -1.
        -12    1    6    6    0    0  0.22788984838E+02  0.34724448082E+01  0.23757682715E+01  0.23174123021E+02  0.00000000000E+00 0.  1.
         -5    1    5    5    0  502  0.38108633004E+03  0.65046140607E+02 -0.44369531739E+03  0.58851118598E+03  0.47000000000E+01 0.  1.
</event>
<event>
12    1  0.9749377E-001  0.4681097E+03  0.7818608E-02  0.1022455E+00
         21   -1    0    0  503  502  0.00000000000E+00  0.00000000000E+00  0.24281454801E+03  0.24281454801E+03  0.00000000000E+00 0.  1.
         21   -1    0    0  501  503 -0.00000000000E+00 -0.00000000000E+00 -0.97222575645E+03  0.97222575645E+03  0.00000000000E+00 0. -1.
          6    2    1    2  501    0  0.43383004386E+03 -0.84689204312E+02 -0.48837403639E+03  0.68177980842E+03  0.17587990069E+03 0.  0.
         24    2    3    3    0    0  0.10222680686E+03  0.84914538183E+01 -0.15939616197E+03  0.20544812388E+03  0.79242478041E+02 0.  0.
         -6    2    1    2    0  502 -0.43383004386E+03  0.84689204312E+02 -0.24103717205E+03  0.53326049604E+03  0.17574717647E+03 0.  0.
        -24    2    5    5    0    0 -0.11250043734E+03 -0.95990151612E+01 -0.98322352452E+02  0.16921023290E+03  0.78843696207E+02 0.  0.
         14    1    4    4    0    0  0.11566980950E+03  0.85253512432E+01 -0.13920364513E+03  0.18119006944E+03  0.00000000000E+00 0. -1.
        -13    1    4    4    0    0 -0.13443002644E+02 -0.33897424896E-01 -0.20192516836E+02  0.24258054441E+02  0.00000000000E+00 0.  1.
          5    1    3    3  501    0  0.33160323700E+03 -0.93180658130E+02 -0.32897787442E+03  0.47633168455E+03  0.47000000000E+01 0. -1.
         11    1    6    6    0    0 -0.21876956887E+02  0.22386768354E+02  0.58011334727E+00  0.31306631429E+02  0.00000000000E+00 0. -1.
        -12    1    6    6    0    0 -0.90623480457E+02 -0.31985783515E+02 -0.98902465799E+02  0.13790360147E+03  0.00000000000E+00 0.  1.
         -5    1    5    5    0  502 -0.32132960652E+03  0.94288219473E+02 -0.14271481960E+03  0.36405026314E+03  0.47000000000E+01 0.  1.
</event>
<event>
12    1  0.9749377E-001  0.1275740E+04  0.7818608E-02  0.9049028E-01
         21   -1    0    0  503  502  0.00000000000E+00  0.00000000000E+00  0.14428721879E+04  0.14428721879E+04  0.00000000000E+00 0.  1.
         21   -1    0    0  501  503 -0.00000000000E+00 -0.00000000000E+00 -0.13885159518E+04  0.13885159518E+04  0.00000000000E+00 0. -1.
          6    2    1    2  501    0 -0.12337668555E+04  0.29997003078E+03 -0.57382788910E+03  0.14041154229E+04  0.17349063729E+03 0.  0.
         24    2    3    3    0    0 -0.51766817033E+03  0.67709949272E+02 -0.25605855667E+03  0.58696090195E+03  0.79950885994E+02 0.  0.
         -6    2    1    2    0  502  0.12337668555E+04 -0.29997003078E+03  0.62818412514E+03  0.14272727169E+04  0.17415349553E+03 0.  0.
        -24    2    5    5    0    0  0.77914750843E+03 -0.15490352334E+03  0.45730565708E+03  0.92037570247E+03  0.83048348941E+02 0.  0.
         12    1    4    4    0    0 -0.37691832940E+03  0.60983751857E+02 -0.22319229040E+03  0.44226829360E+03  0.00000000000E+00 0. -1.
        -11    1    4    4    0    0 -0.14074984092E+03  0.67261974156E+01 -0.32866266269E+02  0.14469260835E+03  0.00000000000E+00 0.  1.
          5    1    3    3  501    0 -0.71609868521E+03  0.23226008150E+03 -0.31776933243E+03  0.81715452092E+03  0.47000000000E+01 0. -1.
         11    1    6    6    0    0  0.49157524088E+02 -0.31379620879E+02  0.31033678683E+02  0.66062334152E+02  0.00000000000E+00 0. -1.
        -12    1    6    6    0    0  0.72998998434E+03 -0.12352390246E+03  0.42627197839E+03  0.85431336831E+03  0.00000000000E+00 0.  1.
         -5    1    5    5    0  502  0.45461934711E+03 -0.14506650744E+03  0.17087846806E+03  0.50689701439E+03  0.47000000000E+01 0.  1.
</event>
<event>
12    1  0.9749377E-001  0.2508601E+03  0.7818608E-02  0.1112762E+00
         21   -1    0    0  501  502  0.00000000000E+00  0.00000000000E+00  0.29806759005E+03  0.29806759005E+03  0.00000000000E+00 0. -1.
         21   -1    0    0  502  503 -0.00000000000E+00 -0.00000000000E+00 -0.70089297609E+03  0.70089297609E+03  0.00000000000E+00 0.  1.
         -6    2    1    2    0  503 -0.66661742291E+02  0.22847052933E+03 -0.58585106437E+03  0.65587968159E+03  0.17410949554E+03 0.  0.
        -24    2    3    3    0    0 -0.30100817473E+02  0.41818958178E+02 -0.28299049565E+03  0.29821765631E+03  0.78710008471E+02 0.  0.
          6    2    1    2  501    0  0.66661742291E+02 -0.22847052933E+03  0.18302567832E+03  0.34308088455E+03  0.16602266038E+03 0.  0.
         24    2    5    5    0    0  0.42582640128E+02 -0.19454914038E+03  0.76470017888E+02  0.22859655130E+03  0.82134465150E+02 0.  0.
         14    1    6    6    0    0  0.46600613131E+01 -0.13000748348E+03  0.13526160442E+02  0.13079227404E+03  0.00000000000E+00 0. -1.
        -13    1    6    6    0    0  0.37922578815E+02 -0.64541656904E+02  0.62943857446E+02  0.97804277259E+02  0.00000000000E+00 0.  1.
          5    1    5    5  501    0  0.24079102163E+02 -0.33921388948E+02  0.10655566044E+03  0.11448433325E+03  0.47000000000E+01 0. -1.
         11    1    4    4    0    0  0.53980378603E+01  0.24620374623E+02 -0.19704745505E+02  0.31993415803E+02  0.00000000000E+00 0. -1.
        -12    1    4    4    0    0 -0.35498855334E+02  0.17198583555E+02 -0.26328575015E+03  0.26622424051E+03  0.00000000000E+00 0.  1.
         -5    1    3    3    0  503 -0.36560924817E+02  0.18665157115E+03 -0.30286056872E+03  0.35766202527E+03  0.47000000000E+01 0.  1.
</event>
<event>
12    1  0.9749377E-001  0.2867154E+03  0.7818608E-02  0.1092077E+00
         21   -1    0    0  501  502  0.00000000000E+00  0.00000000000E+00  0.53663648882E+03  0.53663648882E+03  0.00000000000E+00 0. -1.
         21   -1    0    0  502  503 -0.00000000000E+00 -0.00000000000E+00 -0.19615799615E+03  0.19615799615E+03  0.00000000000E+00 0.  1.
         -6    2    1    2    0  503 -0.16476999501E+03 -0.21687160543E+03  0.13256371141E+03  0.34810679735E+03  0.17153063947E+03 0.  0.
        -24    2    3    3    0    0 -0.62867524648E+02 -0.45320850249E+02  0.76060405820E+01  0.11262795632E+03  0.81368910340E+02 0.  0.
          6    2    1    2  501    0  0.16476999501E+03  0.21687160543E+03  0.20791478126E+03  0.38468768762E+03  0.17485312764E+03 0.  0.
         24    2    5    5    0    0  0.12122799920E+03  0.14487272827E+03  0.21814268054E+03  0.29979691289E+03  0.81287297369E+02 0.  0.
         12    1    6    6    0    0  0.12013637538E+03  0.14543845540E+03  0.17713237400E+03  0.25876817988E+03  0.00000000000E+00 0. -1.
        -11    1    6    6    0    0  0.10916238243E+01 -0.56572712447E+00  0.41010306540E+02  0.41028733008E+02  0.00000000000E+00 0.  1.
          5    1    5    5  501    0  0.43541995808E+02  0.71998877158E+02 -0.10227899289E+02  0.84890774733E+02  0.47000000000E+01 0. -1.
         13    1    4    4    0    0 -0.45273987670E+02 -0.61114252145E+02 -0.17602361814E+02  0.78067463877E+02  0.00000000000E+00 0. -1.
        -14    1    4    4    0    0 -0.17593536978E+02  0.15793401896E+02  0.25208402396E+02  0.34560492447E+02  0.00000000000E+00 0.  1.
         -5    1    3    3    0  503 -0.10190247036E+03 -0.17155075518E+03  0.12495767083E+03  0.23547884102E+03  0.47000000000E+01 0.  1.
</event>
<event>
12    1  0.9749377E-001  0.4801912E+03  0.7818608E-02  0.1019083E+00
         21   -1    0    0  501  502  0.00000000000E+00  0.00000000000E+00  0.42507400804E+03  0.42507400804E+03  0.00000000000E+00 0.  1.
         21   -1    0    0  502  503 -0.00000000000E+00 -0.00000000000E+00 -0.65090019510E+03  0.65090019510E+03  0.00000000000E+00 0. -1.
         -6    2    1    2    0  503 -0.38605406464E+03  0.23174892968E+03 -0.32793068020E+03  0.58308410251E+03  0.17234625713E+03 0.  0.
        -24    2    3    3    0    0 -0.15347681443E+03  0.16679477628E+03 -0.15037456469E+03  0.28331838813E+03  0.79253828848E+02 0.  0.
          6    2    1    2  501    0  0.38605406464E+03 -0.23174892968E+03  0.10210449315E+03  0.49289010064E+03  0.17253989844E+03 0.  0.
         24    2    5    5    0    0  0.25933866256E+03 -0.76625309462E+02  0.52198584869E+02  0.28641293397E+03  0.78611045870E+02 0.  0.
         12    1    6    6    0    0  0.21926081407E+03 -0.91690903702E+02  0.34790923550E+02  0.24019353607E+03  0.00000000000E+00 0. -1.
        -11    1    6    6    0    0  0.40077848493E+02  0.15065594240E+02  0.17407661319E+02  0.46219397900E+02  0.00000000000E+00 0.  1.
          5    1    5    5  501    0  0.12671540207E+03 -0.15512362022E+03  0.49905908281E+02  0.20647716667E+03  0.47000000000E+01 0. -1.
         11    1    4    4    0    0  0.47134928891E+01  0.25471875916E+02 -0.56094847176E+01  0.26504712726E+02  0.00000000000E+00 0. -1.
        -12    1    4    4    0    0 -0.15819030732E+03  0.14132290036E+03 -0.14476507997E+03  0.25681367540E+03  0.00000000000E+00 0.  1.
         -5    1    3    3    0  503 -0.23257725021E+03  0.64954153403E+02 -0.17755611552E+03  0.29976571438E+03  0.47000000000E+01 0.  1.
</event>
<event>
12    1  0.9749377E-001  0.3665758E+03  0.7818608E-02  0.1056010E+00
         21   -1    0    0  503  502  0.00000000000E+00  0.00000000000E+00  0.45481032355E+03  0.45481032355E+03  0.00000000000E+00 0.  1.
         21   -1    0    0  501  503 -0.00000000000E+00 -0.00000000000E+00 -0.36567210067E+03  0.36567210067E+03  0.00000000000E+00 0. -1.
          6    2    1    2  501    0  0.17142909955E+03  0.29781205989E+03 -0.94455617530E+02  0.39521727933E+03  0.17086507837E+03 0.  0.
         24    2    3    3    0    0  0.22517389267E+02  0.61046181240E+02 -0.40957489140E+02  0.11040695912E+03  0.79237059781E+02 0.  0.
         -6    2    1    2    0  502 -0.17142909955E+03 -0.29781205989E+03  0.18359384041E+03  0.42526514489E+03  0.17048104303E+03 0.  0.
        -24    2    5    5    0    0 -0.11091466306E+03 -0.13808520519E+03  0.16208564857E+03  0.25304622185E+03  0.79944021331E+02 0.  0.
         12    1    4    4    0    0 -0.24533997874E+02  0.46677941176E+02 -0.15222057815E+02  0.54885866015E+02  0.00000000000E+00 0. -1.
        -11    1    4    4    0    0  0.47051387141E+02  0.14368240065E+02 -0.25735431325E+02  0.55521093108E+02  0.00000000000E+00 0.  1.
          5    1    3    3  501    0  0.14891171029E+03  0.23676587865E+03 -0.53498128390E+02  0.28481032020E+03  0.47000000000E+01 0. -1.
         11    1    6    6    0    0 -0.10197345844E+03 -0.10511638684E+03  0.86472899025E+02  0.17007528708E+03  0.00000000000E+00 0. -1.
        -12    1    6    6    0    0 -0.89412046171E+01 -0.32968818349E+02  0.75612749540E+02  0.82970934769E+02  0.00000000000E+00 0.  1.
         -5    1    5    5    0  502 -0.60514436492E+02 -0.15972685470E+03  0.21508191845E+02  0.17221892304E+03  0.47000000000E+01 0.  1.
</event>
<event>
12    1  0.9749377E-001  0.2885005E+03  0.7818608E-02  0.1091135E+00
         21   -1    0    0  503  502  0.00000000000E+00  0.00000000000E+00  0.40448351667E+03  0.40448351667E+03  0.00000000000E+00 0.  1.
         21   -1    0    0  501  503 -0.00000000000E+00 -0.00000000000E+00 -0.24786757184E+03  0.24786757184E+03  0.00000000000E+00 0. -1.
          6    2    1    2  501    0  0.10324373612E+03 -0.23105222957E+03  0.16263826044E+03  0.34656645522E+03  0.17208341664E+03 0.  0.
         24    2    3    3    0    0  0.58521318345E+00 -0.14265789520E+03  0.52634495666E+02  0.17199483969E+03  0.80375476416E+02 0.  0.
         -6    2    1    2    0  502 -0.10324373612E+03  0.23105222957E+03 -0.60223156149E+01  0.30578463330E+03  0.17153300509E+03 0.  0.
        -24    2    5    5    0    0  0.11068811957E+02  0.10746468510E+03  0.19201050529E+02  0.13549209677E+03  0.79487425446E+02 0.  0.
         12    1    4    4    0    0  0.15548190351E+02 -0.14606487373E+03  0.40332433742E+02  0.15232661873E+03  0.00000000000E+00 0. -1.
        -11    1    4    4    0    0 -0.14962977167E+02  0.34069785284E+01  0.12302061924E+02  0.19668220967E+02  0.00000000000E+00 0.  1.
          5    1    3    3  501    0  0.10265852294E+03 -0.88394334369E+02  0.11000376478E+03  0.17457161552E+03  0.47000000000E+01 0. -1.
         13    1    6    6    0    0 -0.57811319273E+01  0.62728149583E+02 -0.27433551583E+02  0.68708383687E+02  0.00000000000E+00 0. -1.
        -14    1    6    6    0    0  0.16849943884E+02  0.44736535513E+02  0.46634602112E+02  0.66783713080E+02  0.00000000000E+00 0.  1.
         -5    1    5    5    0  502 -0.11431254808E+03  0.12358754448E+03 -0.25223366144E+02  0.17029253653E+03  0.47000000000E+01 0.  1.
</event>
<event>
12    1  0.9749377E-001  0.2915094E+03  0.7818608E-02  0.1089564E+00
         21   -1    0    0  503  502  0.00000000000E+00  0.00000000000E+00  0.22507034256E+03  0.22507034256E+03  0.00000000000E+00 0. -1.
         21   -1    0    0  501  503 -0.00000000000E+00 -0.00000000000E+00 -0.55466521092E+03  0.55466521092E+03  0.00000000000E+00 0.  1.
          6    2    1    2  501    0  0.99701963487E+02 -0.25806713721E+03 -0.13303630627E+02  0.32574873610E+03  0.17145297797E+03 0.  0.
         24    2    3    3    0    0  0.32627248435E+02 -0.95191041768E+02 -0.62315008082E+02  0.14285028071E+03  0.79982314874E+02 0.  0.
         -6    2    1    2    0  502 -0.99701963487E+02  0.25806713721E+03 -0.31629123774E+03  0.45398681738E+03  0.17182768827E+03 0.  0.
        -24    2    5    5    0    0 -0.64003883211E+02  0.15370455926E+03 -0.96704119291E+02  0.20820949296E+03  0.79233311598E+02 0.  0.
         12    1    4    4    0    0  0.27752278110E+01  0.96685135972E+01 -0.26092887741E+02  0.27964635439E+02  0.00000000000E+00 0. -1.
        -11    1    4    4    0    0  0.29852020624E+02 -0.10485955536E+03 -0.36222120342E+02  0.11488564527E+03  0.00000000000E+00 0.  1.
          5    1    3    3  501    0  0.67074715052E+02 -0.16287609544E+03  0.49011377456E+02  0.18289845539E+03  0.47000000000E+01 0. -1.
         13    1    6    6    0    0 -0.69461583577E+02  0.91485339563E+02 -0.88931240070E+02  0.14526955775E+03  0.00000000000E+00 0. -1.
        -14    1    6    6    0    0  0.54577003654E+01  0.62219219695E+02 -0.77728792211E+01  0.62939935209E+02  0.00000000000E+00 0.  1.
         -5    1    5    5    0  502 -0.35698080276E+02  0.10436257795E+03 -0.21958711845E+03  0.24577732442E+03  0.47000000000E+01 0.  1.
</event>
<event>
12    1  0.9749377E-001  0.4326289E+03  0.7818608E-02  0.1033033E+00
         21   -1    0    0  503  502  0.00000000000E+00  0.00000000000E+00  0.54016157978E+03  0.54016157978E+03  0.00000000000E+00 0. -1.
         21   -1    0    0  501  503 -0.00000000000E+00 -0.00000000000E+00 -0.13713005921E+04  0.13713005921E+04  0.00000000000E+00 0.  1.
          6    2    1    2  501    0  0.13772269483E+03  0.39169727484E+03  0.39920411907E+03  0.60154958817E+03  0.17350412835E+03 0.  0.
         24    2    3    3    0    0  0.46606755085E+02  0.17621457569E+03  0.26874874719E+03  0.33363989787E+03  0.76589333609E+02 0.  0.
         -6    2    1    2    0  502 -0.13772269483E+03 -0.39169727484E+03 -0.12303431314E+04  0.13099125837E+04  0.17243103039E+03 0.  0.
        -24    2    5    5    0    0 -0.88793112286E+02 -0.11226822011E+03 -0.51344125111E+03  0.53890992703E+03  0.79458297693E+02 0.  0.
         12    1    4    4    0    0  0.16246972382E+02  0.26518937166E+02  0.10588285489E+03  0.11035577510E+03  0.00000000000E+00 0. -1.
        -11    1    4    4    0    0  0.30359782703E+02  0.14969563853E+03  0.16286589231E+03  0.22328412276E+03  0.00000000000E+00 0.  1.
          5    1    3    3  501    0  0.91115939744E+02  0.21548269914E+03  0.13045537187E+03  0.26790969030E+03  0.47000000000E+01 0. -1.
         13    1    6    6    0    0 -0.59280480064E+02 -0.11942163498E+03 -0.41484465870E+03  0.43574280610E+03  0.00000000000E+00 0. -1.
        -14    1    6    6    0    0 -0.29512632222E+02  0.71534148755E+01 -0.98596592413E+02  0.10316712093E+03  0.00000000000E+00 0.  1.
         -5    1    5    5    0  502 -0.48929582543E+02 -0.27942905473E+03 -0.71690188027E+03  0.77100265668E+03  0.47000000000E+01 0.  1.
</event>
<event>
12    1  0.9749377E-001  0.4178903E+03  0.7818608E-02  0.1037755E+00
         21   -1    0    0  501  502  0.00000000000E+00  0.00000000000E+00  0.54385436773E+03  0.54385436773E+03  0.00000000000E+00 0.  1.
         21   -1    0    0  502  503 -0.00000000000E+00 -0.00000000000E+00 -0.57707996262E+03  0.57707996262E+03  0.00000000000E+00 0. -1.
         -6    2    1    2    0  503  0.30282259853E+03  0.24739855027E+03  0.34719471952E+03  0.54898142920E+03  0.16711932111E+03 0.  0.
        -24    2    3    3    0    0  0.83169215173E+02  0.13597770018E+03  0.16337208157E+03  0.24161346262E+03  0.79243769380E+02 0.  0.
          6    2    1    2  501    0 -0.30282259853E+03 -0.24739855027E+03 -0.38042031441E+03  0.57195290116E+03  0.17176418914E+03 0.  0.
         24    2    5    5    0    0 -0.81772556306E+02 -0.58278705534E+02 -0.17410952211E+03  0.21527984378E+03  0.77124101067E+02 0.  0.
         12    1    6    6    0    0 -0.73802032710E+02 -0.67815891233E+01 -0.93806913848E+02  0.11955110651E+03  0.00000000000E+00 0. -1.
        -11    1    6    6    0    0 -0.79705235963E+01 -0.51497116410E+02 -0.80302608259E+02  0.95728737264E+02  0.00000000000E+00 0.  1.
          5    1    5    5  501    0 -0.22105004222E+03 -0.18911984474E+03 -0.20631079230E+03  0.35667305738E+03  0.47000000000E+01 0. -1.
         11    1    4    4    0    0  0.44261044021E+02  0.17554500723E+02  0.74911261824E+02  0.88763154864E+02  0.00000000000E+00 0. -1.
        -12    1    4    4    0    0  0.38908171152E+02  0.11842319945E+03  0.88460819747E+02  0.15285030776E+03  0.00000000000E+00 0.  1.
         -5    1    3    3    0  503  0.21965338335E+03  0.11142085010E+03  0.18382263795E+03  0.30736796658E+03  0.47000000000E+01 0.  1.
</event>
<event>
12    1  0.9749377E-001  0.1919333E+03  0.7818608E-02  0.1156729E+00
         21   -1    0    0  503  502  0.00000000000E+00  0.00000000000E+00  0.14270508672E+03  0.14270508672E+03  0.00000000000E+00 0.  1.
         21   -1    0    0  501  503 -0.00000000000E+00 -0.00000000000E+00 -0.39999225331E+03  0.39999225331E+03  0.00000000000E+00 0.  1.
          6    2    1    2  501    0 -0.93238760643E+02  0.85401261922E+02 -0.77511669443E+01  0.21367556646E+03  0.17207650940E+03 0.  0.
         24    2    3    3    0    0 -0.81311514102E+02  0.12416489919E+02 -0.54258809614E+02  0.12618792744E+03  0.78826664668E+02 0.  0.
         -6    2    1    2    0  502  0.93238760643E+02 -0.85401261922E+02 -0.24953599965E+03  0.32902177358E+03  0.17320586118E+03 0.  0.
        -24    2    5    5    0    0 -0.16445523059E+02 -0.35663375527E+02 -0.14307346147E+03  0.16820864766E+03  0.79257820985E+02 0.  0.
         12    1    4    4    0    0 -0.95135799571E+02  0.11912075761E+02 -0.34146976982E+02  0.10177786570E+03  0.00000000000E+00 0. -1.
        -11    1    4    4    0    0  0.13824285468E+02  0.50441415832E+00 -0.20111832631E+02  0.24410061740E+02  0.00000000000E+00 0.  1.
          5    1    3    3  501    0 -0.11927246540E+02  0.72984772002E+02  0.46507642669E+02  0.87487639018E+02  0.47000000000E+01 0. -1.
         11    1    6    6    0    0 -0.26937451237E+02  0.12882463048E+02 -0.93021540145E+02  0.97696422986E+02  0.00000000000E+00 0. -1.
        -12    1    6    6    0    0  0.10491928178E+02 -0.48545838576E+02 -0.50051921329E+02  0.70512224675E+02  0.00000000000E+00 0.  1.
         -5    1    5    5    0  502  0.10968428370E+03 -0.49737886394E+02 -0.10646253817E+03  0.16081312592E+03  0.47000000000E+01 0.  1.
</event>
<event>
12    1  0.9749377E-001  0.7194647E+03  0.7818608E-02  0.9684512E-01
         21   -1    0    0  503  502  0.00000000000E+00  0.00000000000E+00  0.14421275151E+04  0.14421275151E+04  0.00000000000E+00 0.  1.
         21   -1    0    0  501  503 -0.00000000000E+00 -0.00000000000E+00 -0.37016685527E+03  0.37016685527E+03  0.00000000000E+00 0. -1.
          6    2    1    2  501    0  0.65818370328E+03  0.26429317798E+03  0.56977983470E+03  0.92589759597E+03  0.17199019448E+03 0.  0.
         24    2    3    3    0    0  0.23386368633E+03  0.12465013699E+03  0.16001135220E+03  0.31969634644E+03  0.79826315572E+02 0.  0.
         -6    2    1    2    0  502 -0.65818370328E+03 -0.26429317798E+03  0.50218082515E+03  0.88639677442E+03  0.17451930944E+03 0.  0.
        -24    2    5    5    0    0 -0.66120166949E+03 -0.26933268451E+03  0.50515194414E+03  0.87830836950E+03  0.80742569889E+02 0.  0.
         12    1    4    4    0    0  0.57855019857E+02  0.48704756026E+02  0.10003943142E+02  0.76285224392E+02  0.00000000000E+00 0. -1.
        -11    1    4    4    0    0  0.17600866647E+03  0.75945380967E+02  0.15000740906E+03  0.24341112205E+03  0.00000000000E+00 0.  1.
          5    1    3    3  501    0  0.42432001696E+03  0.13964304099E+03  0.40976848249E+03  0.60620124953E+03  0.47000000000E+01 0. -1.
         13    1    6    6    0    0 -0.23604958189E+03 -0.13266094874E+03  0.21495594545E+03  0.34572299738E+03  0.00000000000E+00 0. -1.
        -14    1    6    6    0    0 -0.42515208760E+03 -0.13667173577E+03  0.29019599869E+03  0.53258537213E+03  0.00000000000E+00 0.  1.
         -5    1    5    5    0  502  0.30179662026E+01  0.50395065327E+01 -0.29711189919E+01  0.80884049204E+01  0.47000000000E+01 0.  1.
</event>
<event>
12    1  0.9749377E-001  0.2141934E+03  0.7818608E-02  0.1138288E+00
         21   -1    0    0  503  502  0.00000000000E+00  0.00000000000E+00  0.21715925299E+03  0.21715925299E+03  0.00000000000E+00 0. -1.
         21   -1    0    0  501  503 -0.00000000000E+00 -0.00000000000E+00 -0.28619252777E+03  0.28619252777E+03  0.00000000000E+00 0.  1.
          6    2    1    2  501    0 -0.14250607731E+03 -0.78531284369E+02 -0.11823083851E+03  0.26434610764E+03  0.17153771817E+03 0.  0.
         24    2    3    3    0    0 -0.76161297980E+02 -0.96049796883E+02 -0.23176006547E+02  0.14701734260E+03  0.77787305873E+02 0.  0.
         -6    2    1    2    0  502  0.14250607731E+03  0.78531284369E+02  0.49197563737E+02  0.23900567312E+03  0.16801240077E+03 0.  0.
        -24    2    5    5    0    0  0.11431618566E+02 -0.15183811512E+00  0.24138939341E+02  0.84016731085E+02  0.79658130482E+02 0.  0.
         12    1    4    4    0    0 -0.72028201414E+02 -0.42073096647E+02  0.92291343957E+01  0.83924872249E+02  0.00000000000E+00 0. -1.
        -11    1    4    4    0    0 -0.41330965654E+01 -0.53976700237E+02 -0.32405140943E+02  0.63092470353E+02  0.00000000000E+00 0.  1.
          5    1    3    3  501    0 -0.66344779326E+02  0.17518512515E+02 -0.95054831965E+02  0.11732876503E+03  0.47000000000E+01 0. -1.
         11    1    6    6    0    0  0.28189271932E+02  0.25800916472E+02  0.34448372195E+02  0.51449127201E+02  0.00000000000E+00 0. -1.
        -12    1    6    6    0    0 -0.16757653366E+02 -0.25952754587E+02 -0.10309432854E+02  0.32567603884E+02  0.00000000000E+00 0.  1.
         -5    1    5    5    0  502  0.13107445874E+03  0.78683122484E+02  0.25058624396E+02  0.15498894204E+03  0.47000000000E+01 0.  1.
</event>
<event>
12    1  0.9749377E-001  0.1776786E+03  0.7818608E-02  0.1170069E+00
         21   -1    0    0  503  502  0.00000000000E+00  0.00000000000E+00  0.16443848895E+03  0.16443848895E+03  0.00000000000E+00 0.  1.
         21   -1    0    0  501  503 -0.00000000000E+00 -0.00000000000E+00 -0.24477146546E+03  0.24477146546E+03  0.00000000000E+00 0.  1.
          6    2    1    2  501    0 -0.72838137461E+02 -0.23022635797E+02 -0.11398419792E+03  0.21946808693E+03  0.17128458126E+03 0.  0.
         24    2    3    3    0    0 -0.33041162038E+02 -0.80812474527E+02 -0.57293348946E+02  0.12913865058E+03  0.75972947903E+02 0.  0.
         -6    2    1    2    0  502  0.72838137461E+02  0.23022635797E+02  0.33651221412E+02  0.18974186748E+03  0.17039405959E+03 0.  0.
        -24    2    5    5    0    0 -0.18710375396E+02 -0.15891291351E+02 -0.34958629394E+01  0.83452546248E+02  0.79683719349E+02 0.  0.
         12    1    4    4    0    0 -0.41069875212E+02 -0.83960477183E+02 -0.67857066142E+02  0.11550185195E+03  0.00000000000E+00 0. -1.
        -11    1    4    4    0    0  0.80287131739E+01  0.31480026566E+01  0.10563717195E+02  0.13636798632E+02  0.00000000000E+00 0.  1.
          5    1    3    3  501    0 -0.39796975423E+02  0.57789838730E+02 -0.56690848969E+02  0.90329436343E+02  0.47000000000E+01 0. -1.
         13    1    6    6    0    0  0.31306615480E+02 -0.10630084106E+02 -0.23713301438E+01  0.33147037086E+02  0.00000000000E+00 0. -1.
        -14    1    6    6    0    0 -0.50016990876E+02 -0.52612072448E+01 -0.11245327956E+01  0.50305509161E+02  0.00000000000E+00 0.  1.
         -5    1    5    5    0  502  0.91548512856E+02  0.38913927148E+02  0.37147084351E+02  0.10628932123E+03  0.47000000000E+01 0.  1.
</event>
<event>
12    1  0.9749377E-001  0.3414291E+03  0.7818608E-02  0.1066189E+00
         21   -1    0    0  503  502  0.00000000000E+00  0.00000000000E+00  0.33272779353E+03  0.33272779353E+03  0.00000000000E+00 0.  1.
         21   -1    0    0  501  503 -0.00000000000E+00 -0.00000000000E+00 -0.68826337907E+03  0.68826337907E+03  0.00000000000E+00 0. -1.
          6    2    1    2  501    0  0.29693898345E+03 -0.10383051305E+03 -0.51594644603E+03  0.62853253627E+03  0.17291292213E+03 0.  0.
         24    2    3    3    0    0  0.18656851335E+03  0.44595189003E+01 -0.32571217071E+03  0.38333967096E+03  0.77673597181E+02 0.  0.
         -6    2    1    2    0  502 -0.29693898345E+03  0.10383051305E+03  0.16041086049E+03  0.39245863633E+03  0.17128514745E+03 0.  0.
        -24    2    5    5    0    0 -0.17871711426E+03  0.64439957135E+02  0.16994300269E+03  0.26739474072E+03  0.80789901573E+02 0.  0.
         12    1    4    4    0    0  0.13519971126E+03  0.31734692573E+02 -0.26548664587E+03  0.29961510605E+03  0.00000000000E+00 0. -1.
        -11    1    4    4    0    0  0.51368802087E+02 -0.27275173673E+02 -0.60225524841E+02  0.83724564909E+02  0.00000000000E+00 0.  1.
          5    1    3    3  501    0  0.11037047010E+03 -0.10829003195E+03 -0.19023427532E+03  0.24519286531E+03  0.47000000000E+01 0. -1.
         11    1    6    6    0    0 -0.17099495681E+03  0.33123191889E+02  0.14216540273E+03  0.22482754019E+03  0.00000000000E+00 0. -1.
        -12    1    6    6    0    0 -0.77221574479E+01  0.31316765246E+02  0.27777599956E+02  0.42567200524E+02  0.00000000000E+00 0.  1.
         -5    1    5    5    0  502 -0.11822186920E+03  0.39390555920E+02 -0.95321422028E+01  0.12506389562E+03  0.47000000000E+01 0.  1.
</event>
<event>
12    1  0.9749377E-001  0.5461538E+03  0.7818608E-02  0.1002388E+00
         21   -1    0    0  503  502  0.00000000000E+00  0.00000000000E+00  0.26263419653E+03  0.26263419653E+03  0.00000000000E+00 0. -1.
         21   -1    0    0  501  503 -0.00000000000E+00 -0.00000000000E+00 -0.14186744541E+04  0.14186744541E+04  0.00000000000E+00 0.  1.
          6    2    1    2  501    0 -0.48962819290E+03 -0.20219671043E+03 -0.92178511091E+03  0.10770062934E+04  0.17214961050E+03 0.  0.
         24    2    3    3    0    0 -0.13960687225E+03 -0.57230588299E+02 -0.21720205708E+03  0.27701287395E+03  0.82425601081E+02 0.  0.
         -6    2    1    2    0  502  0.48962819290E+03  0.20219671043E+03 -0.23425514667E+03  0.60430235722E+03  0.17229796344E+03 0.  0.
        -24    2    5    5    0    0  0.34766894872E+03  0.18325525923E+03 -0.21895497969E+03  0.46019340298E+03  0.96852966276E+02 0.  0.
         12    1    4    4    0    0 -0.59817866722E+02  0.10516693660E+02 -0.11843475170E+03  0.13309984386E+03  0.00000000000E+00 0. -1.
        -11    1    4    4    0    0 -0.79789005529E+02 -0.67747281959E+02 -0.98767305380E+02  0.14391303009E+03  0.00000000000E+00 0.  1.
          5    1    3    3  501    0 -0.35002132065E+03 -0.14496612213E+03 -0.70458305383E+03  0.79999341949E+03  0.47000000000E+01 0. -1.
         11    1    6    6    0    0  0.57334111520E+02  0.76024046247E+02 -0.54378297995E+02  0.10965334124E+03  0.00000000000E+00 0. -1.
        -12    1    6    6    0    0  0.29033483720E+03  0.10723121299E+03 -0.16457668169E+03  0.35054006175E+03  0.00000000000E+00 0.  1.
         -5    1    5    5    0  502  0.14195924418E+03  0.18941451195E+02 -0.15300166980E+02  0.14410895423E+03  0.47000000000E+01 0.  1.
</event>
<event>
12    1  0.9749377E-001  0.5968064E+03  0.7818608E-02  0.9912054E-01
         21   -1    0    0  501  502  0.00000000000E+00  0.00000000000E+00  0.31879677645E+03  0.31879677645E+03  0.00000000000E+00 0.  1.
         21   -1    0    0  502  503 -0.00000000000E+00 -0.00000000000E+00 -0.24585054996E+04  0.24585054996E+04  0.00000000000E+00 0. -1.
         -6    2    1    2    0  503  0.32376186815E+03  0.49026087700E+03 -0.20731616657E+04  0.21616430510E+04  0.17182523884E+03 0.  0.
        -24    2    3    3    0    0  0.17017150687E+03  0.28207229599E+03 -0.93064329411E+03  0.99018976386E+03  0.76522582793E+02 0.  0.
          6    2    1    2  501    0 -0.32376186815E+03 -0.49026087700E+03 -0.66547057405E+02  0.61565922508E+03  0.17155260357E+03 0.  0.
         24    2    5    5    0    0 -0.56850977405E+02 -0.15380759144E+03 -0.33534252290E+02  0.18489923127E+03  0.78577164829E+02 0.  0.
         12    1    6    6    0    0 -0.23777891827E+02 -0.12944329541E+03 -0.49802112186E+02  0.14071675538E+03  0.00000000000E+00 0. -1.
        -11    1    6    6    0    0 -0.33073085578E+02 -0.24364296034E+02  0.16267859896E+02  0.44182475898E+02  0.00000000000E+00 0.  1.
          5    1    5    5  501    0 -0.26691089075E+03 -0.33645328556E+03 -0.33012805115E+02  0.43075999381E+03  0.47000000000E+01 0. -1.
         13    1    4    4    0    0  0.95332359196E+02  0.20028298857E+03 -0.53130636722E+03  0.57574993710E+03  0.00000000000E+00 0. -1.
        -14    1    4    4    0    0  0.74839147676E+02  0.81789307416E+02 -0.39933692688E+03  0.41443982676E+03  0.00000000000E+00 0.  1.
         -5    1    3    3    0  503  0.15359036128E+03  0.20818858102E+03 -0.11425183716E+04  0.11714532871E+04  0.47000000000E+01 0.  1.
</event>
<event>
12    1  0.1059906E+000  0.9793843E+03  0.7818608E-02  0.9331449E-01
         21   -1    0    0  503  502  0.00000000000E+00  0.00000000000E+00  0.13596731292E+04  0.13596731292E+04  0.00000000000E+00 0.  1.
         21   -1    0    0  501  503 -0.00000000000E+00 -0.00000000000E+00 -0.77515926481E+03  0.77515926481E+03  0.00000000000E+00 0. -1.
          6    2    1    2  501    0  0.82387217560E+03  0.51307671214E+03  0.59034236555E+03  0.11490259922E+04  0.17246317849E+03 0.  0.
         24    2    3    3    0    0  0.56533932729E+03  0.42495782500E+03  0.40346513697E+03  0.81804357502E+03  0.78825540731E+02 0.  0.
         -6    2    1    2    0  502 -0.82387217560E+03 -0.51307671214E+03 -0.58285011329E+01  0.98580640183E+03  0.17253178317E+03 0.  0.
        -24    2    5    5    0    0 -0.32766875764E+03 -0.14272759765E+03 -0.18386931011E+02  0.36648733805E+03  0.78974096119E+02 0.  0.
         14    1    4    4    0    0  0.54377771385E+03  0.40294042364E+03  0.36563107987E+03  0.76924721231E+03  0.00000000000E+00 0. -1.
        -13    1    4    4    0    0  0.21561613441E+02  0.22017401360E+02  0.37834057103E+02  0.48796362710E+02  0.00000000000E+00 0.  1.
          5    1    3    3  501    0  0.25853284831E+03  0.88118887144E+02  0.18687722858E+03  0.33098241719E+03  0.47000000000E+01 0. -1.
         11    1    6    6    0    0 -0.26891136088E+03 -0.12990218957E+03  0.12447425624E+02  0.29890272209E+03  0.00000000000E+00 0. -1.
        -12    1    6    6    0    0 -0.58757396755E+02 -0.12825408075E+02 -0.30834356634E+02  0.67584615963E+02  0.00000000000E+00 0.  1.
         -5    1    5    5    0  502 -0.49620341796E+03 -0.37034911450E+03  0.12558429878E+02  0.61931906378E+03  0.47000000000E+01 0.  1.
</event>
<event>
12    1  0.9749377E-001  0.5153683E+03  0.7818608E-02  0.1009844E+00
         21   -1    0    0  501  502  0.00000000000E+00  0.00000000000E+00  0.39421552081E+03  0.39421552081E+03  0.00000000000E+00 0.  1.
         21   -1    0    0  502  503 -0.00000000000E+00 -0.00000000000E+00 -0.72920419179E+03  0.72920419179E+03  0.00000000000E+00 0. -1.
         -6    2    1    2    0  503  0.10431555823E+03 -0.49221487667E+03 -0.95688409460E+02  0.54106018443E+03  0.17444950834E+03 0.  0.
        -24    2    3    3    0    0  0.81045027484E+02 -0.45254435921E+03 -0.12892019538E+03  0.48412417515E+03  0.79944397288E+02 0.  0.
          6    2    1    2  501    0 -0.10431555823E+03  0.49221487667E+03 -0.23930026152E+03  0.58235952818E+03  0.16947207554E+03 0.  0.
         24    2    5    5    0    0 -0.14960157990E+02  0.34683212591E+03 -0.19371715315E+03  0.40566645661E+03  0.80762668990E+02 0.  0.
         12    1    6    6    0    0  0.22363955627E+01  0.18980741030E+03 -0.61091409446E+02  0.19940916423E+03  0.00000000000E+00 0. -1.
        -11    1    6    6    0    0 -0.17196553552E+02  0.15702471560E+03 -0.13262574371E+03  0.20625729238E+03  0.00000000000E+00 0.  1.
          5    1    5    5  501    0 -0.89355400236E+02  0.14538275077E+03 -0.45583108365E+02  0.17669307157E+03  0.47000000000E+01 0. -1.
         13    1    4    4    0    0  0.36623057554E+02 -0.37387200121E+03 -0.93834982469E+02  0.38720346792E+03  0.00000000000E+00 0. -1.
        -14    1    4    4    0    0  0.44421969930E+02 -0.78672357999E+02 -0.35085212907E+02  0.96920707231E+02  0.00000000000E+00 0.  1.
         -5    1    3    3    0  503  0.23270530742E+02 -0.39670517462E+02  0.33231785916E+02  0.56936009273E+02  0.47000000000E+01 0.  1.
</event>
<event>
12    1  0.9749377E-001  0.4335109E+03  0.7818608E-02  0.1032757E+00
         21   -1    0    0  501  502  0.00000000000E+00  0.00000000000E+00  0.50747591713E+03  0.50747591713E+03  0.00000000000E+00 0. -1.
         21   -1    0    0  502  503 -0.00000000000E+00 -0.00000000000E+00 -0.54293388360E+03  0.54293388360E+03  0.00000000000E+00 0.  1.
         -6    2    1    2    0  503  0.26235655894E+03 -0.31987234237E+03 -0.28871795618E+03  0.53306344192E+03  0.17218970777E+03 0.  0.
        -24    2    3    3    0    0  0.10996841523E+03 -0.70852583992E+02 -0.12797433821E+03  0.19975639560E+03  0.80075247975E+02 0.  0.
          6    2    1    2  501    0 -0.26235655894E+03  0.31987234237E+03  0.25325998971E+03  0.51734635881E+03  0.17988149751E+03 0.  0.
         24    2    5    5    0    0 -0.38190960415E+02  0.12421691864E+03  0.10348035143E+03  0.18419880825E+03  0.79577795234E+02 0.  0.
         12    1    6    6    0    0 -0.54538281857E+02  0.10124904118E+03  0.10532646599E+03  0.15594696845E+03  0.00000000000E+00 0. -1.
        -11    1    6    6    0    0  0.16347321443E+02  0.22967877457E+02 -0.18461145657E+01  0.28251839802E+02  0.00000000000E+00 0.  1.
          5    1    5    5  501    0 -0.22416559852E+03  0.19565542374E+03  0.14977963828E+03  0.33314755056E+03  0.47000000000E+01 0. -1.
         13    1    4    4    0    0  0.19181456297E+02 -0.13221504706E+00  0.87188381766E+01  0.21070450532E+02  0.00000000000E+00 0. -1.
        -14    1    4    4    0    0  0.90786958935E+02 -0.70720368945E+02 -0.13669317638E+03  0.17868594507E+03  0.00000000000E+00 0.  1.
         -5    1    3    3    0  503  0.15238814371E+03 -0.24901975838E+03 -0.16074361797E+03  0.33330704632E+03  0.47000000000E+01 0.  1.
</event>
<event>
12    1  0.9749377E-001  0.2402810E+03  0.7818608E-02  0.1119606E+00
         21   -1    0    0  503  502  0.00000000000E+00  0.00000000000E+00  0.11684215043E+03  0.11684215043E+03  0.00000000000E+00 0. -1.
         21   -1    0    0  501  503 -0.00000000000E+00 -0.00000000000E+00 -0.67322232024E+03  0.67322232024E+03  0.00000000000E+00 0.  1.
          6    2    1    2  501    0  0.15455950092E+03 -0.11260407807E+03 -0.13470161420E+03  0.29601552736E+03  0.18141761175E+03 0.  0.
         24    2    3    3    0    0  0.30206690642E+01 -0.33882078013E+02 -0.53849204974E+02  0.10701718629E+03  0.85998962974E+02 0.  0.
         -6    2    1    2    0  502 -0.15455950092E+03  0.11260407807E+03 -0.42167855560E+03  0.49404894330E+03  0.17234626889E+03 0.  0.
        -24    2    5    5    0    0 -0.61491331911E+02  0.22839230977E+02 -0.83183520998E+02  0.13166738981E+03  0.78192000889E+02 0.  0.
         12    1    4    4    0    0 -0.10214016999E+00  0.22160444030E+02 -0.45045479908E+02  0.50201503686E+02  0.00000000000E+00 0. -1.
        -11    1    4    4    0    0  0.31228092342E+01 -0.56042522043E+02 -0.88037250662E+01  0.56815682602E+02  0.00000000000E+00 0.  1.
          5    1    3    3  501    0  0.15153883185E+03 -0.78722000053E+02 -0.80852409230E+02  0.18899834108E+03  0.47000000000E+01 0. -1.
         11    1    6    6    0    0 -0.37020378398E+02 -0.27475297690E+02 -0.36622187322E+02  0.58877712287E+02  0.00000000000E+00 0. -1.
        -12    1    6    6    0    0 -0.24470953513E+02  0.50314528667E+02 -0.46561333676E+02  0.72789677527E+02  0.00000000000E+00 0.  1.
         -5    1    5    5    0  502 -0.93068169005E+02  0.89764847088E+02 -0.33849503461E+03  0.36238155349E+03  0.47000000000E+01 0.  1.
</event>
<event>
12    1  0.9749377E-001  0.8374558E+03  0.7818608E-02  0.9507330E-01
         21   -1    0    0  501  502  0.00000000000E+00  0.00000000000E+00  0.39773544851E+03  0.39773544851E+03  0.00000000000E+00 0. -1.
         21   -1    0    0  502  503 -0.00000000000E+00 -0.00000000000E+00 -0.19584973585E+04  0.19584973585E+04  0.00000000000E+00 0.  1.
         -6    2    1    2    0  503 -0.76784326273E+03  0.31468687695E+03 -0.11085772064E+04  0.13954374340E+04  0.17231106440E+03 0.  0.
        -24    2    3    3    0    0 -0.74709961331E+03  0.28068585023E+03 -0.10837174218E+04  0.13482519733E+04  0.79984713942E+02 0.  0.
          6    2    1    2  501    0  0.76784326273E+03 -0.31468687695E+03 -0.45218470355E+03  0.96079537300E+03  0.17333677052E+03 0.  0.
         24    2    5    5    0    0  0.36417417110E+03 -0.12998237425E+03 -0.28282358542E+03  0.48564301093E+03  0.79634848393E+02 0.  0.
         12    1    6    6    0    0  0.20450024886E+03 -0.10188114197E+03 -0.19970460754E+03  0.30345024163E+03  0.00000000000E+00 0. -1.
        -11    1    6    6    0    0  0.15967392224E+03 -0.28101232283E+02 -0.83118977877E+02  0.18219276930E+03  0.00000000000E+00 0.  1.
          5    1    5    5  501    0  0.40366909163E+03 -0.18470450269E+03 -0.16936111813E+03  0.47515236207E+03  0.47000000000E+01 0. -1.
         13    1    4    4    0    0 -0.17596723424E+03  0.39830568457E+02 -0.28369279034E+03  0.33620312461E+03  0.00000000000E+00 0. -1.
        -14    1    4    4    0    0 -0.57113237907E+03  0.24085528177E+03 -0.80002463142E+03  0.10120488487E+04  0.00000000000E+00 0.  1.
         -5    1    3    3    0  503 -0.20743649422E+02  0.34001026720E+02 -0.24859784654E+02  0.47185460710E+02  0.47000000000E+01 0.  1.
</event>
<event>
12    1  0.9749377E-001  0.4711185E+03  0.7818608E-02  0.1021605E+00
         21   -1    0    0  501  502  0.00000000000E+00  0.00000000000E+00  0.76752576246E+03  0.76752576246E+03  0.00000000000E+00 0.  1.
         21   -1    0    0  502  503 -0.00000000000E+00 -0.00000000000E+00 -0.40942940709E+03  0.40942940709E+03  0.00000000000E+00 0. -1.
         -6    2    1    2    0  503 -0.45882470905E+03  0.72365975845E-02  0.46504372634E+03  0.67527967066E+03  0.17092937873E+03 0.  0.
        -24    2    3    3    0    0 -0.30793794899E+03  0.21439228687E+01  0.40067039984E+03  0.51115351505E+03  0.76881531031E+02 0.  0.
          6    2    1    2  501    0  0.45882470905E+03 -0.72365975845E-02 -0.10694737098E+03  0.50167549888E+03  0.17239620742E+03 0.  0.
         24    2    5    5    0    0  0.40987846423E+03 -0.38266571783E+02 -0.12369942569E+03  0.43716012903E+03  0.79641349422E+02 0.  0.
         14    1    6    6    0    0  0.13448767816E+03 -0.16827750145E+02 -0.26127124639E+01  0.13556155435E+03  0.00000000000E+00 0. -1.
        -13    1    6    6    0    0  0.27539078607E+03 -0.21438821638E+02 -0.12108671322E+03  0.30159857467E+03  0.00000000000E+00 0.  1.
          5    1    5    5  501    0  0.48946244815E+02  0.38259335185E+02  0.16752054708E+02  0.64515369853E+02  0.47000000000E+01 0. -1.
         13    1    4    4    0    0 -0.14350395170E+03  0.38950427132E+02  0.19685887416E+03  0.24670617394E+03  0.00000000000E+00 0. -1.
        -14    1    4    4    0    0 -0.16443399729E+03 -0.36806504264E+02  0.20381152568E+03  0.26444734111E+03  0.00000000000E+00 0.  1.
         -5    1    3    3    0  503 -0.15088676006E+03 -0.21366862711E+01  0.64373326509E+02  0.16412615561E+03  0.47000000000E+01 0.  1.
</event>
<event>
12    1  0.9749377E-001  0.5552114E+03  0.7818608E-02  0.1000295E+00
         21   -1    0    0  501  502  0.00000000000E+00  0.00000000000E+00  0.18936084365E+03  0.18936084365E+03  0.00000000000E+00 0. -1.
         21   -1    0    0  502  503 -0.00000000000E+00 -0.00000000000E+00 -0.17227651987E+04  0.17227651987E+04  0.00000000000E+00 0.  1.
         -6    2    1    2    0  503 -0.45543953457E+02  0.53891757236E+03 -0.85982631570E+03  0.10302252437E+04  0.17191962702E+03 0.  0.
        -24    2    3    3    0    0 -0.56359936045E+02  0.26103430681E+03 -0.50211643392E+03  0.57710876392E+03  0.98072730459E+02 0.  0.
          6    2    1    2  501    0  0.45543953457E+02 -0.53891757236E+03 -0.67357803935E+03  0.88190079862E+03  0.17758164887E+03 0.  0.
         24    2    5    5    0    0  0.38314561858E+02 -0.54275248510E+03 -0.62515852834E+03  0.83257018231E+03  0.79382977929E+02 0.  0.
         12    1    6    6    0    0  0.43831096289E+02 -0.23370069514E+03 -0.22928740731E+03  0.33031786972E+03  0.00000000000E+00 0. -1.
        -11    1    6    6    0    0 -0.55165344311E+01 -0.30905178996E+03 -0.39587112103E+03  0.50225231259E+03  0.00000000000E+00 0.  1.
          5    1    5    5  501    0  0.72293915992E+01  0.38349127438E+01 -0.48419511012E+02  0.49330616308E+02  0.47000000000E+01 0. -1.
         13    1    4    4    0    0 -0.34460905042E+02  0.24822479444E+03 -0.40108020878E+03  0.47293597498E+03  0.00000000000E+00 0. -1.
        -14    1    4    4    0    0 -0.21899031003E+02  0.12809512367E+02 -0.10103622514E+03  0.10417278894E+03  0.00000000000E+00 0.  1.
         -5    1    3    3    0  503  0.10815982588E+02  0.27788326555E+03 -0.35770988178E+03  0.45311647981E+03  0.47000000000E+01 0.  1.
</event>
<event>
12    1  0.9749377E-001  0.2986827E+03  0.7818608E-02  0.1085901E+00
         21   -1    0    0  501  502  0.00000000000E+00  0.00000000000E+00  0.47791857997E+02  0.47791857997E+02  0.00000000000E+00 0.  1.
         21   -1    0    0  502  503 -0.00000000000E+00 -0.00000000000E+00 -0.19831245178E+04  0.19831245178E+04  0.00000000000E+00 0. -1.
         -6    2    1    2    0  503  0.24832235347E+03  0.60076236951E+02 -0.99045433254E+03  0.10372709062E+04  0.17221498905E+03 0.  0.
        -24    2    3    3    0    0  0.26415295108E+03  0.70089343211E+02 -0.95889596833E+03  0.10002723863E+04  0.79837780584E+02 0.  0.
          6    2    1    2  501    0 -0.24832235347E+03 -0.60076236951E+02 -0.94487832727E+03  0.99364546964E+03  0.17106466761E+03 0.  0.
         24    2    5    5    0    0 -0.17909265343E+03  0.23928427113E+02 -0.64477197805E+03  0.67437216070E+03  0.80000995755E+02 0.  0.
         12    1    6    6    0    0 -0.43366622367E+02  0.37595455372E+02 -0.25623520372E+03  0.26258438992E+03  0.00000000000E+00 0. -1.
        -11    1    6    6    0    0 -0.13572603106E+03 -0.13667028258E+02 -0.38853677432E+03  0.41178777079E+03  0.00000000000E+00 0.  1.
          5    1    5    5  501    0 -0.69229700043E+02 -0.84004664065E+02 -0.30010634922E+03  0.31927330893E+03  0.47000000000E+01 0. -1.
         11    1    4    4    0    0  0.17096856094E+03  0.28841286821E+02 -0.71937103756E+03  0.73997078208E+03  0.00000000000E+00 0. -1.
        -12    1    4    4    0    0  0.93184390134E+02  0.41248056389E+02 -0.23952493077E+03  0.26030160426E+03  0.00000000000E+00 0.  1.
         -5    1    3    3    0  503 -0.15830597605E+02 -0.10013106259E+02 -0.31558364208E+02  0.36998519822E+02  0.47000000000E+01 0.  1.
</event>
<event>
12    1  0.9749377E-001  0.1469434E+03  0.7818608E-02  0.1204280E+00
         21   -1    0    0  503  502  0.00000000000E+00  0.00000000000E+00  0.24105510619E+03  0.24105510619E+03  0.00000000000E+00 0.  1.
         21   -1    0    0  501  503 -0.00000000000E+00 -0.00000000000E+00 -0.35234858735E+03  0.35234858735E+03  0.00000000000E+00 0. -1.
          6    2    1    2  501    0 -0.35974085140E+02  0.57595372085E+02  0.17521109088E+03  0.25209713927E+03  0.16805558478E+03 0.  0.
         24    2    3    3    0    0 -0.76644052851E+02  0.30154588435E+02  0.66658780243E+02  0.13287995500E+03  0.80187775986E+02 0.  0.
         -6    2    1    2    0  502  0.35974085140E+02 -0.57595372085E+02 -0.28650457204E+03  0.34130655427E+03  0.17260919007E+03 0.  0.
        -24    2    5    5    0    0  0.46227805239E+02 -0.83832556252E+02 -0.28685192659E+03  0.31274540471E+03  0.79754328502E+02 0.  0.
         12    1    4    4    0    0 -0.77448627010E+01  0.39099178693E+02  0.44979180312E+02  0.60098713250E+02  0.00000000000E+00 0. -1.
        -11    1    4    4    0    0 -0.68899190150E+02 -0.89445902586E+01  0.21679599931E+02  0.72781241755E+02  0.00000000000E+00 0.  1.
          5    1    3    3  501    0  0.40669967711E+02  0.27440783650E+02  0.10855231063E+03  0.11921718427E+03  0.47000000000E+01 0. -1.
         11    1    6    6    0    0  0.11659773428E+02 -0.67452271031E+02 -0.94857469710E+02  0.11697734286E+03  0.00000000000E+00 0. -1.
        -12    1    6    6    0    0  0.34568031810E+02 -0.16380285221E+02 -0.19199445688E+03  0.19576806184E+03  0.00000000000E+00 0.  1.
         -5    1    5    5    0  502 -0.10253720099E+02  0.26237184167E+02  0.34735454263E+00  0.28561149558E+02  0.47000000000E+01 0.  1.
</event>
<event>
12    1  0.9749377E-001  0.4309872E+03  0.7818608E-02  0.1033549E+00
         21   -1    0    0  503  502  0.00000000000E+00  0.00000000000E+00  0.50468927187E+03  0.50468927187E+03  0.00000000000E+00 0.  1.
         21   -1    0    0  501  503 -0.00000000000E+00 -0.00000000000E+00 -0.44496288554E+03  0.44496288554E+03  0.00000000000E+00 0. -1.
          6    2    1    2  501    0  0.40503201913E+03  0.51640024246E+02  0.19699015600E+03  0.48545247640E+03  0.17361266273E+03 0.  0.
         24    2    3    3    0    0  0.19837826453E+03 -0.10243708877E+01  0.16665028981E+03  0.26999503215E+03  0.75960602408E+02 0.  0.
         -6    2    1    2    0  502 -0.40503201913E+03 -0.51640024246E+02 -0.13726376968E+03  0.46419968101E+03  0.17298084508E+03 0.  0.
        -24    2    5    5    0    0 -0.16310179858E+03 -0.83042481133E+02 -0.43875760277E+02  0.20293399974E+03  0.75887255430E+02 0.  0.
         12    1    4    4    0    0  0.15113960670E+03  0.32207274417E+02  0.11695188961E+03  0.19379946780E+03  0.00000000000E+00 0. -1.
        -11    1    4    4    0    0  0.47238657836E+02 -0.33231645305E+02  0.49698400198E+02  0.76195564347E+02  0.00000000000E+00 0.  1.
          5    1    3    3  501    0  0.20665375460E+03  0.52664395133E+02  0.30339866198E+02  0.21545744425E+03  0.47000000000E+01 0. -1.
         11    1    6    6    0    0 -0.10911583974E+03 -0.22793059694E+02 -0.12168356467E+01  0.11147766925E+03  0.00000000000E+00 0. -1.
        -12    1    6    6    0    0 -0.53985958839E+02 -0.60249421438E+02 -0.42658924631E+02  0.91456330486E+02  0.00000000000E+00 0.  1.
         -5    1    5    5    0  502 -0.24193022055E+03  0.31402456887E+02 -0.93388009400E+02  0.26126568128E+03  0.47000000000E+01 0.  1.
</event>
<event>
12    1  0.9749377E-001  0.2284957E+03  0.7818608E-02  0.1127703E+00
         21   -1    0    0  503  502  0.00000000000E+00  0.00000000000E+00  0.85023730039E+03  0.85023730039E+03  0.00000000000E+00 0. -1.
         21   -1    0    0  501  503 -0.00000000000E+00 -0.00000000000E+00 -0.79913142248E+02  0.79913142248E+02  0.00000000000E+00 0. -1.
          6    2    1    2  501    0 -0.14975438176E+03  0.90909993390E+02  0.54355014860E+03  0.59652867693E+03  0.17236210895E+03 0.  0.
         24    2    3    3    0    0 -0.19487329092E+02  0.26160485305E+02  0.30258302393E+03  0.31501624562E+03  0.81330324301E+02 0.  0.
         -6    2    1    2    0  502  0.14975438176E+03 -0.90909993390E+02  0.22677400955E+03  0.33362176571E+03  0.17083919164E+03 0.  0.
        -24    2    5    5    0    0  0.38376202884E+02 -0.67950008822E+02  0.17767319590E+03  0.20966516234E+03  0.79383745875E+02 0.  0.
         14    1    4    4    0    0 -0.63360729804E+00 -0.28527672446E+02  0.12635538565E+03  0.12953730365E+03  0.00000000000E+00 0. -1.
        -13    1    4    4    0    0 -0.18853721794E+02  0.54688157751E+02  0.17622763828E+03  0.18547894198E+03  0.00000000000E+00 0.  1.
          5    1    3    3  501    0 -0.13026705266E+03  0.64749508085E+02  0.24096712467E+03  0.28151243131E+03  0.47000000000E+01 0. -1.
         11    1    6    6    0    0 -0.20794959018E+02 -0.41526440609E+02  0.70452346913E+02  0.84382514632E+02  0.00000000000E+00 0. -1.
        -12    1    6    6    0    0  0.59171161901E+02 -0.26423568213E+02  0.10722084899E+03  0.12528264771E+03  0.00000000000E+00 0.  1.
         -5    1    5    5    0  502  0.11137817887E+03 -0.22959984567E+02  0.49100813644E+02  0.12395660338E+03  0.47000000000E+01 0.  1.
</event>
<event>
12    1  0.9749377E-001  0.2828689E+03  0.7818608E-02  0.1094132E+00
         21   -1    0    0  501  502  0.00000000000E+00  0.00000000000E+00  0.16059936976E+03  0.16059936976E+03  0.00000000000E+00 0.  1.
         21   -1    0    0  502  503 -0.00000000000E+00 -0.00000000000E+00 -0.55120835163E+03  0.55120835163E+03  0.00000000000E+00 0. -1.
         -6    2    1    2    0  503 -0.29476398582E+02 -0.24028933213E+03 -0.17530810753E+03  0.34461332277E+03  0.17151556331E+03 0.  0.
        -24    2    3    3    0    0  0.33355121579E+02 -0.59897224687E+02 -0.63667593795E+02  0.12331079983E+03  0.80322781288E+02 0.  0.
          6    2    1    2  501    0  0.29476398582E+02  0.24028933213E+03 -0.21530087433E+03  0.36719439862E+03  0.17282777174E+03 0.  0.
         24    2    5    5    0    0 -0.48644076135E+02  0.66098595623E+02 -0.28523181544E+02  0.10007416768E+03  0.49658802500E+02 0.  0.
         14    1    6    6    0    0 -0.16695418970E+02  0.60915066654E+02 -0.14523781085E+02  0.64809895673E+02  0.00000000000E+00 0. -1.
        -13    1    6    6    0    0 -0.31948657165E+02  0.51835289684E+01 -0.13999400459E+02  0.35264272010E+02  0.00000000000E+00 0.  1.
          5    1    5    5  501    0  0.78120474718E+02  0.17419073651E+03 -0.18677769279E+03  0.26712023094E+03  0.47000000000E+01 0. -1.
         11    1    4    4    0    0  0.38619615815E+02 -0.68176617025E+02 -0.23268065276E+02  0.81736948171E+02  0.00000000000E+00 0. -1.
        -12    1    4    4    0    0 -0.52644942352E+01  0.82793923381E+01 -0.40399528519E+02  0.41573851657E+02  0.00000000000E+00 0.  1.
         -5    1    3    3    0  503 -0.62831520162E+02 -0.18039210744E+03 -0.11164051373E+03  0.22130252294E+03  0.47000000000E+01 0.  1.
</event>
<event>
12    1  0.9749377E-001  0.4015653E+03  0.7818608E-02  0.1043239E+00
         21   -1    0    0  501  502  0.00000000000E+00  0.00000000000E+00  0.17580083244E+04  0.17580083244E+04  0.00000000000E+00 0. -1.
         21   -1    0    0  502  503 -0.00000000000E+00 -0.00000000000E+00 -0.24981456594E+03  0.24981456594E+03  0.00000000000E+00 0.  1.
         -6    2    1    2    0  503  0.73337855487E+02  0.38403888498E+03 -0.13443522391E+02  0.42733694905E+03  0.17196462864E+03 0.  0.
        -24    2    3    3    0    0  0.73764009995E+02  0.32207123316E+03 -0.65648264054E+02  0.34617293897E+03  0.79718258274E+02 0.  0.
          6    2    1    2  501    0 -0.73337855487E+02 -0.38403888498E+03  0.15216372808E+04  0.15804859413E+04  0.17231218750E+03 0.  0.
         24    2    5    5    0    0 -0.72083646232E+02 -0.21103324036E+03  0.64002420157E+03  0.68204493731E+03  0.76310139008E+02 0.  0.
         12    1    6    6    0    0  0.45282627144E+01  0.46131528340E+01  0.25018518994E+02  0.25840136125E+02  0.00000000000E+00 0. -1.
        -11    1    6    6    0    0 -0.76611908947E+02 -0.21564639319E+03  0.61500568258E+03  0.65620480118E+03  0.00000000000E+00 0.  1.
          5    1    5    5  501    0 -0.12542092545E+01 -0.17300564462E+03  0.88161307924E+03  0.89844100396E+03  0.47000000000E+01 0. -1.
         13    1    4    4    0    0  0.59160284886E+02  0.17353851831E+03 -0.71538591772E+02  0.19680784221E+03  0.00000000000E+00 0. -1.
        -14    1    4    4    0    0  0.14603725109E+02  0.14853271485E+03  0.58903277173E+01  0.14936509675E+03  0.00000000000E+00 0.  1.
         -5    1    3    3    0  503 -0.42615450798E+00  0.61967651822E+02  0.52204741664E+02  0.81164010080E+02  0.47000000000E+01 0.  1.
</event>
<event>
12    1  0.9749377E-001  0.6271580E+03  0.7818608E-02  0.9850610E-01
         21   -1    0    0  503  502  0.00000000000E+00  0.00000000000E+00  0.84218674808E+03  0.84218674808E+03  0.00000000000E+00 0. -1.
         21   -1    0    0  501  503 -0.00000000000E+00 -0.00000000000E+00 -0.71043899204E+03  0.71043899204E+03  0.00000000000E+00 0.  1.
          6    2    1    2  501    0  0.37409560054E+03 -0.48205480242E+03  0.51064424783E+03  0.81408351787E+03  0.17219197239E+03 0.  0.
         24    2    3    3    0    0  0.67484841080E+02 -0.12982807028E+03  0.14378385788E+03  0.22021277069E+03  0.80064567566E+02 0.  0.
         -6    2    1    2    0  502 -0.37409560054E+03  0.48205480242E+03 -0.37889649180E+03  0.73854222225E+03  0.17192356344E+03 0.  0.
        -24    2    5    5    0    0 -0.22539826131E+03  0.21471800767E+03 -0.13839693289E+03  0.34938674129E+03  0.77518932777E+02 0.  0.
         14    1    4    4    0    0  0.50262945306E+02 -0.13847564010E+03  0.12350593617E+03  0.19223834903E+03  0.00000000000E+00 0. -1.
        -13    1    4    4    0    0  0.17221895775E+02  0.86475698193E+01  0.20277921711E+02  0.27974421652E+02  0.00000000000E+00 0.  1.
          5    1    3    3  501    0  0.30661075946E+03 -0.35222673214E+03  0.36686038995E+03  0.59387074719E+03  0.47000000000E+01 0. -1.
         13    1    6    6    0    0 -0.19206765403E+03  0.15675818977E+03 -0.13534744871E+03  0.28245715720E+03  0.00000000000E+00 0. -1.
        -14    1    6    6    0    0 -0.33330607282E+02  0.57959817899E+02 -0.30494841833E+01  0.66929584090E+02  0.00000000000E+00 0.  1.
         -5    1    5    5    0  502 -0.14869733923E+03  0.26733679475E+03 -0.24049955891E+03  0.38915548095E+03  0.47000000000E+01 0.  1.
</event>
<event>
12    1  0.9749377E-001  0.3347194E+03  0.7818608E-02  0.1069068E+00
         21   -1    0    0  501  502  0.00000000000E+00  0.00000000000E+00  0.27804757892E+03  0.27804757892E+03  0.00000000000E+00 0. -1.
         21   -1    0    0  502  503 -0.00000000000E+00 -0.00000000000E+00 -0.67757194289E+03  0.67757194289E+03  0.00000000000E+00 0.  1.
         -6    2    1    2    0  503  0.29541763281E+03  0.97101102371E+02  0.74747272477E+02  0.36297497848E+03  0.17164928897E+03 0.  0.
        -24    2    3    3    0    0  0.23731685308E+03  0.12478975183E+03  0.23908836167E+02  0.28082268989E+03  0.79987372715E+02 0.  0.
          6    2    1    2  501    0 -0.29541763281E+03 -0.97101102371E+02 -0.47427163645E+03  0.59264454333E+03  0.17202839224E+03 0.  0.
         24    2    5    5    0    0 -0.13267293398E+03 -0.25422040760E+02 -0.32448698581E+03  0.36009077225E+03  0.78263482781E+02 0.  0.
         14    1    6    6    0    0 -0.13016356894E+03 -0.41941640496E+02 -0.26372585250E+03  0.29707403313E+03  0.00000000000E+00 0. -1.
        -13    1    6    6    0    0 -0.25093650391E+01  0.16519599736E+02 -0.60761133306E+02  0.63016739118E+02  0.00000000000E+00 0.  1.
          5    1    5    5  501    0 -0.16274469883E+03 -0.71679061611E+02 -0.14978465065E+03  0.23255377108E+03  0.47000000000E+01 0. -1.
         13    1    4    4    0    0  0.26068796188E+02  0.35890035068E+02 -0.17926626737E+02  0.47843920178E+02  0.00000000000E+00 0. -1.
        -14    1    4    4    0    0  0.21124805689E+03  0.88899716765E+02  0.41835462905E+02  0.23297876971E+03  0.00000000000E+00 0.  1.
         -5    1    3    3    0  503  0.58100779735E+02 -0.27688649462E+02  0.50838436310E+02  0.82152288594E+02  0.47000000000E+01 0.  1.
</event>
<event>
12    1  0.9749377E-001  0.7689689E+03  0.7818608E-02  0.9606052E-01
         21   -1    0    0  501  502  0.00000000000E+00  0.00000000000E+00  0.22354708860E+03  0.22354708860E+03  0.00000000000E+00 0.  1.
         21   -1    0    0  502  503 -0.00000000000E+00 -0.00000000000E+00 -0.27855887606E+04  0.27855887606E+04  0.00000000000E+00 0. -1.
         -6    2    1    2    0  503 -0.34601511623E+03  0.67985262987E+03 -0.14864917765E+04  0.16795397829E+04  0.17108483841E+03 0.  0.
        -24    2    3    3    0    0 -0.17159616407E+03  0.29611312307E+03 -0.80833729018E+03  0.88104521362E+03  0.75519987820E+02 0.  0.
          6    2    1    2  501    0  0.34601511623E+03 -0.67985262987E+03 -0.10755498955E+04  0.13295960662E+04  0.17056395477E+03 0.  0.
         24    2    5    5    0    0  0.21875755930E+03 -0.37794061708E+03 -0.50856357151E+03  0.67473659212E+03  0.77062200124E+02 0.  0.
         14    1    6    6    0    0  0.64654303945E+02 -0.77253145928E+02 -0.77867903342E+02  0.12732493057E+03  0.00000000000E+00 0. -1.
        -13    1    6    6    0    0  0.15410325536E+03 -0.30068747115E+03 -0.43069566817E+03  0.54741166155E+03  0.00000000000E+00 0.  1.
          5    1    5    5  501    0  0.12725755692E+03 -0.30191201279E+03 -0.56698632397E+03  0.65485947411E+03  0.47000000000E+01 0. -1.
         11    1    4    4    0    0 -0.16627038767E+03  0.23013630292E+03 -0.67074746014E+03  0.72836166499E+03  0.00000000000E+00 0. -1.
        -12    1    4    4    0    0 -0.53257764005E+01  0.65976820148E+02 -0.13758983004E+03  0.15268354863E+03  0.00000000000E+00 0.  1.
         -5    1    3    3    0  503 -0.17441895215E+03  0.38373950680E+03 -0.67815448630E+03  0.79849456932E+03  0.47000000000E+01 0.  1.
</event>
<event>
12    1  0.9749377E-001  0.2778402E+03  0.7818608E-02  0.1096874E+00
         21   -1    0    0  503  502  0.00000000000E+00  0.00000000000E+00  0.36067204876E+03  0.36067204876E+03  0.00000000000E+00 0.  1.
         21   -1    0    0  501  503 -0.00000000000E+00 -0.00000000000E+00 -0.28853178983E+03  0.28853178983E+03  0.00000000000E+00 0. -1.
          6    2    1    2  501    0 -0.16499482980E+03 -0.21983093559E+03  0.47511303468E+02  0.32509604902E+03  0.16697659426E+03 0.  0.
         24    2    3    3    0    0 -0.13623828920E+03 -0.18880163646E+03  0.92371872537E+02  0.26325498912E+03  0.81016646999E+02 0.  0.
         -6    2    1    2    0  502  0.16499482980E+03  0.21983093559E+03  0.24628955462E+02  0.32410778957E+03  0.16997158501E+03 0.  0.
        -24    2    5    5    0    0  0.96285763782E+02  0.14301189983E+03  0.80479885283E+02  0.20678977574E+03  0.81003997522E+02 0.  0.
         14    1    4    4    0    0 -0.10911238149E+03 -0.13241589920E+03  0.10250746047E+03  0.19986811053E+03  0.00000000000E+00 0. -1.
        -13    1    4    4    0    0 -0.27125907713E+02 -0.56385737256E+02 -0.10135587936E+02  0.63386878595E+02  0.00000000000E+00 0.  1.
          5    1    3    3  501    0 -0.28756540598E+02 -0.31029299139E+02 -0.44860569069E+02  0.61841059899E+02  0.47000000000E+01 0. -1.
         13    1    6    6    0    0  0.39037375948E+02  0.88570045180E+02  0.40625114222E+01  0.96876589655E+02  0.00000000000E+00 0. -1.
        -14    1    6    6    0    0  0.57248387834E+02  0.54441854652E+02  0.76417373861E+02  0.10991318609E+03  0.00000000000E+00 0.  1.
         -5    1    5    5    0  502  0.68709066015E+02  0.76819035762E+02 -0.55850929821E+02  0.11731801383E+03  0.47000000000E+01 0.  1.
</event>
<event>
12    1  0.9749377E-001  0.7386078E+03  0.7818608E-02  0.9653394E-01
         21   -1    0    0  503  502  0.00000000000E+00  0.00000000000E+00  0.66756694800E+03  0.66756694800E+03  0.00000000000E+00 0. -1.
         21   -1    0    0  501  503 -0.00000000000E+00 -0.00000000000E+00 -0.86234013912E+03  0.86234013912E+03  0.00000000000E+00 0.  1.
          6    2    1    2  501    0 -0.90879344038E+02 -0.72738511629E+03 -0.19211697708E+03  0.77702457899E+03  0.17178504273E+03 0.  0.
         24    2    3    3    0    0 -0.36365822560E+02 -0.58243706614E+03 -0.19840912961E+03  0.62196542109E+03  0.83182890392E+02 0.  0.
         -6    2    1    2    0  502  0.90879344038E+02  0.72738511629E+03 -0.26562140391E+01  0.75288250812E+03  0.17168824360E+03 0.  0.
        -24    2    5    5    0    0  0.94751045491E+02  0.69988869179E+03 -0.32962769054E+02  0.71151077007E+03  0.79618404072E+02 0.  0.
         12    1    4    4    0    0 -0.11523204544E+02 -0.13778425100E+03 -0.85369896869E+02  0.16249708723E+03  0.00000000000E+00 0. -1.
        -11    1    4    4    0    0 -0.24842618017E+02 -0.44465281513E+03 -0.11303923274E+03  0.45946833385E+03  0.00000000000E+00 0.  1.
          5    1    3    3  501    0 -0.54513521478E+02 -0.14494805015E+03  0.62921525351E+01  0.15505915791E+03  0.47000000000E+01 0. -1.
         13    1    6    6    0    0  0.63948416475E+02  0.20683436590E+03 -0.18501547980E+02  0.21728359847E+03  0.00000000000E+00 0. -1.
        -14    1    6    6    0    0  0.30802629015E+02  0.49305432589E+03 -0.14461221074E+02  0.49422717160E+03  0.00000000000E+00 0.  1.
         -5    1    5    5    0  502 -0.38717014522E+01  0.27496424499E+02  0.30306555015E+02  0.41371738050E+02  0.47000000000E+01 0.  1.
</event>
<event>
12    1  0.9749377E-001  0.6597502E+03  0.7818608E-02  0.9788654E-01
         21   -1    0    0  503  502  0.00000000000E+00  0.00000000000E+00  0.13711300539E+04  0.13711300539E+04  0.00000000000E+00 0.  1.
         21   -1    0    0  501  503 -0.00000000000E+00 -0.00000000000E+00 -0.44919466731E+03  0.44919466731E+03  0.00000000000E+00 0. -1.
          6    2    1    2  501    0  0.51302614447E+03 -0.39448555940E+03  0.93527430169E+03  0.11503621420E+04  0.17256986109E+03 0.  0.
         24    2    3    3    0    0  0.20046017124E+03 -0.94828229370E+02  0.35934018764E+03  0.42979694944E+03  0.80145954081E+02 0.  0.
         -6    2    1    2    0  502 -0.51302614447E+03  0.39448555940E+03 -0.13338915139E+02  0.66996257912E+03  0.17279250354E+03 0.  0.
        -24    2    5    5    0    0 -0.32584474002E+03  0.30189177568E+03 -0.62131080625E+02  0.45545558071E+03  0.79158549742E+02 0.  0.
         14    1    4    4    0    0  0.10319631134E+03 -0.10427975866E+02  0.19645465254E+03  0.22215456750E+03  0.00000000000E+00 0. -1.
        -13    1    4    4    0    0  0.97263859902E+02 -0.84400253504E+02  0.16288553510E+03  0.20764238194E+03  0.00000000000E+00 0.  1.
          5    1    3    3  501    0  0.31256597322E+03 -0.29965733003E+03  0.57593411405E+03  0.72056519260E+03  0.47000000000E+01 0. -1.
         11    1    6    6    0    0 -0.86024559332E+02  0.63350739971E+02 -0.47411048254E+02  0.11688177172E+03  0.00000000000E+00 0. -1.
        -12    1    6    6    0    0 -0.23982018069E+03  0.23854103571E+03 -0.14720032371E+02  0.33857380899E+03  0.00000000000E+00 0.  1.
         -5    1    5    5    0  502 -0.18718140445E+03  0.92593783726E+02  0.48792165486E+02  0.21450699841E+03  0.47000000000E+01 0.  1.
</event>
<event>
12    1  0.9749377E-001  0.4045771E+03  0.7818608E-02  0.1042206E+00
         21   -1    0    0  501  502  0.00000000000E+00  0.00000000000E+00  0.14174891733E+04  0.14174891733E+04  0.00000000000E+00 0.  1.
         21   -1    0    0  502  503 -0.00000000000E+00 -0.00000000000E+00 -0.19877280957E+03  0.19877280957E+03  0.00000000000E+00 0. -1.
         -6    2    1    2    0  503 -0.14841135959E+03 -0.35021632530E+03  0.11082450099E+04  0.11843355312E+04  0.17252896038E+03 0.  0.
        -24    2    3    3    0    0 -0.17309754107E+03 -0.33228318439E+03  0.10562642497E+04  0.11238781534E+04  0.83863371031E+02 0.  0.
          6    2    1    2  501    0  0.14841135959E+03  0.35021632530E+03  0.11047135379E+03  0.43192645170E+03  0.17227632894E+03 0.  0.
         24    2    5    5    0    0  0.40046678658E+02  0.11406311063E+03 -0.11263532754E+02  0.14495481988E+03  0.79189033061E+02 0.  0.
         14    1    6    6    0    0 -0.17878050621E+02  0.60655933986E+02 -0.18360882246E+02  0.65847467822E+02  0.00000000000E+00 0. -1.
        -13    1    6    6    0    0  0.57924729280E+02  0.53407176646E+02  0.70973494916E+01  0.79107352055E+02  0.00000000000E+00 0.  1.
          5    1    5    5  501    0  0.10836468093E+03  0.23615321466E+03  0.12173488655E+03  0.28697163183E+03  0.47000000000E+01 0. -1.
         11    1    4    4    0    0 -0.17043010079E+03 -0.30844025219E+03  0.91353552153E+03  0.97914705613E+03  0.00000000000E+00 0. -1.
        -12    1    4    4    0    0 -0.26674402810E+01 -0.23842932193E+02  0.14272872821E+03  0.14473109725E+03  0.00000000000E+00 0.  1.
         -5    1    3    3    0  503  0.24686181479E+02 -0.17933140909E+02  0.51980760209E+02  0.60457377802E+02  0.47000000000E+01 0.  1.
</event>
<event>
12    1  0.9749377E-001  0.3711650E+03  0.7818608E-02  0.1054248E+00
         21   -1    0    0  501  502  0.00000000000E+00  0.00000000000E+00  0.82785131783E+03  0.82785131783E+03  0.00000000000E+00 0. -1.
         21   -1    0    0  502  503 -0.00000000000E+00 -0.00000000000E+00 -0.45422153356E+03  0.45422153356E+03  0.00000000000E+00 0.  1.
         -6    2    1    2    0  503  0.10303854356E+02  0.34594956696E+03  0.68454446165E+03  0.78651204480E+03  0.17381830845E+03 0.  0.
        -24    2    3    3    0    0 -0.39416340580E+02  0.10713076009E+03  0.30593599199E+03  0.33609780924E+03  0.79588055128E+02 0.  0.
          6    2    1    2  501    0 -0.10303854356E+02 -0.34594956696E+03 -0.31091467738E+03  0.49556080660E+03  0.17066137270E+03 0.  0.
         24    2    5    5    0    0 -0.50616329096E+02 -0.22582334777E+03 -0.13696189146E+03  0.28030034603E+03  0.79066599155E+02 0.  0.
         12    1    6    6    0    0 -0.17476752376E+02 -0.12732001947E+03 -0.31675546203E+02  0.13235998058E+03  0.00000000000E+00 0. -1.
        -11    1    6    6    0    0 -0.33139576719E+02 -0.98503328295E+02 -0.10528634526E+03  0.14794036545E+03  0.00000000000E+00 0.  1.
          5    1    5    5  501    0  0.40312474740E+02 -0.12012621919E+03 -0.17395278591E+03  0.21526046057E+03  0.47000000000E+01 0. -1.
         11    1    4    4    0    0  0.21220458593E+02  0.55664165787E+02  0.13558545840E+03  0.14809531980E+03  0.00000000000E+00 0. -1.
        -12    1    4    4    0    0 -0.60636799173E+02  0.51466594300E+02  0.17035053359E+03  0.18800248945E+03  0.00000000000E+00 0.  1.
         -5    1    3    3    0  503  0.49720194936E+02  0.23881880687E+03  0.37860846965E+03  0.45041423556E+03  0.47000000000E+01 0.  1.
</event>
<event>
12    1  0.9749377E-001  0.1854745E+03  0.7818608E-02  0.1162608E+00
         21   -1    0    0  501  502  0.00000000000E+00  0.00000000000E+00  0.38431382114E+03  0.38431382114E+03  0.00000000000E+00 0. -1.
         21   -1    0    0  502  503 -0.00000000000E+00 -0.00000000000E+00 -0.26947616556E+03  0.26947616556E+03  0.00000000000E+00 0.  1.
         -6    2    1    2    0  503  0.12265718244E+03  0.50211635678E+02  0.29933475377E+03  0.36868126234E+03  0.16958356531E+03 0.  0.
        -24    2    3    3    0    0  0.11571475840E+03  0.15729504666E+02  0.11700971518E+03  0.18293486451E+03  0.78336253277E+02 0.  0.
          6    2    1    2  501    0 -0.12265718244E+03 -0.50211635678E+02 -0.18449709819E+03  0.28510872436E+03  0.17228410462E+03 0.  0.
         24    2    5    5    0    0 -0.92262307174E+02  0.33637456367E+02 -0.12458248599E+03  0.17756166752E+03  0.79771788011E+02 0.  0.
         12    1    6    6    0    0  0.99298059582E-01  0.34130164027E+02 -0.35253044753E+02  0.49067862404E+02  0.00000000000E+00 0. -1.
        -11    1    6    6    0    0 -0.92361605234E+02 -0.49270766030E+00 -0.89329441234E+02  0.12849380512E+03  0.00000000000E+00 0.  1.
          5    1    5    5  501    0 -0.30394875266E+02 -0.83849092044E+02 -0.59914612202E+02  0.10754705684E+03  0.47000000000E+01 0. -1.
         11    1    4    4    0    0  0.66944095548E+02 -0.39620685047E+01  0.11141733210E+03  0.13004242311E+03  0.00000000000E+00 0. -1.
        -12    1    4    4    0    0  0.48770662848E+02  0.19691573170E+02  0.55923830816E+01  0.52892441398E+02  0.00000000000E+00 0.  1.
         -5    1    3    3    0  503  0.69424240441E+01  0.34482131012E+02  0.18232503859E+03  0.18574639783E+03  0.47000000000E+01 0.  1.
</event>
<event>
12    1  0.9749377E-001  0.7443319E+03  0.7818608E-02  0.9644285E-01
         21   -1    0    0  503  502  0.00000000000E+00  0.00000000000E+00  0.29316651481E+03  0.29316651481E+03  0.00000000000E+00 0.  1.
         21   -1    0    0  501  503 -0.00000000000E+00 -0.00000000000E+00 -0.20071466406E+04  0.20071466406E+04  0.00000000000E+00 0. -1.
          6    2    1    2  501    0 -0.38897740658E+03  0.61679778697E+03 -0.61077926663E+03  0.96697654977E+03  0.17392355336E+03 0.  0.
         24    2    3    3    0    0 -0.16678744271E+03  0.17804823900E+03 -0.20657540454E+03  0.33036646658E+03  0.83362929545E+02 0.  0.
         -6    2    1    2    0  502  0.38897740658E+03 -0.61679778697E+03 -0.11032008592E+04  0.13333366057E+04  0.17026871554E+03 0.  0.
        -24    2    5    5    0    0  0.38187062275E+03 -0.50352930725E+03 -0.94424086181E+03  0.11379635634E+04  0.63271879849E+02 0.  0.
         14    1    4    4    0    0 -0.10696382973E+03  0.74666495343E+02 -0.66956045456E+02  0.14662693620E+03  0.00000000000E+00 0. -1.
        -13    1    4    4    0    0 -0.59823612981E+02  0.10338174366E+03 -0.13961935908E+03  0.18373953038E+03  0.00000000000E+00 0.  1.
          5    1    3    3  501    0 -0.22218996386E+03  0.43874954797E+03 -0.40420386209E+03  0.63661008319E+03  0.47000000000E+01 0. -1.
         11    1    6    6    0    0  0.26499679537E+03 -0.38032057149E+03 -0.72731833291E+03  0.86247260596E+03  0.00000000000E+00 0. -1.
        -12    1    6    6    0    0  0.11687382739E+03 -0.12320873576E+03 -0.21692252890E+03  0.27549095746E+03  0.00000000000E+00 0.  1.
         -5    1    5    5    0  502  0.71067838227E+01 -0.11326847972E+03 -0.15895999738E+03  0.19537304226E+03  0.47000000000E+01 0.  1.
</event>
<event>
12    1  0.9749377E-001  0.2615406E+03  0.7818608E-02  0.1106221E+00
         21   -1    0    0  503  502  0.00000000000E+00  0.00000000000E+00  0.34678822239E+03  0.34678822239E+03  0.00000000000E+00 0.  1.
         21   -1    0    0  501  503 -0.00000000000E+00 -0.00000000000E+00 -0.23984585153E+03  0.23984585153E+03  0.00000000000E+00 0. -1.
          6    2    1    2  501    0  0.53491519806E+02 -0.19753957623E+03 -0.60017916169E+02  0.27413555030E+03  0.17223508007E+03 0.  0.
         24    2    3    3    0    0  0.90401890703E+02 -0.18752290027E+03 -0.30550034674E+02  0.22562621804E+03  0.81464996637E+02 0.  0.
         -6    2    1    2    0  502 -0.53491519806E+02  0.19753957623E+03  0.16696028702E+03  0.31249852362E+03  0.16702204331E+03 0.  0.
        -24    2    5    5    0    0 -0.98286167955E+02  0.13093324065E+03  0.13231777580E+03  0.22494763541E+03  0.79308010716E+02 0.  0.
         14    1    4    4    0    0  0.40554790287E+02 -0.15881074234E+02 -0.15622295192E+02  0.46270461865E+02  0.00000000000E+00 0. -1.
        -13    1    4    4    0    0  0.49847100416E+02 -0.17164182604E+03 -0.14927739482E+02  0.17935575617E+03  0.00000000000E+00 0.  1.
          5    1    3    3  501    0 -0.36910370897E+02 -0.10016675961E+02 -0.29467881495E+02  0.48509332266E+02  0.47000000000E+01 0. -1.
         11    1    6    6    0    0 -0.22308054082E+02  0.95410260821E+02  0.68402780997E+02  0.11949773050E+03  0.00000000000E+00 0. -1.
        -12    1    6    6    0    0 -0.75978113873E+02  0.35522979826E+02  0.63914994807E+02  0.10544990491E+03  0.00000000000E+00 0.  1.
         -5    1    5    5    0  502  0.44794648149E+02  0.66606335589E+02  0.34642511219E+02  0.87550888213E+02  0.47000000000E+01 0.  1.
</event>
<event>
12    1  0.9749377E-001  0.3786845E+03  0.7818608E-02  0.1051421E+00
         21   -1    0    0  503  502  0.00000000000E+00  0.00000000000E+00  0.40767556294E+03  0.40767556294E+03  0.00000000000E+00 0. -1.
         21   -1    0    0  501  503 -0.00000000000E+00 -0.00000000000E+00 -0.47299242037E+03  0.47299242037E+03  0.00000000000E+00 0.  1.
          6    2    1    2  501    0 -0.28197545257E+03  0.23492384566E+03 -0.19789831101E+03  0.45125628216E+03  0.17253730487E+03 0.  0.
         24    2    3    3    0    0 -0.21357207307E+03  0.13017262246E+03 -0.66739848083E+02  0.26993757522E+03  0.76512385650E+02 0.  0.
         -6    2    1    2    0  502  0.28197545257E+03 -0.23492384566E+03  0.13258145358E+03  0.42941170115E+03  0.17921271758E+03 0.  0.
        -24    2    5    5    0    0  0.16916053304E+03 -0.16076660580E+03  0.10701208686E+02  0.24746834077E+03  0.81638693876E+02 0.  0.
         12    1    4    4    0    0 -0.14899247000E+03  0.61156256101E+02 -0.69423196151E+02  0.17538079695E+03  0.00000000000E+00 0. -1.
        -11    1    4    4    0    0 -0.64579603071E+02  0.69016366362E+02  0.26833480673E+01  0.94556778263E+02  0.00000000000E+00 0.  1.
          5    1    3    3  501    0 -0.68403379498E+02  0.10475122320E+03 -0.13115846293E+03  0.18131870694E+03  0.47000000000E+01 0. -1.
         13    1    6    6    0    0  0.16907875719E+03 -0.13665074392E+03  0.25944475289E+02  0.21893873057E+03  0.00000000000E+00 0. -1.
        -14    1    6    6    0    0  0.81775852269E-01 -0.24115861876E+02 -0.15243266603E+02  0.28529610198E+02  0.00000000000E+00 0.  1.
         -5    1    5    5    0  502  0.11281491953E+03 -0.74157239863E+02  0.12188024490E+03  0.18194336038E+03  0.47000000000E+01 0.  1.
</event>
<event>
12    1  0.1181061E+000  0.7598830E+03  0.7818608E-02  0.9619972E-01
         21   -1    0    0  503  502  0.00000000000E+00  0.00000000000E+00  0.58181621033E+03  0.58181621033E+03  0.00000000000E+00 0.  1.
         21   -1    0    0  501  503 -0.00000000000E+00 -0.00000000000E+00 -0.11705285853E+04  0.11705285853E+04  0.00000000000E+00 0. -1.
          6    2    1    2  501    0 -0.38909575253E+03 -0.64471034174E+03  0.14160533892E+02  0.77246904487E+03  0.17164199710E+03 0.  0.
         24    2    3    3    0    0 -0.29038671499E+03 -0.47451805311E+03  0.73682828319E+02  0.56686290990E+03  0.80078539324E+02 0.  0.
         -6    2    1    2    0  502  0.38909575253E+03  0.64471034174E+03 -0.60287290891E+03  0.97987575080E+03  0.17220282612E+03 0.  0.
        -24    2    5    5    0    0  0.31044753824E+03  0.39266016145E+03 -0.35657133411E+03  0.61876442345E+03  0.71879197426E+02 0.  0.
         14    1    4    4    0    0 -0.10715769703E+03 -0.14959731950E+03  0.60136639136E+02  0.19359376384E+03  0.00000000000E+00 0. -1.
        -13    1    4    4    0    0 -0.18322901796E+03 -0.32492073361E+03  0.13546189183E+02  0.37326914605E+03  0.00000000000E+00 0.  1.
          5    1    3    3  501    0 -0.98709037542E+02 -0.17019228864E+03 -0.59522294427E+02  0.20560613497E+03  0.47000000000E+01 0. -1.
         11    1    6    6    0    0  0.90903315903E+02  0.14233629064E+03 -0.15691092215E+03  0.23052997628E+03  0.00000000000E+00 0. -1.
        -12    1    6    6    0    0  0.21954422234E+03  0.25032387081E+03 -0.19966041197E+03  0.38823444717E+03  0.00000000000E+00 0.  1.
         -5    1    5    5    0  502  0.78648214290E+02  0.25205018029E+03 -0.24630157479E+03  0.36111132735E+03  0.47000000000E+01 0.  1.
</event>
<event>
12    1  0.9749377E-001  0.2548130E+03  0.7818608E-02  0.1110300E+00
         21   -1    0    0  501  502  0.00000000000E+00  0.00000000000E+00  0.16017973847E+04  0.16017973847E+04  0.00000000000E+00 0.  1.
         21   -1    0    0  502  503 -0.00000000000E+00 -0.00000000000E+00 -0.92479156854E+02  0.92479156854E+02  0.00000000000E+00 0. -1.
         -6    2    1    2    0  503 -0.71414560776E+02 -0.22513667862E+03  0.13080752486E+04  0.13401733274E+04  0.17093018396E+03 0.  0.
        -24    2    3    3    0    0 -0.85806065141E+02 -0.22289101890E+03  0.12974362614E+04  0.13215336805E+04  0.77893062989E+02 0.  0.
          6    2    1    2  501    0  0.71414560776E+02  0.22513667862E+03  0.20124297921E+03  0.35410321417E+03  0.17059831785E+03 0.  0.
         24    2    5    5    0    0  0.47754556934E+02  0.20945534054E+03  0.10169416636E+03  0.25048006866E+03  0.79034953887E+02 0.  0.
         12    1    6    6    0    0  0.53693680277E+02  0.15077124193E+03  0.10497999605E+03  0.19140474985E+03  0.00000000000E+00 0. -1.
        -11    1    6    6    0    0 -0.59391233424E+01  0.58684098612E+02 -0.32858296885E+01  0.59075318812E+02  0.00000000000E+00 0.  1.
          5    1    5    5  501    0  0.23660003841E+02  0.15681338081E+02  0.99548812847E+02  0.10362314551E+03  0.47000000000E+01 0. -1.
         13    1    4    4    0    0 -0.31818966884E+02 -0.22468230839E+02  0.12715487265E+03  0.13298732905E+03  0.00000000000E+00 0. -1.
        -14    1    4    4    0    0 -0.53987098257E+02 -0.20042278806E+03  0.11702813888E+04  0.11885463515E+04  0.00000000000E+00 0.  1.
         -5    1    3    3    0  503  0.14391504365E+02 -0.22456597226E+01  0.10638987240E+02  0.18639646857E+02  0.47000000000E+01 0.  1.
</event>
<event>
12    1  0.9749377E-001  0.1621515E+03  0.7818608E-02  0.1186289E+00
         21   -1    0    0  501  502  0.00000000000E+00  0.00000000000E+00  0.22363326743E+02  0.22363326743E+02  0.00000000000E+00 0.  1.
         21   -1    0    0  502  503 -0.00000000000E+00 -0.00000000000E+00 -0.15630980164E+04  0.15630980164E+04  0.00000000000E+00 0. -1.
         -6    2    1    2    0  503 -0.25393897707E+02  0.65890454117E+02 -0.78156852812E+03  0.80315080622E+03  0.17092528019E+03 0.  0.
        -24    2    3    3    0    0 -0.16423978969E+02 -0.25423105758E+02 -0.24235920842E+03  0.25617054506E+03  0.77261121246E+02 0.  0.
          6    2    1    2  501    0  0.25393897707E+02 -0.65890454117E+02 -0.75916616157E+03  0.78231053695E+03  0.17518593941E+03 0.  0.
         24    2    5    5    0    0  0.62769833377E+02 -0.56239119431E+02 -0.29673287898E+03  0.31824508933E+03  0.78272887245E+02 0.  0.
         12    1    6    6    0    0  0.65017202562E+02 -0.71333415003E+02 -0.27677496028E+03  0.29312125710E+03  0.00000000000E+00 0. -1.
        -11    1    6    6    0    0 -0.22473691847E+01  0.15094295572E+02 -0.19957918693E+02  0.25123832224E+02  0.00000000000E+00 0.  1.
          5    1    5    5  501    0 -0.37375935671E+02 -0.96513346857E+01 -0.46243328260E+03  0.46406544763E+03  0.47000000000E+01 0. -1.
         11    1    4    4    0    0 -0.44429739267E+02 -0.74376502500E+00 -0.15315680411E+03  0.15947276119E+03  0.00000000000E+00 0. -1.
        -12    1    4    4    0    0  0.28005760298E+02 -0.24679340733E+02 -0.89202404312E+02  0.96697783862E+02  0.00000000000E+00 0.  1.
         -5    1    3    3    0  503 -0.89699187378E+01  0.91313559875E+02 -0.53920931969E+03  0.54698026117E+03  0.47000000000E+01 0.  1.
</event>
<event>
12    1  0.9749377E-001  0.2739737E+03  0.7818608E-02  0.1099027E+00
         21   -1    0    0  501  502  0.00000000000E+00  0.00000000000E+00  0.13141100126E+04  0.13141100126E+04  0.00000000000E+00 0. -1.
         21   -1    0    0  502  503 -0.00000000000E+00 -0.00000000000E+00 -0.67766812309E+02  0.67766812309E+02  0.00000000000E+00 0.  1.
         -6    2    1    2    0  503 -0.22689470594E+03  0.53775731883E+02  0.74478878552E+03  0.79995235172E+03  0.17561433044E+03 0.  0.
        -24    2    3    3    0    0 -0.20991569332E+03  0.94470079729E+02  0.64149474850E+03  0.68754209907E+03  0.90605912461E+02 0.  0.
          6    2    1    2  501    0  0.22689470594E+03 -0.53775731883E+02  0.50155441479E+03  0.58192447321E+03  0.18084862346E+03 0.  0.
         24    2    5    5    0    0  0.10330552202E+03 -0.50421317761E+02  0.39780060423E+03  0.42045471852E+03  0.72955530549E+02 0.  0.
         12    1    6    6    0    0  0.69778506085E+02  0.65035746931E+01  0.20652824404E+03  0.21809459411E+03  0.00000000000E+00 0. -1.
        -11    1    6    6    0    0  0.33527015938E+02 -0.56924892454E+02  0.19127236019E+03  0.20236012441E+03  0.00000000000E+00 0.  1.
          5    1    5    5  501    0  0.12358918391E+03 -0.33544141222E+01  0.10375381056E+03  0.16146975469E+03  0.47000000000E+01 0. -1.
         13    1    4    4    0    0 -0.50283168222E+02 -0.12199492751E+02  0.93123701295E+02  0.10653285114E+03  0.00000000000E+00 0. -1.
        -14    1    4    4    0    0 -0.15963252510E+03  0.10666957248E+03  0.54837104720E+03  0.58100924792E+03  0.00000000000E+00 0.  1.
         -5    1    3    3    0  503 -0.16979012618E+02 -0.40694347846E+02  0.10329403703E+03  0.11241025265E+03  0.47000000000E+01 0.  1.
</event>
<event>
12    1  0.9749377E-001  0.1917373E+03  0.7818608E-02  0.1156904E+00
         21   -1    0    0  503  502  0.00000000000E+00  0.00000000000E+00  0.22397702635E+03  0.22397702635E+03  0.00000000000E+00 0.  1.
         21   -1    0    0  501  503 -0.00000000000E+00 -0.00000000000E+00 -0.29761569986E+03  0.29761569986E+03  0.00000000000E+00 0. -1.
          6    2    1    2  501    0  0.15359433544E+03  0.77686780597E+01  0.78844669867E+02  0.24427748845E+03  0.17263672019E+03 0.  0.
         24    2    3    3    0    0  0.10011318356E+03 -0.30761488542E+02 -0.10527130771E+02  0.13312796711E+03  0.81506542344E+02 0.  0.
         -6    2    1    2    0  502 -0.15359433544E+03 -0.77686780597E+01 -0.15248334338E+03  0.27731523777E+03  0.17320796417E+03 0.  0.
        -24    2    5    5    0    0 -0.18516635121E+02  0.35364683259E+02 -0.40827882418E+02  0.96772988019E+02  0.78131738936E+02 0.  0.
         12    1    4    4    0    0  0.68280235244E+02 -0.65504346624E+01 -0.43559971969E+02  0.81256199008E+02  0.00000000000E+00 0. -1.
        -11    1    4    4    0    0  0.31832948316E+02 -0.24211053879E+02  0.33032841199E+02  0.51871768102E+02  0.00000000000E+00 0.  1.
          5    1    3    3  501    0  0.53481151876E+02  0.38530166601E+02  0.89371800638E+02  0.11114952134E+03  0.47000000000E+01 0. -1.
         13    1    6    6    0    0 -0.33392262850E+02  0.58820061347E+01 -0.51856149941E+02  0.61957255436E+02  0.00000000000E+00 0. -1.
        -14    1    6    6    0    0  0.14875627729E+02  0.29482677124E+02  0.11028267523E+02  0.34815732583E+02  0.00000000000E+00 0.  1.
         -5    1    5    5    0  502 -0.13507770031E+03 -0.43133361319E+02 -0.11165546096E+03  0.18054224975E+03  0.47000000000E+01 0.  1.
</event>
<event>
12    1  0.9749377E-001  0.4277246E+03  0.7818608E-02  0.1034581E+00
         21   -1    0    0  501  502  0.00000000000E+00  0.00000000000E+00  0.15494723842E+04  0.15494723842E+04  0.00000000000E+00 0. -1.
         21   -1    0    0  502  503 -0.00000000000E+00 -0.00000000000E+00 -0.17813685041E+03  0.17813685041E+03  0.00000000000E+00 0.  1.
         -6    2    1    2    0  503  0.33070675503E+03 -0.24004203233E+03  0.22262185100E+03  0.49632937520E+03  0.17261293415E+03 0.  0.
        -24    2    3    3    0    0  0.55678539969E+02 -0.61996214834E+02  0.76105296397E+02  0.13740038086E+03  0.78378683664E+02 0.  0.
          6    2    1    2  501    0 -0.33070675503E+03  0.24004203233E+03  0.11487136828E+04  0.12312798595E+04  0.17181336413E+03 0.  0.
         24    2    5    5    0    0 -0.11435021601E+03  0.12232320559E+03  0.35975399705E+03  0.40475257623E+03  0.79766979651E+02 0.  0.
         14    1    6    6    0    0 -0.10859103816E+03  0.11176714645E+03  0.36046447593E+03  0.39270669334E+03  0.00000000000E+00 0. -1.
        -13    1    6    6    0    0 -0.57591778539E+01  0.10556059143E+02 -0.71047887792E+00  0.12045882882E+02  0.00000000000E+00 0.  1.
          5    1    5    5  501    0 -0.21635653901E+03  0.11771882674E+03  0.78895968578E+03  0.82652728323E+03  0.47000000000E+01 0. -1.
         11    1    4    4    0    0  0.14705985466E+01 -0.59281011349E+02  0.31495552761E+02  0.67144402673E+02  0.00000000000E+00 0. -1.
        -12    1    4    4    0    0  0.54207941423E+02 -0.27152034856E+01  0.44609743637E+02  0.70255978184E+02  0.00000000000E+00 0.  1.
         -5    1    3    3    0  503  0.27502821506E+03 -0.17804581749E+03  0.14651655461E+03  0.35892899434E+03  0.47000000000E+01 0.  1.
</event>
<event>
12    1  0.9749377E-001  0.4793411E+03  0.7818608E-02  0.1019316E+00
         21   -1    0    0  503  502  0.00000000000E+00  0.00000000000E+00  0.40444882742E+03  0.40444882742E+03  0.00000000000E+00 0.  1.
         21   -1    0    0  501  503 -0.00000000000E+00 -0.00000000000E+00 -0.63293273137E+03  0.63293273137E+03  0.00000000000E+00 0. -1.
          6    2    1    2  501    0  0.49647904454E+02 -0.45358388377E+03 -0.25369710336E+03  0.54898668220E+03  0.16976720220E+03 0.  0.
         24    2    3    3    0    0  0.91502869104E+02 -0.35490022307E+03 -0.22716280722E+03  0.43845857796E+03  0.79473518921E+02 0.  0.
         -6    2    1    2    0  502 -0.49647904454E+02  0.45358388377E+03  0.25213199411E+02  0.48839487659E+03  0.17230959353E+03 0.  0.
        -24    2    5    5    0    0  0.38843517504E+02  0.15763762032E+03  0.10118827586E+02  0.17909752344E+03  0.74933931140E+02 0.  0.
         12    1    4    4    0    0  0.10325370727E+03 -0.34307429647E+03 -0.21518491209E+03  0.41793043364E+03  0.00000000000E+00 0. -1.
        -11    1    4    4    0    0 -0.11750838171E+02 -0.11825926600E+02 -0.11977895128E+02  0.20528144324E+02  0.00000000000E+00 0.  1.
          5    1    3    3  501    0 -0.41854964650E+02 -0.98683660698E+02 -0.26534296137E+02  0.11052810424E+03  0.47000000000E+01 0. -1.
         13    1    6    6    0    0  0.39141558193E+02  0.72655802487E+02 -0.26332526929E+02  0.86627531347E+02  0.00000000000E+00 0. -1.
        -14    1    6    6    0    0 -0.29804068909E+00  0.84981817835E+02  0.36451354515E+02  0.92469992088E+02  0.00000000000E+00 0.  1.
         -5    1    5    5    0  502 -0.88491421958E+02  0.29594626345E+03  0.15094371825E+02  0.30929735316E+03  0.47000000000E+01 0.  1.
</event>
<event>
12    1  0.9749377E-001  0.3704333E+03  0.7818608E-02  0.1054527E+00
         21   -1    0    0  501  502  0.00000000000E+00  0.00000000000E+00  0.18082923620E+03  0.18082923620E+03  0.00000000000E+00 0. -1.
         21   -1    0    0  502  503 -0.00000000000E+00 -0.00000000000E+00 -0.13475743848E+04  0.13475743848E+04  0.00000000000E+00 0.  1.
         -6    2    1    2    0  503  0.34074310614E+03  0.53381509432E+02 -0.10620518796E+04  0.11292616685E+04  0.16829221875E+03 0.  0.
        -24    2    3    3    0    0  0.23782836837E+03  0.92243809935E+02 -0.83854125689E+03  0.88010145870E+03  0.79723803352E+02 0.  0.
          6    2    1    2  501    0 -0.34074310614E+03 -0.53381509432E+02 -0.10469326892E+03  0.39914195250E+03  0.17145893899E+03 0.  0.
         24    2    5    5    0    0 -0.10065893539E+03 -0.63231730857E+02 -0.24332998777E+02  0.14573062891E+03  0.80714610279E+02 0.  0.
         14    1    6    6    0    0 -0.14483427593E+02 -0.44551389687E+02  0.14985112612E+02  0.49184851305E+02  0.00000000000E+00 0. -1.
        -13    1    6    6    0    0 -0.86175507799E+02 -0.18680341169E+02 -0.39318111389E+02  0.96545777608E+02  0.00000000000E+00 0.  1.
          5    1    5    5  501    0 -0.24008417074E+03  0.98502214248E+01 -0.80360270143E+02  0.25341132359E+03  0.47000000000E+01 0. -1.
         11    1    4    4    0    0  0.22922423564E+03  0.86236652124E+02 -0.70845330401E+03  0.74959095134E+03  0.00000000000E+00 0. -1.
        -12    1    4    4    0    0  0.86041327305E+01  0.60071578115E+01 -0.13008795288E+03  0.13051050736E+03  0.00000000000E+00 0.  1.
         -5    1    3    3    0  503  0.10291473777E+03 -0.38862300503E+02 -0.22351062275E+03  0.24916020977E+03  0.47000000000E+01 0.  1.
</event>
<event>
12    1  0.9749377E-001  0.3813368E+03  0.7818608E-02  0.1050441E+00
         21   -1    0    0  501  502  0.00000000000E+00  0.00000000000E+00  0.12922430782E+04  0.12922430782E+04  0.00000000000E+00 0. -1.
         21   -1    0    0  502  503 -0.00000000000E+00 -0.00000000000E+00 -0.17535346502E+03  0.17535346502E+03  0.00000000000E+00 0.  1.
         -6    2    1    2    0  503  0.33945851934E+03  0.13019231656E+03  0.95120372287E+03  0.10327854773E+04  0.17226489534E+03 0.  0.
        -24    2    3    3    0    0  0.24898880579E+03  0.61638942786E+02  0.50429718756E+03  0.57166523768E+03  0.81796735345E+02 0.  0.
          6    2    1    2  501    0 -0.33945851934E+03 -0.13019231656E+03  0.16568589033E+03  0.43481106590E+03  0.17154219051E+03 0.  0.
         24    2    5    5    0    0 -0.27064089848E+03 -0.34950658820E+02  0.11434617871E+03  0.30649624096E+03  0.79980326661E+02 0.  0.
         12    1    6    6    0    0 -0.22239890929E+03 -0.15478380389E+02  0.12164146312E+03  0.25396358137E+03  0.00000000000E+00 0. -1.
        -11    1    6    6    0    0 -0.48241989194E+02 -0.19472278431E+02 -0.72952844119E+01  0.52532659587E+02  0.00000000000E+00 0.  1.
          5    1    5    5  501    0 -0.68817620857E+02 -0.95241657737E+02  0.51339711621E+02  0.12831482494E+03  0.47000000000E+01 0. -1.
         11    1    4    4    0    0  0.87638107503E+01  0.18609899476E+01 -0.97243548271E+00  0.90118418328E+01  0.00000000000E+00 0. -1.
        -12    1    4    4    0    0  0.24022499504E+03  0.59777952838E+02  0.50526962305E+03  0.56265339585E+03  0.00000000000E+00 0.  1.
         -5    1    3    3    0  503  0.90469713546E+02  0.68553373772E+02  0.44690653530E+03  0.46112023966E+03  0.47000000000E+01 0.  1.
</event>
<event>
12    1  0.9749377E-001  0.6131192E+03  0.7818608E-02  0.9878556E-01
         21   -1    0    0  501  502  0.00000000000E+00  0.00000000000E+00  0.15568979429E+03  0.15568979429E+03  0.00000000000E+00 0. -1.
         21   -1    0    0  502  503 -0.00000000000E+00 -0.00000000000E+00 -0.26226572539E+04  0.26226572539E+04  0.00000000000E+00 0.  1.
         -6    2    1    2    0  503  0.18158288551E+03 -0.56919475366E+03 -0.15545087198E+04  0.16742304298E+04  0.17203243996E+03 0.  0.
        -24    2    3    3    0    0  0.93396895926E+02 -0.38756506198E+03 -0.86519061105E+03  0.95593546348E+03  0.79549729475E+02 0.  0.
          6    2    1    2  501    0 -0.18158288551E+03  0.56919475366E+03 -0.91245873987E+03  0.11041166184E+04  0.17186489797E+03 0.  0.
         24    2    5    5    0    0 -0.12304532736E+03  0.20919247693E+03 -0.37500967578E+03  0.45457688023E+03  0.84298506065E+02 0.  0.
         12    1    6    6    0    0 -0.11654489913E+03  0.11956005121E+03 -0.24939900372E+03  0.30012860979E+03  0.00000000000E+00 0. -1.
        -11    1    6    6    0    0 -0.65004282317E+01  0.89632425718E+02 -0.12561067206E+03  0.15444827044E+03  0.00000000000E+00 0.  1.
          5    1    5    5  501    0 -0.58537558152E+02  0.36000227672E+03 -0.53744906409E+03  0.64953973816E+03  0.47000000000E+01 0. -1.
         11    1    4    4    0    0 -0.33898391182E+01 -0.83878979455E+02 -0.23857420485E+03  0.25291268340E+03  0.00000000000E+00 0. -1.
        -12    1    4    4    0    0  0.96786735044E+02 -0.30368608252E+03 -0.62661640620E+03  0.70302278008E+03  0.00000000000E+00 0.  1.
         -5    1    3    3    0  503  0.88185989585E+02 -0.18162969168E+03 -0.68931810874E+03  0.71829496636E+03  0.47000000000E+01 0.  1.
</event>
<event>
12    1  0.9749377E-001  0.8913433E+03  0.7818608E-02  0.9436468E-01
         21   -1    0    0  503  502  0.00000000000E+00  0.00000000000E+00  0.99360051255E+03  0.99360051255E+03  0.00000000000E+00 0. -1.
         21   -1    0    0  501  503 -0.00000000000E+00 -0.00000000000E+00 -0.92399259786E+03  0.92399259786E+03  0.00000000000E+00 0.  1.
          6    2    1    2  501    0  0.11458592569E+03  0.87678498787E+03 -0.29191948167E+03  0.94696086811E+03  0.17215124929E+03 0.  0.
         24    2    3    3    0    0  0.11181718633E+03  0.71478035582E+03 -0.17957877697E+03  0.74974096380E+03  0.80305264076E+02 0.  0.
         -6    2    1    2    0  502 -0.11458592569E+03 -0.87678498787E+03  0.36152739635E+03  0.97063224230E+03  0.17188089532E+03 0.  0.
        -24    2    5    5    0    0 -0.58536806403E+02 -0.79304987802E+03  0.30918662269E+03  0.85698929716E+03  0.80496093481E+02 0.  0.
         14    1    4    4    0    0  0.66067558267E+02  0.51984790797E+03 -0.16314819863E+03  0.54883886924E+03  0.00000000000E+00 0. -1.
        -13    1    4    4    0    0  0.45749628061E+02  0.19493244786E+03 -0.16430578335E+02  0.20090209456E+03  0.00000000000E+00 0.  1.
          5    1    3    3  501    0  0.27687393649E+01  0.16200463204E+03 -0.11234070470E+03  0.19721990430E+03  0.47000000000E+01 0. -1.
         13    1    6    6    0    0 -0.23022349862E+02 -0.44691461419E+03  0.21522820796E+03  0.49657414600E+03  0.00000000000E+00 0. -1.
        -14    1    6    6    0    0 -0.35514456541E+02 -0.34613526383E+03  0.93958414727E+02  0.36041515116E+03  0.00000000000E+00 0.  1.
         -5    1    5    5    0  502 -0.56049119289E+02 -0.83735109847E+02  0.52340773658E+02  0.11364294515E+03  0.47000000000E+01 0.  1.
</event>
<event>
12    1  0.9749377E-001  0.6799517E+03  0.7818608E-02  0.9752145E-01
         21   -1    0    0  503  502  0.00000000000E+00  0.00000000000E+00  0.28829655654E+03  0.28829655654E+03  0.00000000000E+00 0.  1.
         21   -1    0    0  501  503 -0.00000000000E+00 -0.00000000000E+00 -0.16947747356E+04  0.16947747356E+04  0.00000000000E+00 0. -1.
          6    2    1    2  501    0 -0.42745747682E+03 -0.52254325062E+03 -0.78545861526E+03  0.10498354994E+04  0.17157504577E+03 0.  0.
         24    2    3    3    0    0 -0.28698329765E+03 -0.31044606983E+03 -0.58504717195E+03  0.72594501529E+03  0.77329143327E+02 0.  0.
         -6    2    1    2    0  502  0.42745747682E+03  0.52254325062E+03 -0.62101956381E+03  0.93323579271E+03  0.17173352297E+03 0.  0.
        -24    2    5    5    0    0  0.32511783311E+03  0.32669686566E+03 -0.35421466322E+03  0.58677345110E+03  0.80016297345E+02 0.  0.
         12    1    4    4    0    0 -0.19295418413E+03 -0.22554340744E+03 -0.34985708727E+03  0.45880401843E+03  0.00000000000E+00 0. -1.
        -11    1    4    4    0    0 -0.94029113524E+02 -0.84902662394E+02 -0.23519008468E+03  0.26714099686E+03  0.00000000000E+00 0.  1.
          5    1    3    3  501    0 -0.14047417917E+03 -0.21209718079E+03 -0.20041144330E+03  0.32389048414E+03  0.47000000000E+01 0. -1.
         13    1    6    6    0    0  0.29122285810E+03  0.29482101966E+03 -0.34527576601E+03  0.53939367934E+03  0.00000000000E+00 0. -1.
        -14    1    6    6    0    0  0.33894975006E+02  0.31875846000E+02 -0.89388972024E+01  0.47379771760E+02  0.00000000000E+00 0.  1.
         -5    1    5    5    0  502  0.10233964371E+03  0.19584638496E+03 -0.26680490059E+03  0.34646234162E+03  0.47000000000E+01 0.  1.
</event>
<event>
12    1  0.9749377E-001  0.2051973E+03  0.7818608E-02  0.1145427E+00
         21   -1    0    0  501  502  0.00000000000E+00  0.00000000000E+00  0.38654337361E+03  0.38654337361E+03  0.00000000000E+00 0. -1.
         21   -1    0    0  502  503 -0.00000000000E+00 -0.00000000000E+00 -0.13613017381E+03  0.13613017381E+03  0.00000000000E+00 0.  1.
         -6    2    1    2    0  503 -0.12243321528E+03 -0.85735647361E+02  0.15403875422E+03  0.27524535750E+03  0.17231243597E+03 0.  0.
        -24    2    3    3    0    0 -0.43340163938E+01 -0.56926509907E+02  0.32691886166E+02  0.10341829454E+03  0.79794567458E+02 0.  0.
          6    2    1    2  501    0  0.12243321528E+03  0.85735647361E+02  0.96374445576E+02  0.24742818993E+03  0.17202378318E+03 0.  0.
         24    2    5    5    0    0  0.88068339437E+01  0.36886217706E+02 -0.35373186995E+01  0.88363197067E+02  0.79733233922E+02 0.  0.
         12    1    6    6    0    0 -0.23871034597E+02  0.11614460728E+01  0.22985184185E+02  0.33158617911E+02  0.00000000000E+00 0. -1.
        -11    1    6    6    0    0  0.32677868541E+02  0.35724771633E+02 -0.26522502885E+02  0.55204579157E+02  0.00000000000E+00 0.  1.
          5    1    5    5  501    0  0.11362638134E+03  0.48849429655E+02  0.99911764276E+02  0.15906499286E+03  0.47000000000E+01 0. -1.
         13    1    4    4    0    0 -0.50665735774E+01  0.17503163323E+02 -0.64388989512E+01  0.19325897491E+02  0.00000000000E+00 0. -1.
        -14    1    4    4    0    0  0.73255718359E+00 -0.74429673230E+02  0.39130785117E+02  0.84092397047E+02  0.00000000000E+00 0.  1.
         -5    1    3    3    0  503 -0.11809919889E+03 -0.28809137454E+02  0.12134686806E+03  0.17182706296E+03  0.47000000000E+01 0.  1.
</event>
<event>
12    1  0.9749377E-001  0.8913960E+03  0.7818608E-02  0.9436401E-01
         21   -1    0    0  503  502  0.00000000000E+00  0.00000000000E+00  0.18122473736E+04  0.18122473736E+04  0.00000000000E+00 0. -1.
         21   -1    0    0  501  503 -0.00000000000E+00 -0.00000000000E+00 -0.89965056210E+03  0.89965056210E+03  0.00000000000E+00 0.  1.
          6    2    1    2  501    0  0.47850789649E+03 -0.74098563563E+03  0.14194602922E+04  0.16800013034E+04  0.17177700351E+03 0.  0.
         24    2    3    3    0    0  0.44536478409E+03 -0.70988012221E+03  0.13922838088E+04  0.16268348655E+04  0.76536896704E+02 0.  0.
         -6    2    1    2    0  502 -0.47850789649E+03  0.74098563563E+03 -0.50686348072E+03  0.10318966323E+04  0.17283099399E+03 0.  0.
        -24    2    5    5    0    0 -0.17756616420E+03  0.39475254687E+03 -0.24708467720E+03  0.50468662222E+03  0.79362667619E+02 0.  0.
         14    1    4    4    0    0  0.31737524124E+03 -0.48723781677E+03  0.89819933638E+03  0.10699952251E+04  0.00000000000E+00 0. -1.
        -13    1    4    4    0    0  0.12798954285E+03 -0.22264230544E+03  0.49408447240E+03  0.55683964040E+03  0.00000000000E+00 0.  1.
          5    1    3    3  501    0  0.33143112399E+02 -0.31105513422E+02  0.27176483421E+02  0.53166437871E+02  0.47000000000E+01 0. -1.
         13    1    6    6    0    0 -0.21235510839E+02  0.13656762480E+03 -0.80401632086E+02  0.15989398208E+03  0.00000000000E+00 0. -1.
        -14    1    6    6    0    0 -0.15633065336E+03  0.25818492207E+03 -0.16668304511E+03  0.34479264014E+03  0.00000000000E+00 0.  1.
         -5    1    5    5    0  502 -0.30094173229E+03  0.34623308876E+03 -0.25977880352E+03  0.52721001010E+03  0.47000000000E+01 0.  1.
</event>
<event>
12    1  0.1253970E+000  0.1429772E+04  0.7818608E-02  0.8932546E-01
         21   -1    0    0  501  502  0.00000000000E+00  0.00000000000E+00  0.15639988894E+04  0.15639988894E+04  0.00000000000E+00 0. -1.
         21   -1    0    0  502  503 -0.00000000000E+00 -0.00000000000E+00 -0.13524477892E+04  0.13524477892E+04  0.00000000000E+00 0.  1.
         -6    2    1    2    0  503  0.29910511645E+03 -0.13912626100E+04  0.34754856019E+03  0.14748727619E+04  0.17141803144E+03 0.  0.
        -24    2    3    3    0    0  0.21687138953E+03 -0.73480400453E+03  0.21069603116E+03  0.79926119361E+03  0.86345314834E+02 0.  0.
          6    2    1    2  501    0 -0.29910511645E+03  0.13912626100E+04 -0.13599746004E+03  0.14415739168E+04  0.18591537812E+03 0.  0.
         24    2    5    5    0    0 -0.25851450321E+03  0.87453123625E+03 -0.11526364472E+03  0.92281492498E+03  0.81651983667E+02 0.  0.
         14    1    6    6    0    0 -0.19215959035E+03  0.71949710846E+03 -0.68760796145E+02  0.74788330931E+03  0.00000000000E+00 0. -1.
        -13    1    6    6    0    0 -0.66354912858E+02  0.15503412778E+03 -0.46502848577E+02  0.17493161568E+03  0.00000000000E+00 0.  1.
          5    1    5    5  501    0 -0.40590613235E+02  0.51673137370E+03 -0.20733815314E+02  0.51875899178E+03  0.47000000000E+01 0. -1.
         11    1    4    4    0    0  0.16498139932E+03 -0.53964429103E+03  0.11546282913E+03  0.57599174288E+03  0.00000000000E+00 0. -1.
        -12    1    4    4    0    0  0.51889990205E+02 -0.19515971350E+03  0.95233202030E+02  0.22326945072E+03  0.00000000000E+00 0.  1.
         -5    1    3    3    0  503  0.82233726920E+02 -0.65645860542E+03  0.13685252902E+03  0.67561156827E+03  0.47000000000E+01 0.  1.
</event>
<event>
12    1  0.9749377E-001  0.4502106E+03  0.7818608E-02  0.1027659E+00
         21   -1    0    0  503  502  0.00000000000E+00  0.00000000000E+00  0.63334465526E+03  0.63334465526E+03  0.00000000000E+00 0.  1.
         21   -1    0    0  501  503 -0.00000000000E+00 -0.00000000000E+00 -0.34135070372E+03  0.34135070372E+03  0.00000000000E+00 0. -1.
          6    2    1    2  501    0 -0.27608847999E+03  0.31655883866E+03  0.38250751398E+02  0.45538733398E+03  0.17169786500E+03 0.  0.
         24    2    3    3    0    0 -0.13460084195E+03  0.25579861224E+03  0.27402039858E+02  0.30095177662E+03  0.79188278102E+02 0.  0.
         -6    2    1    2    0  502  0.27608847999E+03 -0.31655883866E+03  0.25374320014E+03  0.51930802501E+03  0.16988486129E+03 0.  0.
        -24    2    5    5    0    0  0.12537071089E+03 -0.78259016819E+02  0.54897005346E+02  0.17425071064E+03  0.74211455310E+02 0.  0.
         12    1    4    4    0    0 -0.10285858575E+02  0.95920594519E+02  0.18539958042E+02  0.98235886435E+02  0.00000000000E+00 0. -1.
        -11    1    4    4    0    0 -0.12431498338E+03  0.15987801772E+03  0.88620818155E+01  0.20271589019E+03  0.00000000000E+00 0.  1.
          5    1    3    3  501    0 -0.14148763804E+03  0.60760226428E+02  0.10848711540E+02  0.15443555736E+03  0.47000000000E+01 0. -1.
         13    1    6    6    0    0  0.10031866465E+03 -0.92585993954E+02  0.44852926611E+02  0.14369337417E+03  0.00000000000E+00 0. -1.
        -14    1    6    6    0    0  0.25052046237E+02  0.14326977135E+02  0.10044078736E+02  0.30557336470E+02  0.00000000000E+00 0.  1.
         -5    1    5    5    0  502  0.15071776911E+03 -0.23829982184E+03  0.19884619480E+03  0.34505731437E+03  0.47000000000E+01 0.  1.
</event>
<event>
12    1  0.9749377E-001  0.4159950E+03  0.7818608E-02  0.1038378E+00
         21   -1    0    0  503  502  0.00000000000E+00  0.00000000000E+00  0.24272876529E+03  0.24272876529E+03  0.00000000000E+00 0.  1.
         21   -1    0    0  501  503 -0.00000000000E+00 -0.00000000000E+00 -0.78198752812E+03  0.78198752812E+03  0.00000000000E+00 0. -1.
          6    2    1    2  501    0  0.10368500940E+03 -0.38302342421E+03 -0.25141865583E+03  0.50040658446E+03  0.17244675877E+03 0.  0.
         24    2    3    3    0    0  0.38497870616E+02 -0.18295412635E+03 -0.19645375733E+03  0.28287424877E+03  0.80432974930E+02 0.  0.
         -6    2    1    2    0  502 -0.10368500940E+03  0.38302342421E+03 -0.28784010700E+03  0.52430970894E+03  0.18598714748E+03 0.  0.
        -24    2    5    5    0    0  0.19401459495E+01  0.12518291474E+03 -0.45895562505E+02  0.15526004510E+03  0.79528313449E+02 0.  0.
         14    1    4    4    0    0  0.59805571275E+02 -0.14997459790E+03 -0.13767418264E+03  0.21218686796E+03  0.00000000000E+00 0. -1.
        -13    1    4    4    0    0 -0.21307700659E+02 -0.32979528453E+02 -0.58779574690E+02  0.70687380806E+02  0.00000000000E+00 0.  1.
          5    1    3    3  501    0  0.65187138786E+02 -0.20006929785E+03 -0.54964898501E+02  0.21753233570E+03  0.47000000000E+01 0. -1.
         11    1    6    6    0    0 -0.25795810967E+02  0.18131255714E+02 -0.30027604629E+02  0.43541053467E+02  0.00000000000E+00 0. -1.
        -12    1    6    6    0    0  0.27735956917E+02  0.10705165902E+03 -0.15867957876E+02  0.11171899164E+03  0.00000000000E+00 0.  1.
         -5    1    5    5    0  502 -0.10562515535E+03  0.25784050947E+03 -0.24194454449E+03  0.36904966383E+03  0.47000000000E+01 0.  1.
</event>
<event>
12    1  0.9749377E-001  0.4544830E+03  0.7818608E-02  0.1026394E+00
         21   -1    0    0  501  502  0.00000000000E+00  0.00000000000E+00  0.46444404216E+03  0.46444404216E+03  0.00000000000E+00 0.  1.
         21   -1    0    0  502  503 -0.00000000000E+00 -0.00000000000E+00 -0.50778417145E+03  0.50778417145E+03  0.00000000000E+00 0. -1.
         -6    2    1    2    0  503  0.43807491085E+03  0.45347027351E+02  0.88981043964E+02  0.48132039054E+03  0.17258537526E+03 0.  0.
        -24    2    3    3    0    0  0.18580586855E+03  0.58472540705E+02  0.90126445783E+02  0.22866380394E+03  0.78876486985E+02 0.  0.
          6    2    1    2  501    0 -0.43807491085E+03 -0.45347027351E+02 -0.13232117325E+03  0.49090782308E+03  0.17180109855E+03 0.  0.
         24    2    5    5    0    0 -0.42281187691E+03 -0.32853178596E+02 -0.15759186678E+03  0.45850790929E+03  0.74465373208E+02 0.  0.
         12    1    6    6    0    0 -0.28351144983E+03 -0.44766867190E+02 -0.77163602097E+02  0.29721547079E+03  0.00000000000E+00 0. -1.
        -11    1    6    6    0    0 -0.13930042708E+03  0.11913688595E+02 -0.80428264682E+02  0.16129243851E+03  0.00000000000E+00 0.  1.
          5    1    5    5  501    0 -0.15263033937E+02 -0.12493848756E+02  0.25270693530E+02  0.32399913783E+02  0.47000000000E+01 0. -1.
         11    1    4    4    0    0  0.35978572623E+02  0.46645302204E+02  0.15772494514E+02  0.60983714948E+02  0.00000000000E+00 0. -1.
        -12    1    4    4    0    0  0.14982729593E+03  0.11827238502E+02  0.74353951269E+02  0.16768008899E+03  0.00000000000E+00 0.  1.
         -5    1    3    3    0  503  0.25226904230E+03 -0.13125513354E+02 -0.11454018199E+01  0.25265658660E+03  0.47000000000E+01 0.  1.
</event>
<event>
12    1  0.9749377E-001  0.2073743E+03  0.7818608E-02  0.1143662E+00
         21   -1    0    0  501  502  0.00000000000E+00  0.00000000000E+00  0.31230588414E+03  0.31230588414E+03  0.00000000000E+00 0.  1.
         21   -1    0    0  502  503 -0.00000000000E+00 -0.00000000000E+00 -0.26062099144E+03  0.26062099144E+03  0.00000000000E+00 0.  1.
         -6    2    1    2    0  503 -0.16817306124E+03  0.24046876810E+02  0.17770795126E+03  0.29988550030E+03  0.17172875863E+03 0.  0.
        -24    2    3    3    0    0 -0.11981678324E+03  0.22596658948E+01  0.19666895112E+03  0.24336451573E+03  0.78653948066E+02 0.  0.
          6    2    1    2  501    0  0.16817306124E+03 -0.24046876810E+02 -0.12602305856E+03  0.27304137528E+03  0.17265384594E+03 0.  0.
         24    2    5    5    0    0  0.33083224528E+02 -0.46525938603E+02 -0.37060779199E+02  0.10966772579E+03  0.85990383279E+02 0.  0.
         12    1    6    6    0    0 -0.17510405055E+02  0.14307350608E+02 -0.16275367539E+02  0.27860404791E+02  0.00000000000E+00 0. -1.
        -11    1    6    6    0    0  0.50593629583E+02 -0.60833289211E+02 -0.20785411660E+02  0.81807320996E+02  0.00000000000E+00 0.  1.
          5    1    5    5  501    0  0.13508983671E+03  0.22479061793E+02 -0.88962279361E+02  0.16337364950E+03  0.47000000000E+01 0. -1.
         11    1    4    4    0    0 -0.55583769923E+01 -0.60054859070E+01  0.77982549103E+02  0.78410709602E+02  0.00000000000E+00 0. -1.
        -12    1    4    4    0    0 -0.11425840625E+03  0.82651518018E+01  0.11868640202E+03  0.16495380613E+03  0.00000000000E+00 0.  1.
         -5    1    3    3    0  503 -0.48356277998E+02  0.21787210915E+02 -0.18960999862E+02  0.56520984572E+02  0.47000000000E+01 0.  1.
</event>
<event>
12    1  0.9749377E-001  0.8115646E+03  0.7818608E-02  0.9543427E-01
         21   -1    0    0  503  502  0.00000000000E+00  0.00000000000E+00  0.61785780809E+03  0.61785780809E+03  0.00000000000E+00 0.  1.
         21   -1    0    0  501  503 -0.00000000000E+00 -0.00000000000E+00 -0.10847387256E+04  0.10847387256E+04  0.00000000000E+00 0. -1.
          6    2    1    2  501    0  0.28310545842E+03  0.74823886048E+03 -0.25972491434E+03  0.85848433935E+03  0.17183782138E+03 0.  0.
         24    2    3    3    0    0  0.92646822933E+02  0.32011729726E+03 -0.57770900961E+02  0.34821962545E+03  0.82830626881E+02 0.  0.
         -6    2    1    2    0  502 -0.28310545842E+03 -0.74823886048E+03 -0.20715600315E+03  0.84411219431E+03  0.17205142839E+03 0.  0.
        -24    2    5    5    0    0 -0.17544106332E+03 -0.29910887571E+03 -0.10436161095E+03  0.37093343077E+03  0.80340388316E+02 0.  0.
         14    1    4    4    0    0  0.18586666416E+02  0.18339083860E+03 -0.56229494171E+02  0.19271590455E+03  0.00000000000E+00 0. -1.
        -13    1    4    4    0    0  0.74060156517E+02  0.13672645865E+03 -0.15414067899E+01  0.15550372090E+03  0.00000000000E+00 0.  1.
          5    1    3    3  501    0  0.19045863549E+03  0.42812156323E+03 -0.20195401337E+03  0.51026471390E+03  0.47000000000E+01 0. -1.
         13    1    6    6    0    0 -0.53357592824E+02 -0.40965282325E+02 -0.39827712311E+02  0.78175659485E+02  0.00000000000E+00 0. -1.
        -14    1    6    6    0    0 -0.12208347050E+03 -0.25814359339E+03 -0.64533898642E+02  0.29275777129E+03  0.00000000000E+00 0.  1.
         -5    1    5    5    0  502 -0.10766439510E+03 -0.44912998477E+03 -0.10279439219E+03  0.47317876354E+03  0.47000000000E+01 0.  1.
</event>
<event>
12    1  0.9749377E-001  0.4617598E+03  0.7818608E-02  0.1024272E+00
         21   -1    0    0  503  502  0.00000000000E+00  0.00000000000E+00  0.27366683853E+03  0.27366683853E+03  0.00000000000E+00 0.  1.
         21   -1    0    0  501  503 -0.00000000000E+00 -0.00000000000E+00 -0.92240845507E+03  0.92240845507E+03  0.00000000000E+00 0. -1.
          6    2    1    2  501    0  0.17812633465E+03  0.41464326793E+03 -0.16019676183E+03  0.50895561653E+03  0.17237977366E+03 0.  0.
         24    2    3    3    0    0  0.95543974169E+02  0.26205821640E+03 -0.30318713914E+02  0.29217821563E+03  0.81521319257E+02 0.  0.
         -6    2    1    2    0  502 -0.17812633465E+03 -0.41464326793E+03 -0.48854485470E+03  0.68711967706E+03  0.17262486732E+03 0.  0.
        -24    2    5    5    0    0 -0.19293047214E+03 -0.39797244221E+03 -0.48928988047E+03  0.66432222150E+03  0.79468201193E+02 0.  0.
         14    1    4    4    0    0  0.85824150819E+02  0.15484748219E+03  0.97580617438E+01  0.17730974979E+03  0.00000000000E+00 0. -1.
        -13    1    4    4    0    0  0.97198233498E+01  0.10721073421E+03 -0.40076775657E+02  0.11486846583E+03  0.00000000000E+00 0.  1.
          5    1    3    3  501    0  0.82582360480E+02  0.15258505153E+03 -0.12987804792E+03  0.21677740090E+03  0.47000000000E+01 0. -1.
         11    1    6    6    0    0 -0.53375911877E+02 -0.12443357321E+03 -0.20609354815E+03  0.24659126647E+03  0.00000000000E+00 0. -1.
        -12    1    6    6    0    0 -0.13955456026E+03 -0.27353886901E+03 -0.28319633232E+03  0.41773095503E+03  0.00000000000E+00 0.  1.
         -5    1    5    5    0  502  0.14804137489E+02 -0.16670825716E+02  0.74502577129E+00  0.22797455565E+02  0.47000000000E+01 0.  1.
</event>
<event>
12    1  0.9749377E-001  0.3384943E+03  0.7818608E-02  0.1067439E+00
         21   -1    0    0  503  502  0.00000000000E+00  0.00000000000E+00  0.12550552238E+04  0.12550552238E+04  0.00000000000E+00 0. -1.
         21   -1    0    0  501  503 -0.00000000000E+00 -0.00000000000E+00 -0.44838027610E+03  0.44838027610E+03  0.00000000000E+00 0.  1.
          6    2    1    2  501    0 -0.19906352956E+03 -0.22672690801E+03  0.11581458925E+04  0.12092520716E+04  0.17308172838E+03 0.  0.
         24    2    3    3    0    0 -0.19564659613E+03 -0.12575193656E+03  0.77214992774E+03  0.81022501097E+03  0.78472398742E+02 0.  0.
         -6    2    1    2    0  502  0.19906352956E+03  0.22672690801E+03 -0.35147094482E+03  0.49418342830E+03  0.17220353114E+03 0.  0.
        -24    2    5    5    0    0  0.16079562992E+03  0.92174340336E+02 -0.16201554573E+03  0.25863244899E+03  0.79311808666E+02 0.  0.
         12    1    4    4    0    0 -0.74804528676E+02 -0.32022327564E+02  0.39412607203E+03  0.40243820349E+03  0.00000000000E+00 0. -1.
        -11    1    4    4    0    0 -0.12084206745E+03 -0.93729608999E+02  0.37802385571E+03  0.40778680748E+03  0.00000000000E+00 0.  1.
          5    1    3    3  501    0 -0.34169334371E+01 -0.10097497145E+03  0.38599596474E+03  0.39902706060E+03  0.47000000000E+01 0. -1.
         11    1    6    6    0    0  0.13239214049E+03  0.10636402492E+03 -0.13784057872E+03  0.21872587822E+03  0.00000000000E+00 0. -1.
        -12    1    6    6    0    0  0.28403489426E+02 -0.14189684589E+02 -0.24174967008E+02  0.39906570764E+02  0.00000000000E+00 0.  1.
         -5    1    5    5    0  502  0.38267899646E+02  0.13455256768E+03 -0.18945539909E+03  0.23555097932E+03  0.47000000000E+01 0.  1.
</event>
<event>
12    1  0.9749377E-001  0.3136225E+03  0.7818608E-02  0.1078622E+00
         21   -1    0    0  503  502  0.00000000000E+00  0.00000000000E+00  0.22566919438E+03  0.22566919438E+03  0.00000000000E+00 0. -1.
         21   -1    0    0  501  503 -0.00000000000E+00 -0.00000000000E+00 -0.52802258742E+03  0.52802258742E+03  0.00000000000E+00 0.  1.
          6    2    1    2  501    0 -0.29486054159E+03  0.37763611035E+02 -0.15409539132E+03  0.37891878845E+03  0.17738441112E+03 0.  0.
         24    2    3    3    0    0 -0.11232588807E+03 -0.41087947444E+01 -0.39116873464E+01  0.13881582504E+03  0.81366729428E+02 0.  0.
         -6    2    1    2    0  502  0.29486054159E+03 -0.37763611035E+02 -0.14825800172E+03  0.37477299335E+03  0.17350945844E+03 0.  0.
        -24    2    5    5    0    0  0.10265274482E+03 -0.51125193343E+02 -0.11095116283E+03  0.17846644927E+03  0.79929603837E+02 0.  0.
         12    1    4    4    0    0 -0.11663418816E+03 -0.17788325441E+02  0.10543480906E+02  0.11845304284E+03  0.00000000000E+00 0. -1.
        -11    1    4    4    0    0  0.43083000820E+01  0.13679530697E+02 -0.14455168252E+02  0.20362782199E+02  0.00000000000E+00 0.  1.
          5    1    3    3  501    0 -0.18253465351E+03  0.41872405779E+02 -0.15018370397E+03  0.24010296341E+03  0.47000000000E+01 0. -1.
         11    1    6    6    0    0  0.80599663126E+02 -0.37158842955E+02 -0.12137138405E+03  0.15035989549E+03  0.00000000000E+00 0. -1.
        -12    1    6    6    0    0  0.22053081695E+02 -0.13966350388E+02  0.10420221218E+02  0.28106553785E+02  0.00000000000E+00 0.  1.
         -5    1    5    5    0  502  0.19220779677E+03  0.13361582309E+02 -0.37306838887E+02  0.19630654408E+03  0.47000000000E+01 0.  1.
</event>
<event>
12    1  0.9749377E-001  0.3947341E+03  0.7818608E-02  0.1045618E+00
         21   -1    0    0  501  502  0.00000000000E+00  0.00000000000E+00  0.14080173540E+03  0.14080173540E+03  0.00000000000E+00 0.  1.
         21   -1    0    0  502  503 -0.00000000000E+00 -0.00000000000E+00 -0.12242106710E+04  0.12242106710E+04  0.00000000000E+00 0. -1.
         -6    2    1    2    0  503  0.37390274492E+03 -0.53123867972E+02 -0.51544181521E+03  0.66168565695E+03  0.17182035893E+03 0.  0.
        -24    2    3    3    0    0  0.30222210825E+03 -0.98575433114E+02 -0.38293051905E+03  0.50425220416E+03  0.81112170814E+02 0.  0.
          6    2    1    2  501    0 -0.37390274492E+03  0.53123867972E+02 -0.56796712036E+03  0.70332674942E+03  0.17162883973E+03 0.  0.
         24    2    5    5    0    0 -0.22548858176E+03  0.44447909115E+02 -0.23267232723E+03  0.33652063661E+03  0.79303277865E+02 0.  0.
         12    1    6    6    0    0 -0.18774674706E+03  0.54112407295E+02 -0.15419140362E+03  0.24890155204E+03  0.00000000000E+00 0. -1.
        -11    1    6    6    0    0 -0.37741834694E+02 -0.96644981797E+01 -0.78480923612E+02  0.87619084577E+02  0.00000000000E+00 0.  1.
          5    1    5    5  501    0 -0.14841416316E+03  0.86759588565E+01 -0.33529479313E+03  0.36680611280E+03  0.47000000000E+01 0. -1.
         13    1    4    4    0    0  0.27429305513E+03 -0.10319472065E+03 -0.37276796653E+03  0.47417484891E+03  0.00000000000E+00 0. -1.
        -14    1    4    4    0    0  0.27929053119E+02  0.46192875400E+01 -0.10162552520E+02  0.30077355257E+02  0.00000000000E+00 0.  1.
         -5    1    3    3    0  503  0.71680636668E+02  0.45451565142E+02 -0.13251129616E+03  0.15743345279E+03  0.47000000000E+01 0.  1.
</event>
<event>
12    1  0.9749377E-001  0.2934900E+03  0.7818608E-02  0.1088541E+00
         21   -1    0    0  501  502  0.00000000000E+00  0.00000000000E+00  0.52502655041E+03  0.52502655041E+03  0.00000000000E+00 0.  1.
         21   -1    0    0  502  503 -0.00000000000E+00 -0.00000000000E+00 -0.31407790698E+03  0.31407790698E+03  0.00000000000E+00 0. -1.
         -6    2    1    2    0  503  0.53375842937E+02 -0.27154050542E+03 -0.14407540154E+03  0.35696110559E+03  0.17343668264E+03 0.  0.
        -24    2    3    3    0    0  0.65478701597E+02 -0.12249633126E+03 -0.17262992897E+02  0.16083838375E+03  0.79234861188E+02 0.  0.
          6    2    1    2  501    0 -0.53375842937E+02  0.27154050542E+03  0.35502404497E+03  0.48214335180E+03  0.17273364605E+03 0.  0.
         24    2    5    5    0    0 -0.44862950817E+02  0.26427387414E+03  0.24526501196E+03  0.37171505565E+03  0.78509818441E+02 0.  0.
         14    1    6    6    0    0 -0.26469125520E+01  0.38285396768E+02  0.42088764805E+01  0.38606895666E+02  0.00000000000E+00 0. -1.
        -13    1    6    6    0    0 -0.42216038265E+02  0.22598847738E+03  0.24105613548E+03  0.33310815998E+03  0.00000000000E+00 0.  1.
          5    1    5    5  501    0 -0.85128921200E+01  0.72666312797E+01  0.10975903302E+03  0.11042829615E+03  0.47000000000E+01 0. -1.
         13    1    4    4    0    0 -0.10434757513E+02  0.24859250289E+01  0.67144199056E+01  0.12654936676E+02  0.00000000000E+00 0. -1.
        -14    1    4    4    0    0  0.75913459109E+02 -0.12498225629E+03 -0.23977412802E+02  0.14818344707E+03  0.00000000000E+00 0.  1.
         -5    1    3    3    0  503 -0.12102858660E+02 -0.14904417416E+03 -0.12681240864E+03  0.19612272185E+03  0.47000000000E+01 0.  1.
</event>
<event>
12    1  0.9749377E-001  0.2093624E+03  0.7818608E-02  0.1142072E+00
         21   -1    0    0  503  502  0.00000000000E+00  0.00000000000E+00  0.33071274007E+03  0.33071274007E+03  0.00000000000E+00 0.  1.
         21   -1    0    0  501  503 -0.00000000000E+00 -0.00000000000E+00 -0.22780005529E+03  0.22780005529E+03  0.00000000000E+00 0.  1.
          6    2    1    2  501    0 -0.16652281973E+03 -0.39838540793E+02  0.18178926393E+03  0.30330633447E+03  0.17213493900E+03 0.  0.
         24    2    3    3    0    0 -0.74930415195E+02 -0.87923395390E+02  0.11025316255E+03  0.17744599278E+03  0.77370730393E+02 0.  0.
         -6    2    1    2    0  502  0.16652281973E+03  0.39838540793E+02 -0.78876579158E+02  0.25520646089E+03  0.17202285929E+03 0.  0.
        -24    2    5    5    0    0  0.53294588355E+02  0.21010882465E+02  0.23977359551E+02  0.10101133838E+03  0.79665590944E+02 0.  0.
         12    1    4    4    0    0 -0.67783786522E+02 -0.19955107456E+02  0.58008360795E+02  0.91421102329E+02  0.00000000000E+00 0. -1.
        -11    1    4    4    0    0 -0.71466286737E+01 -0.67968287933E+02  0.52244801760E+02  0.86024890450E+02  0.00000000000E+00 0.  1.
          5    1    3    3  501    0 -0.91592404532E+02  0.48084854597E+02  0.71536101380E+02  0.12586034169E+03  0.47000000000E+01 0. -1.
         11    1    6    6    0    0  0.26675419316E+02  0.22109638949E+02 -0.26710925711E+02  0.43748002040E+02  0.00000000000E+00 0. -1.
        -12    1    6    6    0    0  0.26619169039E+02 -0.10987564832E+01  0.50688285262E+02  0.57263336341E+02  0.00000000000E+00 0.  1.
         -5    1    5    5    0  502  0.11322823137E+03  0.18827658327E+02 -0.10285393871E+03  0.15419512251E+03  0.47000000000E+01 0.  1.
</event>
<event>
12    1  0.9749377E-001  0.3082786E+03  0.7818608E-02  0.1081174E+00
         21   -1    0    0  501  502  0.00000000000E+00  0.00000000000E+00  0.25550781958E+03  0.25550781958E+03  0.00000000000E+00 0. -1.
         21   -1    0    0  502  503 -0.00000000000E+00 -0.00000000000E+00 -0.41177633061E+03  0.41177633061E+03  0.00000000000E+00 0.  1.
         -6    2    1    2    0  503  0.14422431620E+03  0.23477846112E+03 -0.54776993582E+02  0.32970626122E+03  0.17258076507E+03 0.  0.
        -24    2    3    3    0    0  0.12266949933E+03  0.82796631669E+02 -0.52537379939E+02  0.17611527033E+03  0.79707740346E+02 0.  0.
          6    2    1    2  501    0 -0.14422431620E+03 -0.23477846112E+03 -0.10149151745E+03  0.33757788897E+03  0.16654345924E+03 0.  0.
         24    2    5    5    0    0 -0.12114261535E+02 -0.68579898078E+02 -0.41745641467E+02  0.11697261116E+03  0.84201754294E+02 0.  0.
         12    1    6    6    0    0 -0.30496564077E+02 -0.80297161258E+01 -0.43429045417E+02  0.53671209670E+02  0.00000000000E+00 0. -1.
        -11    1    6    6    0    0  0.18382302542E+02 -0.60550181953E+02  0.16834039497E+01  0.63301401486E+02  0.00000000000E+00 0.  1.
          5    1    5    5  501    0 -0.13211005467E+03 -0.16619856304E+03 -0.59745875984E+02  0.22060527781E+03  0.47000000000E+01 0. -1.
         13    1    4    4    0    0  0.21734985689E+02 -0.46884632789E+01 -0.34904075870E+02  0.41384608288E+02  0.00000000000E+00 0. -1.
        -14    1    4    4    0    0  0.10093451364E+03  0.87485094948E+02 -0.17633304069E+02  0.13473066204E+03  0.00000000000E+00 0.  1.
         -5    1    3    3    0  503  0.21554816871E+02  0.15198182945E+03 -0.22396136427E+01  0.15359099089E+03  0.47000000000E+01 0.  1.
</event>
<event>
12    1  0.9749377E-001  0.2409931E+03  0.7818608E-02  0.1119133E+00
         21   -1    0    0  503  502  0.00000000000E+00  0.00000000000E+00  0.14107262391E+04  0.14107262391E+04  0.00000000000E+00 0.  1.
         21   -1    0    0  501  503 -0.00000000000E+00 -0.00000000000E+00 -0.65827707144E+02  0.65827707144E+02  0.00000000000E+00 0. -1.
          6    2    1    2  501    0  0.30920419332E+02  0.20218441074E+03  0.31824328153E+03  0.41565415785E+03  0.17220622643E+03 0.  0.
         24    2    3    3    0    0  0.28930715544E+02  0.56212030921E+02  0.21191579885E+03  0.23499005471E+03  0.79468492426E+02 0.  0.
         -6    2    1    2    0  502 -0.30920419332E+02 -0.20218441074E+03  0.10266552504E+04  0.10608997884E+04  0.17219973725E+03 0.  0.
        -24    2    5    5    0    0 -0.73758790841E+02 -0.14354081940E+03  0.86463028050E+03  0.88328115830E+03  0.80967626724E+02 0.  0.
         12    1    4    4    0    0  0.41568271745E+02 -0.19868197292E+01  0.77349719358E+02  0.87834206055E+02  0.00000000000E+00 0. -1.
        -11    1    4    4    0    0 -0.12637556201E+02  0.58198850651E+02  0.13456607949E+03  0.14715584865E+03  0.00000000000E+00 0.  1.
          5    1    3    3  501    0  0.19897037874E+01  0.14597237982E+03  0.10632748268E+03  0.18066410314E+03  0.47000000000E+01 0. -1.
         11    1    6    6    0    0 -0.23200767055E+02 -0.60005129637E+02  0.55253403046E+03  0.55626679390E+03  0.00000000000E+00 0. -1.
        -12    1    6    6    0    0 -0.50558023786E+02 -0.83535689759E+02  0.31209625004E+03  0.32701436440E+03  0.00000000000E+00 0.  1.
         -5    1    5    5    0  502  0.42838371509E+02 -0.58643591342E+02  0.16202496991E+03  0.17761863008E+03  0.47000000000E+01 0.  1.
</event>
<event>
12    1  0.9749377E-001  0.2713494E+03  0.7818608E-02  0.1100510E+00
         21   -1    0    0  503  502  0.00000000000E+00  0.00000000000E+00  0.23020575554E+04  0.23020575554E+04  0.00000000000E+00 0. -1.
         21   -1    0    0  501  503 -0.00000000000E+00 -0.00000000000E+00 -0.45287200459E+02  0.45287200459E+02  0.00000000000E+00 0.  1.
          6    2    1    2  501    0 -0.17632791644E+03  0.14587472565E+03  0.57874701543E+03  0.64505470406E+03  0.16963635716E+03 0.  0.
         24    2    3    3    0    0 -0.32998555125E+02  0.77635921921E+02  0.33260131817E+03  0.35212188851E+03  0.79056603189E+02 0.  0.
         -6    2    1    2    0  502  0.17632791644E+03 -0.14587472565E+03  0.16780233395E+04  0.17022900518E+04  0.17221533839E+03 0.  0.
        -24    2    5    5    0    0  0.11131350770E+03 -0.15913855881E+03  0.14355576722E+04  0.14508651277E+04  0.80423943923E+02 0.  0.
         14    1    4    4    0    0 -0.54585446042E+02  0.33560197183E+02  0.22321705715E+03  0.23223202268E+03  0.00000000000E+00 0. -1.
        -13    1    4    4    0    0  0.21586890917E+02  0.44075724738E+02  0.10938426101E+03  0.11988986583E+03  0.00000000000E+00 0.  1.
          5    1    3    3  501    0 -0.14332936132E+03  0.68238803730E+02  0.24614569726E+03  0.29293281556E+03  0.47000000000E+01 0. -1.
         13    1    6    6    0    0  0.13498913525E+01 -0.47463936288E+02  0.50226678115E+03  0.50450626052E+03  0.00000000000E+00 0. -1.
        -14    1    6    6    0    0  0.10996361635E+03 -0.11167462252E+03  0.93329089102E+03  0.94635886718E+03  0.00000000000E+00 0.  1.
         -5    1    5    5    0  502  0.65014408741E+02  0.13263833161E+02  0.24246566737E+03  0.25142492411E+03  0.47000000000E+01 0.  1.
</event>
<event>
12    1  0.9749377E-001  0.4182415E+03  0.7818608E-02  0.1037640E+00
         21   -1    0    0  503  502  0.00000000000E+00  0.00000000000E+00  0.82076026781E+03  0.82076026781E+03  0.00000000000E+00 0.  1.
         21   -1    0    0  501  503 -0.00000000000E+00 -0.00000000000E+00 -0.24427424066E+03  0.24427424066E+03  0.00000000000E+00 0. -1.
          6    2    1    2  501    0 -0.40695817773E+03  0.44394337009E+02  0.21805414062E+03  0.49454424805E+03  0.17158260242E+03 0.  0.
         24    2    3    3    0    0 -0.39377632285E+03  0.56040794735E+02  0.16398028173E+03  0.43748749129E+03  0.79406606363E+02 0.  0.
         -6    2    1    2    0  502  0.40695817773E+03 -0.44394337009E+02  0.35843188653E+03  0.57049026042E+03  0.17146400316E+03 0.  0.
        -24    2    5    5    0    0  0.26174298711E+03  0.11573998451E+02  0.29471001135E+03  0.40225687035E+03  0.79455963966E+02 0.  0.
         14    1    4    4    0    0 -0.58985253142E+02  0.25224705960E+02  0.53684783371E+02  0.83651669706E+02  0.00000000000E+00 0. -1.
        -13    1    4    4    0    0 -0.33479106970E+03  0.30816088775E+02  0.11029549836E+03  0.35383582159E+03  0.00000000000E+00 0.  1.
          5    1    3    3  501    0 -0.13181854883E+02 -0.11646457726E+02  0.54073858889E+02  0.57056756751E+02  0.47000000000E+01 0. -1.
         11    1    6    6    0    0  0.17025991755E+02  0.34200298227E+01 -0.20919324262E+01  0.17491631728E+02  0.00000000000E+00 0. -1.
        -12    1    6    6    0    0  0.24471699536E+03  0.81539686280E+01  0.29680194378E+03  0.38476523862E+03  0.00000000000E+00 0.  1.
         -5    1    5    5    0  502  0.14521519061E+03 -0.55968335460E+02  0.63721875179E+02  0.16823339007E+03  0.47000000000E+01 0.  1.
</event>
<event>
12    1  0.9749377E-001  0.2281330E+03  0.7818608E-02  0.1127961E+00
         21   -1    0    0  503  502  0.00000000000E+00  0.00000000000E+00  0.41228986826E+03  0.41228986826E+03  0.00000000000E+00 0.  1.
         21   -1    0    0  501  503 -0.00000000000E+00 -0.00000000000E+00 -0.23882259609E+03  0.23882259609E+03  0.00000000000E+00 0. -1.
          6    2    1    2  501    0  0.11191329811E+03 -0.13483655263E+03  0.29017204465E+03  0.37922829230E+03  0.17002588027E+03 0.  0.
         24    2    3    3    0    0  0.13845127524E+03 -0.12848358875E+03  0.28519754099E+03  0.35109539222E+03  0.79079383273E+02 0.  0.
         -6    2    1    2    0  502 -0.11191329811E+03  0.13483655263E+03 -0.11670477248E+03  0.27188417205E+03  0.17203347603E+03 0.  0.
        -24    2    5    5    0    0 -0.56896531704E+02  0.27086264328E+02 -0.77889688936E+01  0.10902929345E+03  0.88633163989E+02 0.  0.
         14    1    4    4    0    0  0.96056625097E+02 -0.42750536871E+02  0.11465148805E+03  0.15556171553E+03  0.00000000000E+00 0. -1.
        -13    1    4    4    0    0  0.42394650142E+02 -0.85733051879E+02  0.17054605295E+03  0.19553367669E+03  0.00000000000E+00 0.  1.
          5    1    3    3  501    0 -0.26537977126E+02 -0.63529638764E+01  0.49745036606E+01  0.28132900075E+02  0.47000000000E+01 0. -1.
         13    1    6    6    0    0 -0.76901278332E+02  0.35888609141E+02 -0.14657098850E+02  0.86119854981E+02  0.00000000000E+00 0. -1.
        -14    1    6    6    0    0  0.20004746629E+02 -0.88023448128E+01  0.68681299562E+01  0.22909438469E+02  0.00000000000E+00 0.  1.
         -5    1    5    5    0  502 -0.55016766410E+02  0.10775028830E+03 -0.10891580358E+03  0.16285487860E+03  0.47000000000E+01 0.  1.
</event>
<event>
12    1  0.9749377E-001  0.1077565E+04  0.7818608E-02  0.9227339E-01
         21   -1    0    0  501  502  0.00000000000E+00  0.00000000000E+00  0.64232004959E+03  0.64232004959E+03  0.00000000000E+00 0. -1.
         21   -1    0    0  502  503 -0.00000000000E+00 -0.00000000000E+00 -0.18914444540E+04  0.18914444540E+04  0.00000000000E+00 0.  1.
         -6    2    1    2    0  503  0.43380942497E+03 -0.97547903003E+03 -0.37816367493E+03  0.11456245641E+04  0.17233084913E+03 0.  0.
        -24    2    3    3    0    0  0.37815792658E+03 -0.93766141833E+03 -0.35456345119E+03  0.10741660335E+04  0.76844478030E+02 0.  0.
          6    2    1    2  501    0 -0.43380942497E+03  0.97547903003E+03 -0.87096072950E+03  0.13881399395E+04  0.16914474326E+03 0.  0.
         24    2    5    5    0    0 -0.23238604214E+03  0.60068363954E+03 -0.47302169353E+03  0.80554185317E+03  0.10160731897E+03 0.  0.
         12    1    6    6    0    0 -0.26004358321E+02  0.16268696918E+03 -0.87010338252E+02  0.18631713704E+03  0.00000000000E+00 0. -1.
        -11    1    6    6    0    0 -0.20638168382E+03  0.43799667036E+03 -0.38601135528E+03  0.61922471613E+03  0.00000000000E+00 0.  1.
          5    1    5    5  501    0 -0.20142338283E+03  0.37479539049E+03 -0.39793903597E+03  0.58259808636E+03  0.47000000000E+01 0. -1.
         13    1    4    4    0    0  0.32704591515E+02 -0.14357849821E+03 -0.66126209936E+02  0.16142196596E+03  0.00000000000E+00 0. -1.
        -14    1    4    4    0    0  0.34545333506E+03 -0.79408292012E+03 -0.28843724126E+03  0.91274406756E+03  0.00000000000E+00 0.  1.
         -5    1    3    3    0  503  0.55651498396E+02 -0.37817611703E+02 -0.23600223739E+02  0.71458530556E+02  0.47000000000E+01 0.  1.
</event>
<event>
12    1  0.9749377E-001  0.2090834E+03  0.7818608E-02  0.1142294E+00
         21   -1    0    0  503  502  0.00000000000E+00  0.00000000000E+00  0.47476806695E+02  0.47476806695E+02  0.00000000000E+00 0.  1.
         21   -1    0    0  501  503 -0.00000000000E+00 -0.00000000000E+00 -0.14298886822E+04  0.14298886822E+04  0.00000000000E+00 0. -1.
          6    2    1    2  501    0  0.14563956719E+03 -0.10504544038E+03 -0.90739050797E+03  0.94076216306E+03  0.17155315625E+03 0.  0.
         24    2    3    3    0    0  0.14325016908E+03 -0.10605741721E+03 -0.55333011556E+03  0.58666106903E+03  0.78918986601E+02 0.  0.
         -6    2    1    2    0  502 -0.14563956719E+03  0.10504544038E+03 -0.47502136754E+03  0.53660332584E+03  0.17335628516E+03 0.  0.
        -24    2    5    5    0    0 -0.19713898326E+02  0.76551160484E+02 -0.28891790367E+03  0.31005137301E+03  0.80059858140E+02 0.  0.
         14    1    4    4    0    0  0.14967808125E+03 -0.11060116462E+03 -0.54011018526E+03  0.57127502820E+03  0.00000000000E+00 0. -1.
        -13    1    4    4    0    0 -0.64279121745E+01  0.45437474043E+01 -0.13219930298E+02  0.15386040832E+02  0.00000000000E+00 0.  1.
          5    1    3    3  501    0  0.23893981144E+01  0.10119768336E+01 -0.35406039240E+03  0.35410109402E+03  0.47000000000E+01 0. -1.
         11    1    6    6    0    0  0.60157987076E+01  0.56979646068E+02 -0.78618333509E+02  0.97281613185E+02  0.00000000000E+00 0. -1.
        -12    1    6    6    0    0 -0.25729697033E+02  0.19571514416E+02 -0.21029957016E+03  0.21276975982E+03  0.00000000000E+00 0.  1.
         -5    1    5    5    0  502 -0.12592566886E+03  0.28494279894E+02 -0.18610346388E+03  0.22655195283E+03  0.47000000000E+01 0.  1.
</event>
<event>
12    1  0.9749377E-001  0.1555188E+03  0.7818608E-02  0.1193851E+00
         21   -1    0    0  503  502  0.00000000000E+00  0.00000000000E+00  0.76743521470E+03  0.76743521470E+03  0.00000000000E+00 0. -1.
         21   -1    0    0  501  503 -0.00000000000E+00 -0.00000000000E+00 -0.41882763277E+02  0.41882763277E+02  0.00000000000E+00 0. -1.
          6    2    1    2  501    0 -0.26974122056E+02  0.41673554093E+02  0.37628450314E+03  0.41655972172E+03  0.17166154515E+03 0.  0.
         24    2    3    3    0    0  0.16765904444E+02  0.79466479445E+02  0.18988115586E+03  0.22134242483E+03  0.79634155826E+02 0.  0.
         -6    2    1    2    0  502  0.26974122056E+02 -0.41673554093E+02  0.34926794828E+03  0.39275825626E+03  0.17264605350E+03 0.  0.
        -24    2    5    5    0    0 -0.20190438554E+02  0.29814921001E+02  0.97429102788E+02  0.12671316243E+03  0.72575561591E+02 0.  0.
         14    1    4    4    0    0  0.17144457436E+02 -0.12505306350E+02  0.27655677564E+02  0.34859024788E+02  0.00000000000E+00 0. -1.
        -13    1    4    4    0    0 -0.37855299237E+00  0.91971785795E+02  0.16222547829E+03  0.18648340005E+03  0.00000000000E+00 0.  1.
          5    1    3    3  501    0 -0.43740026500E+02 -0.37792925353E+02  0.18640334728E+03  0.19521729689E+03  0.47000000000E+01 0. -1.
         13    1    6    6    0    0 -0.28820669301E+02  0.33925485186E+02  0.10530511062E+03  0.11432731890E+03  0.00000000000E+00 0. -1.
        -14    1    6    6    0    0  0.86302307474E+01 -0.41105641857E+01 -0.78760078312E+01  0.12385843533E+02  0.00000000000E+00 0.  1.
         -5    1    5    5    0  502  0.47164560610E+02 -0.71488475094E+02  0.25183884550E+03  0.26604509383E+03  0.47000000000E+01 0.  1.
</event>
<event>
12    1  0.9749377E-001  0.4584260E+03  0.7818608E-02  0.1025239E+00
         21   -1    0    0  501  502  0.00000000000E+00  0.00000000000E+00  0.32936643710E+03  0.32936643710E+03  0.00000000000E+00 0.  1.
         21   -1    0    0  502  503 -0.00000000000E+00 -0.00000000000E+00 -0.74255237966E+03  0.74255237966E+03  0.00000000000E+00 0. -1.
         -6    2    1    2    0  503  0.19065985939E+03 -0.40595779305E+03 -0.79005079777E+02  0.48683546014E+03  0.17208733510E+03 0.  0.
        -24    2    3    3    0    0  0.29130226608E+02 -0.13213122685E+03 -0.63014340758E+02  0.16847936336E+03  0.78148944499E+02 0.  0.
          6    2    1    2  501    0 -0.19065985939E+03  0.40595779305E+03 -0.33418086278E+03  0.58508335661E+03  0.17173460169E+03 0.  0.
         24    2    5    5    0    0 -0.88468353978E+02  0.23313515056E+03 -0.11009259742E+03  0.28417072775E+03  0.80336631881E+02 0.  0.
         14    1    6    6    0    0 -0.32117484896E+02  0.18528890341E+03 -0.78424256904E+02  0.20374953898E+03  0.00000000000E+00 0. -1.
        -13    1    6    6    0    0 -0.56350869081E+02  0.47846247149E+02 -0.31668340514E+02  0.80421188772E+02  0.00000000000E+00 0.  1.
          5    1    5    5  501    0 -0.10219150541E+03  0.17282264249E+03 -0.22408826536E+03  0.30091262886E+03  0.47000000000E+01 0. -1.
         11    1    4    4    0    0  0.21076470563E+02 -0.61674582412E+02  0.10861239398E+02  0.66075246865E+02  0.00000000000E+00 0. -1.
        -12    1    4    4    0    0  0.80537560448E+01 -0.70456644442E+02 -0.73875580156E+02  0.10240411650E+03  0.00000000000E+00 0.  1.
         -5    1    3    3    0  503  0.16152963278E+03 -0.27382656620E+03 -0.15990739019E+02  0.31835609678E+03  0.47000000000E+01 0.  1.
</event>
<event>
12    1  0.9749377E-001  0.1172683E+03  0.7818608E-02  0.1247673E+00
         21   -1    0    0  501  502  0.00000000000E+00  0.00000000000E+00  0.10329781358E+03  0.10329781358E+03  0.00000000000E+00 0. -1.
         21   -1    0    0  502  503 -0.00000000000E+00 -0.00000000000E+00 -0.56456499876E+03  0.56456499876E+03  0.00000000000E+00 0. -1.
         -6    2    1    2    0  503 -0.21366759433E+02  0.45434218453E+02 -0.68550105219E+01  0.17933289941E+03  0.17202468144E+03 0.  0.
        -24    2    3    3    0    0 -0.47614713042E+02  0.62894524737E+02 -0.51440545986E+02  0.12452617229E+03  0.81472422786E+02 0.  0.
          6    2    1    2  501    0  0.21366759433E+02 -0.45434218453E+02 -0.45441217467E+03  0.48852991294E+03  0.17219246422E+03 0.  0.
         24    2    5    5    0    0 -0.21486082704E+01 -0.56343007945E+02 -0.12603670269E+03  0.15909932115E+03  0.79045509074E+02 0.  0.
         12    1    6    6    0    0  0.11019761756E+02 -0.63971217387E+01  0.82781379323E+01  0.15194929527E+02  0.00000000000E+00 0. -1.
        -11    1    6    6    0    0 -0.13168370026E+02 -0.49945886206E+02 -0.13431484062E+03  0.14390439163E+03  0.00000000000E+00 0.  1.
          5    1    5    5  501    0  0.23515367703E+02  0.10908789492E+02 -0.32837547198E+03  0.32943059178E+03  0.47000000000E+01 0. -1.
         13    1    4    4    0    0  0.73939762380E+01  0.55998291478E+02 -0.35983874266E+02  0.66972522277E+02  0.00000000000E+00 0. -1.
        -14    1    4    4    0    0 -0.55008689280E+02  0.68962332593E+01 -0.15456671720E+02  0.57553650016E+02  0.00000000000E+00 0.  1.
         -5    1    3    3    0  503  0.26247953609E+02 -0.17460306284E+02  0.44585535464E+02  0.54806727112E+02  0.47000000000E+01 0.  1.
</event>
<event>
12    1  0.9749377E-001  0.1694559E+03  0.7818608E-02  0.1178416E+00
         21   -1    0    0  503  502  0.00000000000E+00  0.00000000000E+00  0.15759589247E+03  0.15759589247E+03  0.00000000000E+00 0.  1.
         21   -1    0    0  501  503 -0.00000000000E+00 -0.00000000000E+00 -0.32313534048E+03  0.32313534048E+03  0.00000000000E+00 0. -1.
          6    2    1    2  501    0 -0.85896404316E+02 -0.53431071262E+02 -0.19651929083E+03  0.27870193515E+03  0.16977003662E+03 0.  0.
         24    2    3    3    0    0 -0.77211785539E+02  0.18980977861E+02 -0.68664562354E+02  0.13143398529E+03  0.78981852466E+02 0.  0.
         -6    2    1    2    0  502  0.85896404316E+02  0.53431071262E+02  0.30979842821E+02  0.20202929780E+03  0.17211337792E+03 0.  0.
        -24    2    5    5    0    0  0.88386763858E+02 -0.21412748257E+02  0.35713985836E+02  0.12684750931E+03  0.80895463534E+02 0.  0.
         12    1    4    4    0    0 -0.55324839744E+02  0.96690561593E+01  0.26816442643E+01  0.56227393285E+02  0.00000000000E+00 0. -1.
        -11    1    4    4    0    0 -0.21886945795E+02  0.93119217019E+01 -0.71346206618E+02  0.75206592004E+02  0.00000000000E+00 0.  1.
          5    1    3    3  501    0 -0.86846187775E+01 -0.72412049123E+02 -0.12785472848E+03  0.14726794986E+03  0.47000000000E+01 0. -1.
         11    1    6    6    0    0  0.11894571738E+02  0.20444062384E+02 -0.12976718675E+02  0.26978431221E+02  0.00000000000E+00 0. -1.
        -12    1    6    6    0    0  0.76492192121E+02 -0.41856810641E+02  0.48690704511E+02  0.99869078089E+02  0.00000000000E+00 0.  1.
         -5    1    5    5    0  502 -0.24903595421E+01  0.74843819520E+02 -0.47341430154E+01  0.75181788493E+02  0.47000000000E+01 0.  1.
</event>
<event>
12    1  0.9749377E-001  0.6461668E+03  0.7818608E-02  0.9813999E-01
         21   -1    0    0  503  502  0.00000000000E+00  0.00000000000E+00  0.33890278958E+03  0.33890278958E+03  0.00000000000E+00 0.  1.
         21   -1    0    0  501  503 -0.00000000000E+00 -0.00000000000E+00 -0.15579221266E+04  0.15579221266E+04  0.00000000000E+00 0. -1.
          6    2    1    2  501    0  0.29758234436E+03 -0.56583009741E+03 -0.21864777708E+03  0.69722305964E+03  0.17202963020E+03 0.  0.
         24    2    3    3    0    0  0.24154639994E+03 -0.52172867401E+03 -0.23121856006E+03  0.62466220796E+03  0.78710729417E+02 0.  0.
         -6    2    1    2    0  502 -0.29758234436E+03  0.56583009741E+03 -0.10003715599E+04  0.11996018566E+04  0.17199536475E+03 0.  0.
        -24    2    5    5    0    0 -0.13838630873E+03  0.19854183224E+03 -0.47445915054E+03  0.53865556535E+03  0.80428247273E+02 0.  0.
         14    1    4    4    0    0  0.18488702788E+03 -0.45321762725E+03 -0.17682979277E+03  0.52044039653E+03  0.00000000000E+00 0. -1.
        -13    1    4    4    0    0  0.56659372056E+02 -0.68511046763E+02 -0.54388767285E+02  0.10422181143E+03  0.00000000000E+00 0.  1.
          5    1    3    3  501    0  0.56035944419E+02 -0.44101423396E+02  0.12570782976E+02  0.72560851685E+02  0.47000000000E+01 0. -1.
         13    1    6    6    0    0 -0.39202963796E+02  0.62935733816E+02 -0.75771516662E+02  0.10601462964E+03  0.00000000000E+00 0. -1.
        -14    1    6    6    0    0 -0.99183344932E+02  0.13560609842E+03 -0.39868763387E+03  0.43264093570E+03  0.00000000000E+00 0.  1.
         -5    1    5    5    0  502 -0.15919603563E+03  0.36728826517E+03 -0.52591240941E+03  0.66094629120E+03  0.47000000000E+01 0.  1.
</event>
<event>
12    1  0.9749377E-001  0.3555681E+03  0.7818608E-02  0.1060353E+00
         21   -1    0    0  501  502  0.00000000000E+00  0.00000000000E+00  0.63336075362E+03  0.63336075362E+03  0.00000000000E+00 0. -1.
         21   -1    0    0  502  503 -0.00000000000E+00 -0.00000000000E+00 -0.23180464407E+03  0.23180464407E+03  0.00000000000E+00 0.  1.
         -6    2    1    2    0  503  0.85027912503E+02 -0.30310798044E+03  0.50445424281E+02  0.36251827335E+03  0.17254148477E+03 0.  0.
        -24    2    3    3    0    0  0.12398090906E+03 -0.26906473101E+03  0.46897141197E+02  0.31045140206E+03  0.80085179066E+02 0.  0.
          6    2    1    2  501    0 -0.85027912503E+02  0.30310798044E+03  0.35111068527E+03  0.50264712434E+03  0.17398627702E+03 0.  0.
         24    2    5    5    0    0  0.16877484510E+02  0.12030974128E+03  0.10307791121E+03  0.17808241094E+03  0.79555049978E+02 0.  0.
         14    1    6    6    0    0  0.29734574796E+01 -0.11281797589E+02  0.15506079987E+02  0.19405126199E+02  0.00000000000E+00 0. -1.
        -13    1    6    6    0    0  0.13904027031E+02  0.13159153887E+03  0.87571831226E+02  0.15867728474E+03  0.00000000000E+00 0.  1.
          5    1    5    5  501    0 -0.10190539701E+03  0.18279823916E+03  0.24803277405E+03  0.32456471340E+03  0.47000000000E+01 0. -1.
         13    1    4    4    0    0 -0.39255470365E+01 -0.64380448885E+02 -0.38706295094E+00  0.64501177786E+02  0.00000000000E+00 0. -1.
        -14    1    4    4    0    0  0.12790645609E+03 -0.20468428213E+03  0.47284204148E+02  0.24595022428E+03  0.00000000000E+00 0.  1.
         -5    1    3    3    0  503 -0.38952996553E+02 -0.34043249429E+02  0.35482830843E+01  0.52066871281E+02  0.47000000000E+01 0.  1.
</event>
<event>
12    1  0.9749377E-001  0.2150259E+03  0.7818608E-02  0.1137647E+00
         21   -1    0    0  503  502  0.00000000000E+00  0.00000000000E+00  0.11332767930E+04  0.11332767930E+04  0.00000000000E+00 0. -1.
         21   -1    0    0  501  503 -0.00000000000E+00 -0.00000000000E+00 -0.63100291088E+02  0.63100291088E+02  0.00000000000E+00 0.  1.
          6    2    1    2  501    0 -0.12675577219E+03 -0.12021484217E+03  0.77530414502E+03  0.81246864283E+03  0.16879023738E+03 0.  0.
         24    2    3    3    0    0 -0.75084456809E+02 -0.14041769441E+03  0.67026911489E+03  0.69358833485E+03  0.80307454849E+02 0.  0.
         -6    2    1    2    0  502  0.12675577219E+03  0.12021484217E+03  0.29487235690E+03  0.38390844126E+03  0.17296632722E+03 0.  0.
        -24    2    5    5    0    0  0.52928757654E+02  0.85111119703E+02  0.26772099721E+03  0.29764149662E+03  0.82888914067E+02 0.  0.
         12    1    4    4    0    0 -0.38920969853E+02 -0.10427119394E+03  0.30333754816E+03  0.32311142336E+03  0.00000000000E+00 0. -1.
        -11    1    4    4    0    0 -0.36163486955E+02 -0.36146500468E+02  0.36693156673E+03  0.37047691149E+03  0.00000000000E+00 0.  1.
          5    1    3    3  501    0 -0.51671315377E+02  0.20202852234E+02  0.10503503013E+03  0.11888030798E+03  0.47000000000E+01 0. -1.
         13    1    6    6    0    0  0.45778955245E+02  0.11476395311E+01  0.93844459166E+02  0.10442132127E+03  0.00000000000E+00 0. -1.
        -14    1    6    6    0    0  0.71498024086E+01  0.83963480172E+02  0.17387653805E+03  0.19322017535E+03  0.00000000000E+00 0.  1.
         -5    1    5    5    0  502  0.73827014532E+02  0.35103722471E+02  0.27151359681E+02  0.86266944646E+02  0.47000000000E+01 0.  1.
</event>
<event>
12    1  0.9749377E-001  0.3363854E+03  0.7818608E-02  0.1068346E+00
         21   -1    0    0  503  502  0.00000000000E+00  0.00000000000E+00  0.59505203036E+03  0.59505203036E+03  0.00000000000E+00 0. -1.
         21   -1    0    0  501  503 -0.00000000000E+00 -0.00000000000E+00 -0.26882583374E+03  0.26882583374E+03  0.00000000000E+00 0.  1.
          6    2    1    2  501    0 -0.29066530411E+03  0.10014003426E+03 -0.41124994417E+02  0.35521588338E+03  0.17312629254E+03 0.  0.
         24    2    3    3    0    0 -0.18648533622E+03  0.30623086745E+02  0.28194810178E+02  0.21199089601E+03  0.91818509028E+02 0.  0.
         -6    2    1    2    0  502  0.29066530411E+03 -0.10014003426E+03  0.36735119104E+03  0.50866198071E+03  0.17110162942E+03 0.  0.
        -24    2    5    5    0    0  0.26264888831E+03 -0.34427937495E+02  0.26068296289E+03  0.38019719911E+03  0.80153488127E+02 0.  0.
         12    1    4    4    0    0 -0.15445614985E+01  0.16970781616E+02  0.20126106362E+02  0.26371447745E+02  0.00000000000E+00 0. -1.
        -11    1    4    4    0    0 -0.18494077473E+03  0.13652305129E+02  0.80687038154E+01  0.18561944826E+03  0.00000000000E+00 0.  1.
          5    1    3    3  501    0 -0.10417996788E+03  0.69516947515E+02 -0.69319804595E+02  0.14322498738E+03  0.47000000000E+01 0. -1.
         11    1    6    6    0    0  0.58369685693E+02 -0.36926486647E+02  0.41544929393E+02  0.80601282758E+02  0.00000000000E+00 0. -1.
        -12    1    6    6    0    0  0.20427920262E+03  0.24985491515E+01  0.21913803349E+03  0.29959591635E+03  0.00000000000E+00 0.  1.
         -5    1    5    5    0  502  0.28016415799E+02 -0.65712096764E+02  0.10666822816E+03  0.12846478161E+03  0.47000000000E+01 0.  1.
</event>
<event>
12    1  0.9749377E-001  0.2823381E+03  0.7818608E-02  0.1094419E+00
         21   -1    0    0  503  502  0.00000000000E+00  0.00000000000E+00  0.92741497583E+02  0.92741497583E+02  0.00000000000E+00 0.  1.
         21   -1    0    0  501  503 -0.00000000000E+00 -0.00000000000E+00 -0.94891826965E+03  0.94891826965E+03  0.00000000000E+00 0.  1.
          6    2    1    2  501    0  0.15431018375E+03  0.18154026940E+03 -0.36650298573E+03  0.47049584962E+03  0.17399253931E+03 0.  0.
         24    2    3    3    0    0  0.27965729598E+01  0.78701056863E+02 -0.13809197827E+03  0.17770589723E+03  0.79424897078E+02 0.  0.
         -6    2    1    2    0  502 -0.15431018375E+03 -0.18154026940E+03 -0.48967378633E+03  0.57116391761E+03  0.17227681659E+03 0.  0.
        -24    2    5    5    0    0 -0.17014824877E+03 -0.12219702408E+03 -0.43214547801E+03  0.48687832378E+03  0.80113973474E+02 0.  0.
         14    1    4    4    0    0 -0.18727462369E+02 -0.85229084582E+01 -0.37962783482E+02  0.43180212425E+02  0.00000000000E+00 0. -1.
        -13    1    4    4    0    0  0.21524035329E+02  0.87223965321E+02 -0.10012919479E+03  0.13452568481E+03  0.00000000000E+00 0.  1.
          5    1    3    3  501    0  0.15151361079E+03  0.10283921254E+03 -0.22841100746E+03  0.29278995239E+03  0.47000000000E+01 0. -1.
         11    1    6    6    0    0 -0.65776035730E+02 -0.47296485841E+02 -0.25836319412E+03  0.27076739930E+03  0.00000000000E+00 0. -1.
        -12    1    6    6    0    0 -0.10437221304E+03 -0.74900538236E+02 -0.17378228390E+03  0.21611092448E+03  0.00000000000E+00 0.  1.
         -5    1    5    5    0  502  0.15838065020E+02 -0.59343245324E+02 -0.57528308318E+02  0.84285593829E+02  0.47000000000E+01 0.  1.
</event>
<event>
12    1  0.9749377E-001  0.2479332E+03  0.7818608E-02  0.1114618E+00
         21   -1    0    0  501  502  0.00000000000E+00  0.00000000000E+00  0.20329235625E+03  0.20329235625E+03  0.00000000000E+00 0.  1.
         21   -1    0    0  502  503 -0.00000000000E+00 -0.00000000000E+00 -0.37918440335E+03  0.37918440335E+03  0.00000000000E+00 0. -1.
         -6    2    1    2    0  503  0.18950263714E+03  0.10129106273E+03 -0.74959228478E+02  0.28575097302E+03  0.17281089020E+03 0.  0.
        -24    2    3    3    0    0  0.45273837523E+02  0.93486104086E+02 -0.33061688893E+02  0.13528384092E+03  0.80120348970E+02 0.  0.
          6    2    1    2  501    0 -0.18950263714E+03 -0.10129106273E+03 -0.10093281862E+03  0.29672578658E+03  0.17801019542E+03 0.  0.
         24    2    5    5    0    0 -0.14504902634E+03 -0.66065467102E+02  0.31660780375E+01  0.17808499939E+03  0.79374913995E+02 0.  0.
         12    1    6    6    0    0 -0.13162925675E+03 -0.70251685957E+02 -0.20453662502E+02  0.15059851567E+03  0.00000000000E+00 0. -1.
        -11    1    6    6    0    0 -0.13419769593E+02  0.41862188551E+01  0.23619740539E+02  0.27486483722E+02  0.00000000000E+00 0.  1.
          5    1    5    5  501    0 -0.44453610805E+02 -0.35225595628E+02 -0.10409889666E+03  0.11864078719E+03  0.47000000000E+01 0. -1.
         13    1    4    4    0    0 -0.42951015863E+01 -0.13014881024E+02 -0.30946139393E+01  0.14050326015E+02  0.00000000000E+00 0. -1.
        -14    1    4    4    0    0  0.49568939109E+02  0.10650098511E+03 -0.29967074953E+02  0.12123351490E+03  0.00000000000E+00 0.  1.
         -5    1    3    3    0  503  0.14422879962E+03  0.78049586434E+01 -0.41897539585E+02  0.15046713210E+03  0.47000000000E+01 0.  1.
</event>
<event>
12    1  0.9749377E-001  0.4434770E+03  0.7818608E-02  0.1029685E+00
         21   -1    0    0  503  502  0.00000000000E+00  0.00000000000E+00  0.18781870256E+03  0.18781870256E+03  0.00000000000E+00 0.  1.
         21   -1    0    0  501  503 -0.00000000000E+00 -0.00000000000E+00 -0.11646016663E+04  0.11646016663E+04  0.00000000000E+00 0. -1.
          6    2    1    2  501    0 -0.13278504289E+02 -0.41578137548E+03 -0.31777702423E+03  0.55112743989E+03  0.17236225516E+03 0.  0.
         24    2    3    3    0    0 -0.64251223188E+02 -0.19289539094E+03 -0.12292508870E+03  0.25068485477E+03  0.79971666560E+02 0.  0.
         -6    2    1    2    0  502  0.13278504289E+02  0.41578137548E+03 -0.65900593952E+03  0.80129292897E+03  0.18636270768E+03 0.  0.
        -24    2    5    5    0    0  0.79350256969E+02  0.21336649987E+03 -0.32117678481E+03  0.40193358434E+03  0.81082381371E+02 0.  0.
         14    1    4    4    0    0  0.52212398140E+01 -0.54006356883E+02 -0.27615596791E+01  0.54328391665E+02  0.00000000000E+00 0. -1.
        -13    1    4    4    0    0 -0.69472463002E+02 -0.13888903405E+03 -0.12016352902E+03  0.19635646310E+03  0.00000000000E+00 0.  1.
          5    1    3    3  501    0  0.50972718899E+02 -0.22288598455E+03 -0.19485193553E+03  0.30044258513E+03  0.47000000000E+01 0. -1.
         11    1    6    6    0    0  0.55681046400E+02  0.20189434869E+03 -0.30814621852E+03  0.37257992291E+03  0.00000000000E+00 0. -1.
        -12    1    6    6    0    0  0.23669210570E+02  0.11472151178E+02 -0.13030566286E+02  0.29353661431E+02  0.00000000000E+00 0.  1.
         -5    1    5    5    0  502 -0.66071752681E+02  0.20241487561E+03 -0.33782915471E+03  0.39935934463E+03  0.47000000000E+01 0.  1.
</event>
<event>
12    1  0.9749377E-001  0.5879962E+03  0.7818608E-02  0.9930628E-01
         21   -1    0    0  501  502  0.00000000000E+00  0.00000000000E+00  0.40388475723E+03  0.40388475723E+03  0.00000000000E+00 0.  1.
         21   -1    0    0  502  503 -0.00000000000E+00 -0.00000000000E+00 -0.14107817515E+04  0.14107817515E+04  0.00000000000E+00 0. -1.
         -6    2    1    2    0  503 -0.23329121097E+03 -0.52997190571E+03  0.41185154773E+02  0.60518119295E+03  0.17103522845E+03 0.  0.
        -24    2    3    3    0    0 -0.11567565476E+03 -0.37419296013E+03  0.76774072899E+02  0.40671416787E+03  0.78236357050E+02 0.  0.
          6    2    1    2  501    0  0.23329121097E+03  0.52997190571E+03 -0.10480821490E+04  0.12094853158E+04  0.17053893386E+03 0.  0.
         24    2    5    5    0    0  0.23877477447E+03  0.48779394534E+03 -0.10186264850E+04  0.11575355713E+04  0.85629181574E+02 0.  0.
         14    1    6    6    0    0  0.69446768274E+02  0.20555223848E+03 -0.34046022042E+03  0.40371739875E+03  0.00000000000E+00 0. -1.
        -13    1    6    6    0    0  0.16932800620E+03  0.28224170686E+03 -0.67816626462E+03  0.75381817254E+03  0.00000000000E+00 0.  1.
          5    1    5    5  501    0 -0.54835634968E+01  0.42177960376E+02 -0.29455664000E+02  0.51949744482E+02  0.47000000000E+01 0. -1.
         11    1    4    4    0    0 -0.77939738192E+02 -0.27023275637E+03  0.18880844729E+02  0.28188088212E+03  0.00000000000E+00 0. -1.
        -12    1    4    4    0    0 -0.37735916563E+02 -0.10396020376E+03  0.57893228170E+02  0.12483328576E+03  0.00000000000E+00 0.  1.
         -5    1    3    3    0  503 -0.11761555622E+03 -0.15577894558E+03 -0.35588918125E+02  0.19846702508E+03  0.47000000000E+01 0.  1.
</event>
<event>
12    1  0.9749377E-001  0.3521997E+03  0.7818608E-02  0.1061716E+00
         21   -1    0    0  501  502  0.00000000000E+00  0.00000000000E+00  0.20226988653E+04  0.20226988653E+04  0.00000000000E+00 0. -1.
         21   -1    0    0  502  503 -0.00000000000E+00 -0.00000000000E+00 -0.17644418943E+03  0.17644418943E+03  0.00000000000E+00 0.  1.
         -6    2    1    2    0  503 -0.19982432431E+03  0.26603873065E+03  0.17797424291E+04  0.18186985414E+04  0.17168256724E+03 0.  0.
        -24    2    3    3    0    0 -0.16001915247E+03  0.20577587263E+03  0.10272167365E+04  0.10627004781E+04  0.78792407456E+02 0.  0.
          6    2    1    2  501    0  0.19982432431E+03 -0.26603873065E+03  0.66512246731E+02  0.38044451326E+03  0.17206911956E+03 0.  0.
         24    2    5    5    0    0  0.11871688523E+03 -0.25592742993E+03  0.47391626879E+02  0.29637107405E+03  0.77442230103E+02 0.  0.
         12    1    6    6    0    0  0.43400365108E+02 -0.12230136477E+03 -0.15283367061E+02  0.13067056602E+03  0.00000000000E+00 0. -1.
        -11    1    6    6    0    0  0.75316520122E+02 -0.13362606516E+03  0.62674993940E+02  0.16570050802E+03  0.00000000000E+00 0.  1.
          5    1    5    5  501    0  0.81107439082E+02 -0.10111300720E+02  0.19120619853E+02  0.84073439208E+02  0.47000000000E+01 0. -1.
         11    1    4    4    0    0 -0.14929707809E+03  0.15544129643E+03  0.73348942534E+03  0.76449875817E+03  0.00000000000E+00 0. -1.
        -12    1    4    4    0    0 -0.10722074379E+02  0.50334576205E+02  0.29372731116E+03  0.29820171992E+03  0.00000000000E+00 0.  1.
         -5    1    3    3    0  503 -0.39805171843E+02  0.60262858019E+02  0.75252569259E+03  0.75599806334E+03  0.47000000000E+01 0.  1.
</event>
<event>
12    1  0.9749377E-001  0.3261327E+03  0.7818608E-02  0.1072861E+00
         21   -1    0    0  503  502  0.00000000000E+00  0.00000000000E+00  0.64051457963E+03  0.64051457963E+03  0.00000000000E+00 0.  1.
         21   -1    0    0  501  503 -0.00000000000E+00 -0.00000000000E+00 -0.22447191015E+03  0.22447191015E+03  0.00000000000E+00 0. -1.
          6    2    1    2  501    0  0.64862136007E+02  0.28838071065E+03  0.21215871165E+02  0.34259427963E+03  0.17190170529E+03 0.  0.
         24    2    3    3    0    0 -0.26806340319E+02  0.15620600398E+03 -0.14263753680E+02  0.17780909700E+03  0.79332999092E+02 0.  0.
         -6    2    1    2    0  502 -0.64862136007E+02 -0.28838071065E+03  0.39482679832E+03  0.52239221015E+03  0.17214787129E+03 0.  0.
        -24    2    5    5    0    0  0.23618406947E+02 -0.15680925414E+03  0.23697071223E+03  0.29860550687E+03  0.88674454869E+02 0.  0.
         12    1    4    4    0    0  0.93373846457E+01  0.12011250409E+02 -0.24458741299E+02  0.28804286388E+02  0.00000000000E+00 0. -1.
        -11    1    4    4    0    0 -0.36143724965E+02  0.14419475357E+03  0.10194987619E+02  0.14900481061E+03  0.00000000000E+00 0.  1.
          5    1    3    3  501    0  0.91668476327E+02  0.13217470667E+03  0.35479624845E+02  0.16478518263E+03  0.47000000000E+01 0. -1.
         11    1    6    6    0    0 -0.18428483576E+02 -0.29553780079E+02  0.10455011461E+03  0.11019873587E+03  0.00000000000E+00 0. -1.
        -12    1    6    6    0    0  0.42046890523E+02 -0.12725547406E+03  0.13242059762E+03  0.18840677099E+03  0.00000000000E+00 0.  1.
         -5    1    5    5    0  502 -0.88480542955E+02 -0.13157145651E+03  0.15785608609E+03  0.22378670328E+03  0.47000000000E+01 0.  1.
</event>
<event>
12    1  0.9749377E-001  0.3327591E+03  0.7818608E-02  0.1069923E+00
         21   -1    0    0  503  502  0.00000000000E+00  0.00000000000E+00  0.84766774446E+03  0.84766774446E+03  0.00000000000E+00 0. -1.
         21   -1    0    0  501  503 -0.00000000000E+00 -0.00000000000E+00 -0.24221237100E+03  0.24221237100E+03  0.00000000000E+00 0.  1.
          6    2    1    2  501    0  0.20420581844E+03 -0.22486265442E+03  0.64973910371E+03  0.73796174146E+03  0.17367613345E+03 0.  0.
         24    2    3    3    0    0  0.60167264530E+02 -0.95512507475E+02  0.39470893413E+03  0.41774143773E+03  0.77265951799E+02 0.  0.
         -6    2    1    2    0  502 -0.20420581844E+03  0.22486265442E+03 -0.44283730249E+02  0.35191837400E+03  0.17211119534E+03 0.  0.
        -24    2    5    5    0    0 -0.22754868105E+03  0.19735141842E+03 -0.31725667624E+02  0.31342743640E+03  0.80648963430E+02 0.  0.
         14    1    4    4    0    0  0.41166766415E+02 -0.10341634688E+03  0.36504767076E+03  0.38164046612E+03  0.00000000000E+00 0. -1.
        -13    1    4    4    0    0  0.19000498114E+02  0.79038394002E+01  0.29661263376E+02  0.36100971606E+02  0.00000000000E+00 0.  1.
          5    1    3    3  501    0  0.14403855391E+03 -0.12935014694E+03  0.25503016958E+03  0.32022030373E+03  0.47000000000E+01 0. -1.
         13    1    6    6    0    0 -0.18042644823E+03  0.17532080632E+03  0.17238217365E+01  0.25158310736E+03  0.00000000000E+00 0. -1.
        -14    1    6    6    0    0 -0.47122232820E+02  0.22030612098E+02 -0.33449489360E+02  0.61844329035E+02  0.00000000000E+00 0.  1.
         -5    1    5    5    0  502  0.23342862610E+02  0.27511235999E+02 -0.12558062625E+02  0.38490937608E+02  0.47000000000E+01 0.  1.
</event>
<event>
12    1  0.9749377E-001  0.1280524E+03  0.7818608E-02  0.1230375E+00
         21   -1    0    0  503  502  0.00000000000E+00  0.00000000000E+00  0.11045192790E+03  0.11045192790E+03  0.00000000000E+00 0.  1.
         21   -1    0    0  501  503 -0.00000000000E+00 -0.00000000000E+00 -0.32414315960E+03  0.32414315960E+03  0.00000000000E+00 0.  1.
          6    2    1    2  501    0 -0.16555209888E+02  0.28892074492E+02 -0.23567865898E+02  0.17635535332E+03  0.17157196566E+03 0.  0.
         24    2    3    3    0    0 -0.71324592705E+02 -0.64730192269E+01 -0.48786967798E-01  0.10688872665E+03  0.79347967845E+02 0.  0.
         -6    2    1    2    0  502  0.16555209888E+02 -0.28892074492E+02 -0.19012336579E+03  0.25823973418E+03  0.17155768460E+03 0.  0.
        -24    2    5    5    0    0 -0.16048633030E+02  0.54845404112E+01 -0.21700785615E+02  0.83216827853E+02  0.78526922364E+02 0.  0.
         12    1    4    4    0    0 -0.35519036144E+02 -0.11483634309E+02  0.38784606811E+02  0.53830488675E+02  0.00000000000E+00 0. -1.
        -11    1    4    4    0    0 -0.35805556561E+02  0.50106150818E+01 -0.38833393778E+02  0.53058237970E+02  0.00000000000E+00 0.  1.
          5    1    3    3  501    0  0.54769382817E+02  0.35365093719E+02 -0.23519078930E+02  0.69466626675E+02  0.47000000000E+01 0. -1.
         13    1    6    6    0    0  0.22953697340E+02 -0.13113869172E+02 -0.29169556944E+02  0.39366341442E+02  0.00000000000E+00 0. -1.
        -14    1    6    6    0    0 -0.39002330370E+02  0.18598409583E+02  0.74687713287E+01  0.43850486411E+02  0.00000000000E+00 0.  1.
         -5    1    5    5    0  502  0.32603842918E+02 -0.34376614903E+02 -0.16842258018E+03  0.17502290633E+03  0.47000000000E+01 0.  1.
</event>
<event>
12    1  0.9749377E-001  0.2618436E+03  0.7818608E-02  0.1106041E+00
         21   -1    0    0  503  502  0.00000000000E+00  0.00000000000E+00  0.32916760391E+03  0.32916760391E+03  0.00000000000E+00 0.  1.
         21   -1    0    0  501  503 -0.00000000000E+00 -0.00000000000E+00 -0.23837822382E+03  0.23837822382E+03  0.00000000000E+00 0. -1.
          6    2    1    2  501    0 -0.80972128437E+02 -0.19340059127E+03  0.11409028994E+03  0.29482358230E+03  0.17304356716E+03 0.  0.
         24    2    3    3    0    0 -0.90710614257E+02 -0.55731637972E+02  0.58564397855E+02  0.14598543699E+03  0.80916797434E+02 0.  0.
         -6    2    1    2    0  502  0.80972128437E+02  0.19340059127E+03 -0.23300909845E+02  0.27272224543E+03  0.17284159356E+03 0.  0.
        -24    2    5    5    0    0 -0.11636861661E+02  0.66382197079E+02 -0.45716198782E+02  0.11386812150E+03  0.79586215046E+02 0.  0.
         12    1    4    4    0    0 -0.48038565867E+02  0.13883102033E+02  0.34879029151E+02  0.60967130547E+02  0.00000000000E+00 0. -1.
        -11    1    4    4    0    0 -0.42672048390E+02 -0.69614740005E+02  0.23685368704E+02  0.85018306443E+02  0.00000000000E+00 0.  1.
          5    1    3    3  501    0  0.97384858204E+01 -0.13766895330E+03  0.55525892082E+02  0.14883814531E+03  0.47000000000E+01 0. -1.
         11    1    6    6    0    0  0.20812656071E+02  0.60125144632E+02 -0.86528282241E+01  0.64211144718E+02  0.00000000000E+00 0. -1.
        -12    1    6    6    0    0 -0.32449517733E+02  0.62570524471E+01 -0.37063370558E+02  0.49656976786E+02  0.00000000000E+00 0.  1.
         -5    1    5    5    0  502  0.92608990098E+02  0.12701839419E+03  0.22415288937E+02  0.15885412393E+03  0.47000000000E+01 0.  1.
</event>
<event>
12    1  0.9749377E-001  0.2050431E+03  0.7818608E-02  0.1145553E+00
         21   -1    0    0  501  502  0.00000000000E+00  0.00000000000E+00  0.10061415465E+04  0.10061415465E+04  0.00000000000E+00 0. -1.
         21   -1    0    0  502  503 -0.00000000000E+00 -0.00000000000E+00 -0.50409003993E+02  0.50409003993E+02  0.00000000000E+00 0.  1.
         -6    2    1    2    0  503  0.12031818129E+03  0.41184146144E+02  0.32012412642E+03  0.38541284187E+03  0.17289014928E+03 0.  0.
        -24    2    3    3    0    0  0.12226865924E+03  0.80130532259E+02  0.29568523754E+03  0.33915298189E+03  0.78895235548E+02 0.  0.
          6    2    1    2  501    0 -0.12031818129E+03 -0.41184146144E+02  0.63560841613E+03  0.67113770867E+03  0.17394012388E+03 0.  0.
         24    2    5    5    0    0  0.22048074855E+01  0.42009556905E+01  0.31535649182E+03  0.32522576139E+03  0.79369828848E+02 0.  0.
         12    1    6    6    0    0 -0.22994138666E+01  0.41461717980E+02  0.14822069596E+03  0.15392769755E+03  0.00000000000E+00 0. -1.
        -11    1    6    6    0    0  0.45042213520E+01 -0.37260762290E+02  0.16713579586E+03  0.17129806384E+03  0.00000000000E+00 0.  1.
          5    1    5    5  501    0 -0.12252298878E+03 -0.45385101834E+02  0.32025192431E+03  0.34591194728E+03  0.47000000000E+01 0. -1.
         13    1    4    4    0    0 -0.85038188263E+01  0.79335204658E+01  0.52344471949E+02  0.53620886091E+02  0.00000000000E+00 0. -1.
        -14    1    4    4    0    0  0.13077247807E+03  0.72197011793E+02  0.24334076559E+03  0.28553209580E+03  0.00000000000E+00 0.  1.
         -5    1    3    3    0  503 -0.19504779503E+01 -0.38946386115E+02  0.24438888885E+02  0.46259859982E+02  0.47000000000E+01 0.  1.
</event>
<event>
12    1  0.9749377E-001  0.5451513E+03  0.7818608E-02  0.1002622E+00
         21   -1    0    0  503  502  0.00000000000E+00  0.00000000000E+00  0.20318803378E+03  0.20318803378E+03  0.00000000000E+00 0.  1.
         21   -1    0    0  501  503 -0.00000000000E+00 -0.00000000000E+00 -0.23227844369E+04  0.23227844369E+04  0.00000000000E+00 0. -1.
          6    2    1    2  501    0 -0.28190423722E+03 -0.44949306992E+03 -0.17963607239E+04  0.18810144841E+04  0.17259669693E+03 0.  0.
         24    2    3    3    0    0 -0.17062400906E+03 -0.34787281017E+03 -0.14553364140E+04  0.15081477031E+04  0.79858449022E+02 0.  0.
         -6    2    1    2    0  502  0.28190423722E+03  0.44949306992E+03 -0.32323567913E+03  0.64495798659E+03  0.17313428701E+03 0.  0.
        -24    2    5    5    0    0  0.26503687171E+03  0.45738714744E+03 -0.32242567128E+03  0.62573376770E+03  0.90204703493E+02 0.  0.
         12    1    4    4    0    0 -0.92205761474E+02 -0.17629379044E+03 -0.89712709854E+03  0.91892243086E+03  0.00000000000E+00 0. -1.
        -11    1    4    4    0    0 -0.78418247588E+02 -0.17157901973E+03 -0.55820931550E+03  0.58922527226E+03  0.00000000000E+00 0.  1.
          5    1    3    3  501    0 -0.11128022816E+03 -0.10162025974E+03 -0.34102430991E+03  0.37286678093E+03  0.47000000000E+01 0. -1.
         13    1    6    6    0    0  0.25146791247E+02  0.93923060295E+02 -0.88068893459E+02  0.13118701293E+03  0.00000000000E+00 0. -1.
        -14    1    6    6    0    0  0.23989008047E+03  0.36346408715E+03 -0.23435677782E+03  0.49454675478E+03  0.00000000000E+00 0.  1.
         -5    1    5    5    0  502  0.16867365507E+02 -0.78940775250E+01 -0.81000785023E+00  0.19224218888E+02  0.47000000000E+01 0.  1.
</event>
<event>
12    1  0.9749377E-001  0.4897233E+03  0.7818608E-02  0.1016497E+00
         21   -1    0    0  501  502  0.00000000000E+00  0.00000000000E+00  0.48068502492E+03  0.48068502492E+03  0.00000000000E+00 0. -1.
         21   -1    0    0  502  503 -0.00000000000E+00 -0.00000000000E+00 -0.57106715437E+03  0.57106715437E+03  0.00000000000E+00 0.  1.
         -6    2    1    2    0  503 -0.96204321787E+01 -0.47853940640E+03 -0.17136507617E+03  0.53644360673E+03  0.17121109101E+03 0.  0.
        -24    2    3    3    0    0  0.20465680718E+02 -0.38439755330E+03 -0.82860647541E+02  0.40369200945E+03  0.89000160197E+02 0.  0.
          6    2    1    2  501    0  0.96204321787E+01  0.47853940640E+03  0.80982946727E+02  0.51530857256E+03  0.17289352534E+03 0.  0.
         24    2    5    5    0    0 -0.51946138955E+02  0.17598935281E+03  0.33426152477E+02  0.20288143499E+03  0.79830541413E+02 0.  0.
         14    1    6    6    0    0 -0.30732006078E+02  0.12904213665E+03 -0.13317723831E+02  0.13331800703E+03  0.00000000000E+00 0. -1.
        -13    1    6    6    0    0 -0.21214132878E+02  0.46947216152E+02  0.46743876308E+02  0.69563427967E+02  0.00000000000E+00 0.  1.
          5    1    5    5  501    0  0.61566571134E+02  0.30255005359E+03  0.47556794250E+02  0.31242713757E+03  0.47000000000E+01 0. -1.
         11    1    4    4    0    0 -0.14242591239E+02 -0.13414121145E+03 -0.66803656953E+02  0.15053054373E+03  0.00000000000E+00 0. -1.
        -12    1    4    4    0    0  0.34708271958E+02 -0.25025634185E+03 -0.16056990588E+02  0.25316146572E+03  0.00000000000E+00 0.  1.
         -5    1    3    3    0  503 -0.30086112897E+02 -0.94141853098E+02 -0.88504428631E+02  0.13275159728E+03  0.47000000000E+01 0.  1.
</event>
<event>
12    1  0.9749377E-001  0.1851073E+03  0.7818608E-02  0.1162950E+00
         21   -1    0    0  501  502  0.00000000000E+00  0.00000000000E+00  0.12861411542E+03  0.12861411542E+03  0.00000000000E+00 0. -1.
         21   -1    0    0  502  503 -0.00000000000E+00 -0.00000000000E+00 -0.37488496337E+03  0.37488496337E+03  0.00000000000E+00 0.  1.
         -6    2    1    2    0  503 -0.13077318448E+03  0.22723119515E+02 -0.86303628859E+02  0.23341281184E+03  0.17150877073E+03 0.  0.
        -24    2    3    3    0    0 -0.11010319654E+03 -0.12817211297E+02  0.89082907837E+00  0.13689687010E+03  0.80330347143E+02 0.  0.
          6    2    1    2  501    0  0.13077318448E+03 -0.22723119515E+02 -0.15996721909E+03  0.27008626694E+03  0.17245032464E+03 0.  0.
         24    2    5    5    0    0  0.14449130795E+03 -0.61777040209E+02 -0.12915026881E+03  0.21826764039E+03  0.79163313087E+02 0.  0.
         14    1    6    6    0    0  0.96442489590E+02 -0.43593476056E+02 -0.35824884031E+02  0.11173615023E+03  0.00000000000E+00 0. -1.
        -13    1    6    6    0    0  0.48048818355E+02 -0.18183564152E+02 -0.93325384784E+02  0.10653149016E+03  0.00000000000E+00 0.  1.
          5    1    5    5  501    0 -0.13718123467E+02  0.39053920693E+02 -0.30816950277E+02  0.51818626548E+02  0.47000000000E+01 0. -1.
         11    1    4    4    0    0 -0.16829287762E+02 -0.30680239068E+02 -0.19071497277E+02  0.39852528203E+02  0.00000000000E+00 0. -1.
        -12    1    4    4    0    0 -0.93273908780E+02  0.17863027771E+02  0.19962326356E+02  0.97044341894E+02  0.00000000000E+00 0.  1.
         -5    1    3    3    0  503 -0.20669987938E+02  0.35540330812E+02 -0.87194457938E+02  0.96515941743E+02  0.47000000000E+01 0.  1.
</event>
<event>
12    1  0.9749377E-001  0.2215782E+03  0.7818608E-02  0.1132712E+00
         21   -1    0    0  503  502  0.00000000000E+00  0.00000000000E+00  0.41010520793E+02  0.41010520793E+02  0.00000000000E+00 0. -1.
         21   -1    0    0  501  503 -0.00000000000E+00 -0.00000000000E+00 -0.17266616915E+04  0.17266616915E+04  0.00000000000E+00 0.  1.
          6    2    1    2  501    0 -0.17946127855E+03  0.68064253943E+02 -0.62707687011E+03  0.67804007267E+03  0.17226098208E+03 0.  0.
         24    2    3    3    0    0 -0.73979054469E+02  0.23460156285E+01 -0.14787908665E+03  0.18296634875E+03  0.78294675516E+02 0.  0.
         -6    2    1    2    0  502  0.17946127855E+03 -0.68064253943E+02 -0.10585743006E+04  0.10896321396E+04  0.17285704112E+03 0.  0.
        -24    2    5    5    0    0  0.10609364326E+03 -0.78740101573E+01 -0.85087592110E+03  0.86123252885E+03  0.80086044205E+02 0.  0.
         14    1    4    4    0    0 -0.59182269977E+01 -0.24860473540E+02 -0.11258008716E+02  0.27925101892E+02  0.00000000000E+00 0. -1.
        -13    1    4    4    0    0 -0.68060827472E+02  0.27206489168E+02 -0.13662107794E+03  0.15504124685E+03  0.00000000000E+00 0.  1.
          5    1    3    3  501    0 -0.10548222409E+03  0.65718238315E+02 -0.47919778346E+03  0.49507372392E+03  0.47000000000E+01 0. -1.
         11    1    6    6    0    0  0.50763826200E+02 -0.36596899246E+02 -0.27703804328E+03  0.28401826791E+03  0.00000000000E+00 0. -1.
        -12    1    6    6    0    0  0.55329817061E+02  0.28722889088E+02 -0.57383787782E+03  0.57721426094E+03  0.00000000000E+00 0.  1.
         -5    1    5    5    0  502  0.73367635294E+02 -0.60190243786E+02 -0.20769837949E+03  0.22839961077E+03  0.47000000000E+01 0.  1.
</event>
<event>
12    1  0.9749377E-001  0.7120068E+03  0.7818608E-02  0.9696916E-01
         21   -1    0    0  501  502  0.00000000000E+00  0.00000000000E+00  0.18910011353E+04  0.18910011353E+04  0.00000000000E+00 0. -1.
         21   -1    0    0  502  503 -0.00000000000E+00 -0.00000000000E+00 -0.28043013308E+03  0.28043013308E+03  0.00000000000E+00 0.  1.
         -6    2    1    2    0  503  0.52058390324E+03  0.47256868776E+03  0.68683932148E+03  0.99795565507E+03  0.17273815731E+03 0.  0.
        -24    2    3    3    0    0  0.15161009511E+03  0.10645929849E+03  0.15673409095E+03  0.25551952890E+03  0.80034062825E+02 0.  0.
          6    2    1    2  501    0 -0.52058390324E+03 -0.47256868776E+03  0.92373168071E+03  0.11734756133E+04  0.17156932143E+03 0.  0.
         24    2    5    5    0    0 -0.11325162408E+03 -0.11478822333E+03  0.27285662012E+03  0.32637061337E+03  0.77876668894E+02 0.  0.
         14    1    6    6    0    0 -0.14271828061E+02 -0.14385677878E+02  0.11911501857E+01  0.20299055224E+02  0.00000000000E+00 0. -1.
        -13    1    6    6    0    0 -0.98979796018E+02 -0.10040254545E+03  0.27166546993E+03  0.30607155815E+03  0.00000000000E+00 0.  1.
          5    1    5    5  501    0 -0.40733227916E+03 -0.35778046443E+03  0.65087506059E+03  0.84710499991E+03  0.47000000000E+01 0. -1.
         13    1    4    4    0    0  0.69915341062E+02  0.95499939682E+02  0.79626248856E+02  0.14264898493E+03  0.00000000000E+00 0. -1.
        -14    1    4    4    0    0  0.81694754045E+02  0.10959358804E+02  0.77107842097E+02  0.11287054397E+03  0.00000000000E+00 0.  1.
         -5    1    3    3    0  503  0.36897380813E+03  0.36610938928E+03  0.53010523053E+03  0.74243612617E+03  0.47000000000E+01 0.  1.
</event>
<event>
12    1  0.9749377E-001  0.2598587E+03  0.7818608E-02  0.1107228E+00
         21   -1    0    0  503  502  0.00000000000E+00  0.00000000000E+00  0.18862766946E+03  0.18862766946E+03  0.00000000000E+00 0.  1.
         21   -1    0    0  501  503 -0.00000000000E+00 -0.00000000000E+00 -0.39952236487E+03  0.39952236487E+03  0.00000000000E+00 0. -1.
          6    2    1    2  501    0 -0.19867993695E+03  0.49720925470E+02 -0.18338669196E+03  0.32418771244E+03  0.17181707230E+03 0.  0.
         24    2    3    3    0    0 -0.78743824655E+02 -0.37611230477E+02 -0.68575276901E+02  0.13653023851E+03  0.79515676727E+02 0.  0.
         -6    2    1    2    0  502  0.19867993695E+03 -0.49720925470E+02 -0.27508003451E+02  0.26396232190E+03  0.16423619988E+03 0.  0.
        -24    2    5    5    0    0  0.10782193385E+03  0.38315915121E+02 -0.13164959147E+02  0.13655166712E+03  0.73344140018E+02 0.  0.
         14    1    4    4    0    0 -0.82517075592E+00 -0.39774131406E+02 -0.18424205136E+02  0.43841917964E+02  0.00000000000E+00 0. -1.
        -13    1    4    4    0    0 -0.77918653899E+02  0.21629009287E+01 -0.50151071764E+02  0.92688320543E+02  0.00000000000E+00 0.  1.
          5    1    3    3  501    0 -0.11993611230E+03  0.87332155947E+02 -0.11481141506E+03  0.18765747393E+03  0.47000000000E+01 0. -1.
         13    1    6    6    0    0 -0.65565864248E+01  0.32297244344E+01 -0.15232045657E+02  0.16894826438E+02  0.00000000000E+00 0. -1.
        -14    1    6    6    0    0  0.11437852027E+03  0.35086190686E+02  0.20670865103E+01  0.11965684068E+03  0.00000000000E+00 0.  1.
         -5    1    5    5    0  502  0.90858003109E+02 -0.88036840590E+02 -0.14343044304E+02  0.12741065477E+03  0.47000000000E+01 0.  1.
</event>
<event>
12    1  0.9749377E-001  0.4054229E+03  0.7818608E-02  0.1041918E+00
         21   -1    0    0  503  502  0.00000000000E+00  0.00000000000E+00  0.20606345872E+04  0.20606345872E+04  0.00000000000E+00 0. -1.
         21   -1    0    0  501  503 -0.00000000000E+00 -0.00000000000E+00 -0.87076856855E+02  0.87076856855E+02  0.00000000000E+00 0.  1.
          6    2    1    2  501    0 -0.35747359209E+02  0.38362292774E+03  0.10637934099E+04  0.11444295215E+04  0.17209905957E+03 0.  0.
         24    2    3    3    0    0 -0.61624160804E+02  0.12763524329E+03  0.46476545523E+03  0.49246642135E+03  0.80174529988E+02 0.  0.
         -6    2    1    2    0  502  0.35747359209E+02 -0.38362292774E+03  0.90976432042E+03  0.10032819226E+04  0.17452527910E+03 0.  0.
        -24    2    5    5    0    0  0.66895495372E+02 -0.18269865585E+03  0.56729250167E+03  0.60497324068E+03  0.79486057520E+02 0.  0.
         14    1    4    4    0    0 -0.32436436594E+02  0.60458598022E+02  0.34748528461E+03  0.35419399700E+03  0.00000000000E+00 0. -1.
        -13    1    4    4    0    0 -0.29187724210E+02  0.67176645268E+02  0.11728017062E+03  0.13827242435E+03  0.00000000000E+00 0.  1.
          5    1    3    3  501    0  0.25876801595E+02  0.25598768445E+03  0.59902795472E+03  0.65196310017E+03  0.47000000000E+01 0. -1.
         13    1    6    6    0    0 -0.13693480155E+02 -0.59550415857E+02  0.13158077046E+03  0.14507674721E+03  0.00000000000E+00 0. -1.
        -14    1    6    6    0    0  0.80588975527E+02 -0.12314823999E+03  0.43571173121E+03  0.45989649347E+03  0.00000000000E+00 0.  1.
         -5    1    5    5    0  502 -0.31148136164E+02 -0.20092427189E+03  0.34247181875E+03  0.39830868188E+03  0.47000000000E+01 0.  1.
</event>
<event>
12    1  0.1920438E+000  0.1145571E+04  0.7818608E-02  0.9161879E-01
         21   -1    0    0  501  502  0.00000000000E+00  0.00000000000E+00  0.11739239486E+04  0.11739239486E+04  0.00000000000E+00 0. -1.
         21   -1    0    0  502  503 -0.00000000000E+00 -0.00000000000E+00 -0.11464983283E+04  0.11464983283E+04  0.00000000000E+00 0.  1.
         -6    2    1    2    0  503  0.51323986717E+03  0.10183648947E+04  0.13653754597E+03  0.11613836693E+04  0.17230004579E+03 0.  0.
        -24    2    3    3    0    0  0.38307448401E+03  0.73832876959E+03  0.16342612027E+03  0.85137021188E+03  0.79042447924E+02 0.  0.
          6    2    1    2  501    0 -0.51323986717E+03 -0.10183648947E+04 -0.10911192574E+03  0.11590386076E+04  0.17601949173E+03 0.  0.
         24    2    5    5    0    0 -0.29978134673E+03 -0.71782740794E+03 -0.34669594950E+02  0.78293879168E+03  0.81523783401E+02 0.  0.
         12    1    6    6    0    0 -0.17552885601E+03 -0.51379596623E+03 -0.13580142220E+02  0.54312162033E+03  0.00000000000E+00 0. -1.
        -11    1    6    6    0    0 -0.12425249072E+03 -0.20403144171E+03 -0.21089452730E+02  0.23981717135E+03  0.00000000000E+00 0.  1.
          5    1    5    5  501    0 -0.21345852044E+03 -0.30053748678E+03 -0.74442330788E+02  0.37609981591E+03  0.47000000000E+01 0. -1.
         13    1    4    4    0    0  0.11199694719E+03  0.21240822914E+03  0.10990590308E+02  0.24037754692E+03  0.00000000000E+00 0. -1.
        -14    1    4    4    0    0  0.27107753682E+03  0.52592054045E+03  0.15243552996E+03  0.61099266496E+03  0.00000000000E+00 0.  1.
         -5    1    3    3    0  503  0.13016538316E+03  0.28003612513E+03 -0.26888574296E+02  0.31001345741E+03  0.47000000000E+01 0.  1.
</event>
<event>
12    1  0.9749377E-001  0.2067538E+03  0.7818608E-02  0.1144163E+00
         21   -1    0    0  503  502  0.00000000000E+00  0.00000000000E+00  0.14907218228E+03  0.14907218228E+03  0.00000000000E+00 0.  1.
         21   -1    0    0  501  503 -0.00000000000E+00 -0.00000000000E+00 -0.43815213501E+03  0.43815213501E+03  0.00000000000E+00 0. -1.
          6    2    1    2  501    0 -0.34761629721E+02 -0.12285046518E+03  0.86765603333E+01  0.21422084107E+03  0.17179836540E+03 0.  0.
         24    2    3    3    0    0 -0.82457439771E+02 -0.11869067752E+03  0.20984319164E+02  0.16456437063E+03  0.75857656999E+02 0.  0.
         -6    2    1    2    0  502  0.34761629721E+02  0.12285046518E+03 -0.29775651306E+03  0.37300347621E+03  0.18485682163E+03 0.  0.
        -24    2    5    5    0    0 -0.89477225439E+01  0.60735103094E+01 -0.18225847002E+03  0.20297626484E+03  0.88680690826E+02 0.  0.
         14    1    4    4    0    0 -0.19406661059E+02 -0.67737458334E+02 -0.20658335950E+02  0.73428527149E+02  0.00000000000E+00 0. -1.
        -13    1    4    4    0    0 -0.63050778712E+02 -0.50953219187E+02  0.41642655114E+02  0.91135843479E+02  0.00000000000E+00 0.  1.
          5    1    3    3  501    0  0.47695810050E+02 -0.41597876575E+01 -0.12307758830E+02  0.49656470446E+02  0.47000000000E+01 0. -1.
         13    1    6    6    0    0 -0.72642243486E+01  0.47289594365E+02 -0.10529561948E+03  0.11565570532E+03  0.00000000000E+00 0. -1.
        -14    1    6    6    0    0 -0.16834981953E+01 -0.41216084056E+02 -0.76962850542E+02  0.87320559518E+02  0.00000000000E+00 0.  1.
         -5    1    5    5    0  502  0.43709352265E+02  0.11677695487E+03 -0.11549804303E+03  0.17002721138E+03  0.47000000000E+01 0.  1.
</event>
<event>
12    1  0.9749377E-001  0.5580871E+03  0.7818608E-02  0.9996392E-01
         21   -1    0    0  503  502  0.00000000000E+00  0.00000000000E+00  0.11226623304E+04  0.11226623304E+04  0.00000000000E+00 0.  1.
         21   -1    0    0  501  503 -0.00000000000E+00 -0.00000000000E+00 -0.28773863927E+03  0.28773863927E+03  0.00000000000E+00 0. -1.
          6    2    1    2  501    0 -0.36274162439E+03  0.40163747840E+03  0.45598037458E+03  0.72824304949E+03  0.17183040189E+03 0.  0.
         24    2    3    3    0    0 -0.34730364307E+03  0.40335707877E+03  0.46358860240E+03  0.71031922671E+03  0.79512628342E+02 0.  0.
         -6    2    1    2    0  502  0.36274162439E+03 -0.40163747840E+03  0.37894331652E+03  0.68215792015E+03  0.16984475490E+03 0.  0.
        -24    2    5    5    0    0  0.17251477264E+03 -0.28865621287E+03  0.21634539677E+03  0.40754693167E+03  0.78774455269E+02 0.  0.
         12    1    4    4    0    0 -0.21635088429E+03  0.19788810176E+03  0.22825811042E+03  0.37157660169E+03  0.00000000000E+00 0. -1.
        -11    1    4    4    0    0 -0.13095275879E+03  0.20546897702E+03  0.23533049198E+03  0.33874262502E+03  0.00000000000E+00 0.  1.
          5    1    3    3  501    0 -0.15437981316E+02 -0.17196003760E+01 -0.76082278220E+01  0.17923822783E+02  0.47000000000E+01 0. -1.
         13    1    6    6    0    0  0.23868664105E+02 -0.93355729654E+02  0.88400837884E+02  0.13076587293E+03  0.00000000000E+00 0. -1.
        -14    1    6    6    0    0  0.14864610854E+03 -0.19530048321E+03  0.12794455888E+03  0.27678105873E+03  0.00000000000E+00 0.  1.
         -5    1    5    5    0  502  0.19022685175E+03 -0.11298126553E+03  0.16259791975E+03  0.27461098848E+03  0.47000000000E+01 0.  1.
</event>
<event>
12    1  0.9749377E-001  0.3454885E+03  0.7818608E-02  0.1064482E+00
         21   -1    0    0  503  502  0.00000000000E+00  0.00000000000E+00  0.19135845451E+03  0.19135845451E+03  0.00000000000E+00 0.  1.
         21   -1    0    0  501  503 -0.00000000000E+00 -0.00000000000E+00 -0.70536665316E+03  0.70536665316E+03  0.00000000000E+00 0.  1.
          6    2    1    2  501    0 -0.13304298054E+03  0.29689970222E+03 -0.26152513882E+03  0.45086544354E+03  0.17039478304E+03 0.  0.
         24    2    3    3    0    0 -0.33232719820E+01  0.12620453938E+03 -0.14987636963E+03  0.20909782977E+03  0.72940704293E+02 0.  0.
         -6    2    1    2    0  502  0.13304298054E+03 -0.29689970222E+03 -0.25248305982E+03  0.44585966413E+03  0.17086040135E+03 0.  0.
        -24    2    5    5    0    0  0.31132777890E+02 -0.18853857109E+03 -0.90470810558E+02  0.22586447542E+03  0.79459115563E+02 0.  0.
         14    1    4    4    0    0 -0.11768816281E+02  0.84209335354E+02 -0.14204903799E+03  0.16555254873E+03  0.00000000000E+00 0. -1.
        -13    1    4    4    0    0  0.84455442991E+01  0.41995204030E+02 -0.78273316397E+01  0.43545281038E+02  0.00000000000E+00 0.  1.
          5    1    3    3  501    0 -0.12971970855E+03  0.17069516284E+03 -0.11164876919E+03  0.24176761377E+03  0.47000000000E+01 0. -1.
         13    1    6    6    0    0 -0.26757725579E+01 -0.14350076028E+03 -0.90261478387E+02  0.16954870227E+03  0.00000000000E+00 0. -1.
        -14    1    6    6    0    0  0.33808550448E+02 -0.45037810805E+02 -0.20933217167E+00  0.56315773150E+02  0.00000000000E+00 0.  1.
         -5    1    5    5    0  502  0.10191020265E+03 -0.10836113114E+03 -0.16201224927E+03  0.21999518871E+03  0.47000000000E+01 0.  1.
</event>
<event>
12    1  0.9749377E-001  0.2699288E+03  0.7818608E-02  0.1101320E+00
         21   -1    0    0  503  502  0.00000000000E+00  0.00000000000E+00  0.23183417628E+03  0.23183417628E+03  0.00000000000E+00 0.  1.
         21   -1    0    0  501  503 -0.00000000000E+00 -0.00000000000E+00 -0.35222102257E+03  0.35222102257E+03  0.00000000000E+00 0. -1.
          6    2    1    2  501    0 -0.41247167185E+01  0.22885999324E+03 -0.84361732622E+02  0.29881430922E+03  0.17256645000E+03 0.  0.
         24    2    3    3    0    0  0.45498423690E+02  0.97720206621E+02 -0.83461001801E+02  0.15851819019E+03  0.80888395076E+02 0.  0.
         -6    2    1    2    0  502  0.41247167185E+01 -0.22885999324E+03 -0.36025113665E+02  0.28524088964E+03  0.16634496239E+03 0.  0.
        -24    2    5    5    0    0 -0.20984366354E+02 -0.22566308906E+03  0.71759148695E+00  0.24037662066E+03  0.80101382185E+02 0.  0.
         14    1    4    4    0    0  0.60359417525E+02  0.34220977196E+02 -0.46963483923E+02  0.83784863707E+02  0.00000000000E+00 0. -1.
        -13    1    4    4    0    0 -0.14860993835E+02  0.63499229425E+02 -0.36497517878E+02  0.74733326479E+02  0.00000000000E+00 0.  1.
          5    1    3    3  501    0 -0.49623140409E+02  0.13113978662E+03 -0.90073082130E+00  0.14029611903E+03  0.47000000000E+01 0. -1.
         13    1    6    6    0    0  0.14821753184E+02 -0.18266285744E+03 -0.94389466634E+01  0.18350612407E+03  0.00000000000E+00 0. -1.
        -14    1    6    6    0    0 -0.35806119538E+02 -0.43000231613E+02  0.10156538150E+02  0.56870496589E+02  0.00000000000E+00 0.  1.
         -5    1    5    5    0  502  0.25109083073E+02 -0.31969041849E+01 -0.36742705152E+02  0.44864268978E+02  0.47000000000E+01 0.  1.
</event>
<event>
12    1  0.9749377E-001  0.2710994E+03  0.7818608E-02  0.1100652E+00
         21   -1    0    0  503  502  0.00000000000E+00  0.00000000000E+00  0.52145713699E+03  0.52145713699E+03  0.00000000000E+00 0.  1.
         21   -1    0    0  501  503 -0.00000000000E+00 -0.00000000000E+00 -0.23251083326E+03  0.23251083326E+03  0.00000000000E+00 0. -1.
          6    2    1    2  501    0  0.13436433374E+02  0.21945270720E+03  0.36956974452E+03  0.46345661591E+03  0.17283000413E+03 0.  0.
         24    2    3    3    0    0 -0.38034320149E+02  0.28764389723E+02  0.12106840528E+03  0.14598806866E+03  0.66188804252E+02 0.  0.
         -6    2    1    2    0  502 -0.13436433374E+02 -0.21945270720E+03 -0.80623440798E+02  0.29051135434E+03  0.17192056118E+03 0.  0.
        -24    2    5    5    0    0  0.37206541864E+02 -0.20629138535E+03 -0.48476684549E+02  0.22892048431E+03  0.78192945754E+02 0.  0.
         12    1    4    4    0    0 -0.87833754162E+01 -0.21253389517E+02  0.26572287116E+02  0.35141722955E+02  0.00000000000E+00 0. -1.
        -11    1    4    4    0    0 -0.29250944733E+02  0.50017779240E+02  0.94496118167E+02  0.11084634571E+03  0.00000000000E+00 0.  1.
          5    1    3    3  501    0  0.51470753523E+02  0.19068831748E+03  0.24850133924E+03  0.31746854725E+03  0.47000000000E+01 0. -1.
         13    1    6    6    0    0  0.98642405838E+01 -0.12498374703E+03 -0.65521889706E+02  0.14146150817E+03  0.00000000000E+00 0. -1.
        -14    1    6    6    0    0  0.27342301280E+02 -0.81307638316E+02  0.17045205157E+02  0.87458976136E+02  0.00000000000E+00 0.  1.
         -5    1    5    5    0  502 -0.50642975238E+02 -0.13161321851E+02 -0.32146756249E+02  0.61590870030E+02  0.47000000000E+01 0.  1.
</event>
<event>
12    1  0.9749377E-001  0.1311866E+04  0.7818608E-02  0.9020208E-01
         21   -1    0    0  501  502  0.00000000000E+00  0.00000000000E+00  0.12158383588E+04  0.12158383588E+04  0.00000000000E+00 0.  1.
         21   -1    0    0  502  503 -0.00000000000E+00 -0.00000000000E+00 -0.14793142627E+04  0.14793142627E+04  0.00000000000E+00 0. -1.
         -6    2    1    2    0  503  0.10116328224E+04  0.82696080595E+03 -0.38157497248E+03  0.13718813222E+04  0.17086181740E+03 0.  0.
        -24    2    3    3    0    0  0.38610703954E+03  0.25056221733E+03 -0.13802409363E+03  0.48708927964E+03  0.79657047295E+02 0.  0.
          6    2    1    2  501    0 -0.10116328224E+04 -0.82696080595E+03  0.11809906851E+03  0.13232712993E+04  0.17272637255E+03 0.  0.
         24    2    5    5    0    0 -0.14796456700E+03 -0.11365087518E+03 -0.31228519202E+01  0.19657224606E+03  0.61813115087E+02 0.  0.
         12    1    6    6    0    0 -0.83869931825E+02 -0.61006922149E+02 -0.32335924368E+02  0.10863527060E+03  0.00000000000E+00 0. -1.
        -11    1    6    6    0    0 -0.64094635179E+02 -0.52643953035E+02  0.29213072448E+02  0.87936975453E+02  0.00000000000E+00 0.  1.
          5    1    5    5  501    0 -0.86366825536E+03 -0.71330993077E+03  0.12122192043E+03  0.11266990533E+04  0.47000000000E+01 0. -1.
         13    1    4    4    0    0  0.21859540647E+03  0.18517842884E+03 -0.70723326635E+02  0.29508776858E+03  0.00000000000E+00 0. -1.
        -14    1    4    4    0    0  0.16751163306E+03  0.65383788493E+02 -0.67300766995E+02  0.19200151106E+03  0.00000000000E+00 0.  1.
         -5    1    3    3    0  503  0.62552578283E+03  0.57639858862E+03 -0.24355087885E+03  0.88479204254E+03  0.47000000000E+01 0.  1.
</event>
<event>
12    1  0.9749377E-001  0.1203016E+04  0.7818608E-02  0.9110221E-01
         21   -1    0    0  503  502  0.00000000000E+00  0.00000000000E+00  0.14866051662E+04  0.14866051662E+04  0.00000000000E+00 0.  1.
         21   -1    0    0  501  503 -0.00000000000E+00 -0.00000000000E+00 -0.11976944483E+04  0.11976944483E+04  0.00000000000E+00 0. -1.
          6    2    1    2  501    0  0.59848698204E+03 -0.10368623693E+04 -0.42250335428E+03  0.12810938335E+04  0.17152867203E+03 0.  0.
         24    2    3    3    0    0  0.41825909138E+03 -0.71408433840E+03 -0.36092299726E+03  0.90628457511E+03  0.78925352582E+02 0.  0.
         -6    2    1    2    0  502 -0.59848698204E+03  0.10368623693E+04  0.71141407212E+03  0.14032057810E+04  0.17206464292E+03 0.  0.
        -24    2    5    5    0    0 -0.26315208193E+03  0.54081470406E+03  0.41519005324E+03  0.73516121605E+03  0.79684822461E+02 0.  0.
         12    1    4    4    0    0  0.23610916722E+03 -0.47471344911E+03 -0.24256551977E+03  0.58304239039E+03  0.00000000000E+00 0. -1.
        -11    1    4    4    0    0  0.18214992416E+03 -0.23937088929E+03 -0.11835747749E+03  0.32324218473E+03  0.00000000000E+00 0.  1.
          5    1    3    3  501    0  0.18022789066E+03 -0.32277803086E+03 -0.61580357026E+02  0.37480925836E+03  0.47000000000E+01 0. -1.
         13    1    6    6    0    0 -0.14708150022E+03  0.21341660835E+03  0.18526654740E+03  0.31859584117E+03  0.00000000000E+00 0. -1.
        -14    1    6    6    0    0 -0.11607058171E+03  0.32739809571E+03  0.22992350583E+03  0.41656537488E+03  0.00000000000E+00 0.  1.
         -5    1    5    5    0  502 -0.33533490011E+03  0.49604766520E+03  0.29622401889E+03  0.66804456494E+03  0.47000000000E+01 0.  1.
</event>
<event>
12    1  0.9749377E-001  0.4164738E+03  0.7818608E-02  0.1038220E+00
         21   -1    0    0  501  502  0.00000000000E+00  0.00000000000E+00  0.81613949336E+03  0.81613949336E+03  0.00000000000E+00 0. -1.
         21   -1    0    0  502  503 -0.00000000000E+00 -0.00000000000E+00 -0.23116992348E+03  0.23116992348E+03  0.00000000000E+00 0.  1.
         -6    2    1    2    0  503  0.15516088842E+03  0.36214634812E+03  0.22135968094E+03  0.48439902117E+03  0.17440591910E+03 0.  0.
        -24    2    3    3    0    0  0.11355929981E+02  0.87538041944E+02  0.66337868787E+02  0.13778188349E+03  0.82409153923E+02 0.  0.
          6    2    1    2  501    0 -0.15516088842E+03 -0.36214634812E+03  0.36360988894E+03  0.56291039566E+03  0.17155489928E+03 0.  0.
         24    2    5    5    0    0 -0.65027423622E+02 -0.73173485796E+02  0.12043253764E+03  0.17459780146E+03  0.79984194100E+02 0.  0.
         14    1    6    6    0    0 -0.44628879495E+02 -0.75216255359E+02  0.12597723232E+03  0.15336063712E+03  0.00000000000E+00 0. -1.
        -13    1    6    6    0    0 -0.20398544127E+02  0.20427695628E+01 -0.55446946809E+01  0.21237164338E+02  0.00000000000E+00 0.  1.
          5    1    5    5  501    0 -0.90133464794E+02 -0.28897286232E+03  0.24317735129E+03  0.38831259420E+03  0.47000000000E+01 0. -1.
         11    1    4    4    0    0  0.10086242725E+02  0.99595169394E+02  0.38204110093E+02  0.10714702090E+03  0.00000000000E+00 0. -1.
        -12    1    4    4    0    0  0.12696872564E+01 -0.12057127450E+02  0.28133758694E+02  0.30634862596E+02  0.00000000000E+00 0.  1.
         -5    1    3    3    0  503  0.14380495843E+03  0.27460830617E+03  0.15502181216E+03  0.34661713768E+03  0.47000000000E+01 0.  1.
</event>
<event>
12    1  0.9749377E-001  0.3627463E+03  0.7818608E-02  0.1057502E+00
         21   -1    0    0  503  502  0.00000000000E+00  0.00000000000E+00  0.24507073701E+03  0.24507073701E+03  0.00000000000E+00 0. -1.
         21   -1    0    0  501  503 -0.00000000000E+00 -0.00000000000E+00 -0.99065836911E+03  0.99065836911E+03  0.00000000000E+00 0.  1.
          6    2    1    2  501    0 -0.17102039316E+03 -0.30681418261E+03  0.12337613156E+01  0.39399188646E+03  0.17845214178E+03 0.  0.
         24    2    3    3    0    0 -0.17234002663E+03 -0.28882319043E+03 -0.40546882972E+02  0.34824115456E+03  0.80671754069E+02 0.  0.
         -6    2    1    2    0  502  0.17102039316E+03  0.30681418261E+03 -0.74682139342E+03  0.84173721965E+03  0.16551868702E+03 0.  0.
        -24    2    5    5    0    0  0.74070662092E+02  0.21212949184E+03 -0.57831252131E+03  0.62544627902E+03  0.79071431932E+02 0.  0.
         12    1    4    4    0    0 -0.13183656709E+03 -0.14962357270E+03 -0.39344260295E+02  0.20326353522E+03  0.00000000000E+00 0. -1.
        -11    1    4    4    0    0 -0.40503459537E+02 -0.13919961773E+03 -0.12026226771E+01  0.14497761935E+03  0.00000000000E+00 0.  1.
          5    1    3    3  501    0  0.13196334750E+01 -0.17990992178E+02  0.41780644288E+02  0.45750731897E+02  0.47000000000E+01 0. -1.
         11    1    6    6    0    0  0.30317550440E+02  0.46186834075E+02 -0.71446790603E+02  0.90316229959E+02  0.00000000000E+00 0. -1.
        -12    1    6    6    0    0  0.43753111651E+02  0.16594265777E+03 -0.50686573070E+03  0.53513004906E+03  0.00000000000E+00 0.  1.
         -5    1    5    5    0  502  0.96949731065E+02  0.94684690762E+02 -0.16850887211E+03  0.21629094063E+03  0.47000000000E+01 0.  1.
</event>
<event>
12    1  0.9749377E-001  0.8221318E+03  0.7818608E-02  0.9528523E-01
         21   -1    0    0  501  502  0.00000000000E+00  0.00000000000E+00  0.18996257788E+04  0.18996257788E+04  0.00000000000E+00 0.  1.
         21   -1    0    0  502  503 -0.00000000000E+00 -0.00000000000E+00 -0.36773559957E+03  0.36773559957E+03  0.00000000000E+00 0. -1.
         -6    2    1    2    0  503 -0.50795510671E+03 -0.63668579568E+03  0.86900386959E+03  0.12034773809E+04  0.17263513025E+03 0.  0.
        -24    2    3    3    0    0 -0.49746585154E+03 -0.63377517428E+03  0.81774258563E+03  0.11508626926E+04  0.81478561428E+02 0.  0.
          6    2    1    2  501    0  0.50795510671E+03  0.63668579568E+03  0.66288630969E+03  0.10638839975E+04  0.17042214547E+03 0.  0.
         24    2    5    5    0    0  0.31892988545E+03  0.45449861390E+03  0.52017578216E+03  0.76503438958E+03  0.80059421789E+02 0.  0.
         12    1    6    6    0    0  0.82973161357E+02  0.65907724873E+02  0.10977624452E+03  0.15257521936E+03  0.00000000000E+00 0. -1.
        -11    1    6    6    0    0  0.23595672409E+03  0.38859088903E+03  0.41039953765E+03  0.61245917021E+03  0.00000000000E+00 0.  1.
          5    1    5    5  501    0  0.18902522126E+03  0.18218718178E+03  0.14271052753E+03  0.29884960791E+03  0.47000000000E+01 0. -1.
         11    1    4    4    0    0 -0.13367811978E+03 -0.11944118104E+03  0.19913045812E+03  0.26793464649E+03  0.00000000000E+00 0. -1.
        -12    1    4    4    0    0 -0.36378773176E+03 -0.51433399324E+03  0.61861212750E+03  0.88292804615E+03  0.00000000000E+00 0.  1.
         -5    1    3    3    0  503 -0.10489255171E+02 -0.29106214011E+01  0.51261283961E+02  0.52614688294E+02  0.47000000000E+01 0.  1.
</event>
<event>
12    1  0.9749377E-001  0.5603828E+03  0.7818608E-02  0.9991189E-01
         21   -1    0    0  501  502  0.00000000000E+00  0.00000000000E+00  0.20635442420E+03  0.20635442420E+03  0.00000000000E+00 0.  1.
         21   -1    0    0  502  503 -0.00000000000E+00 -0.00000000000E+00 -0.16793238163E+04  0.16793238163E+04  0.00000000000E+00 0. -1.
         -6    2    1    2    0  503  0.31573252531E+03  0.45265608281E+03 -0.55786907442E+03  0.80329633910E+03  0.17170482631E+03 0.  0.
        -24    2    3    3    0    0  0.10841756320E+03  0.25586218312E+03 -0.23989421845E+03  0.37570140052E+03  0.79890434643E+02 0.  0.
          6    2    1    2  501    0 -0.31573252531E+03 -0.45265608281E+03 -0.91510031773E+03  0.10823819015E+04  0.17192275080E+03 0.  0.
         24    2    5    5    0    0 -0.12903645048E+03 -0.16780706992E+03 -0.24793301408E+03  0.33329666895E+03  0.69327280290E+02 0.  0.
         12    1    6    6    0    0 -0.95687005436E+02 -0.10404006923E+03 -0.20654536277E+03  0.25028249219E+03  0.00000000000E+00 0. -1.
        -11    1    6    6    0    0 -0.33349445044E+02 -0.63767000689E+02 -0.41387651309E+02  0.83014176756E+02  0.00000000000E+00 0.  1.
          5    1    5    5  501    0 -0.18669607483E+03 -0.28484901289E+03 -0.66716730365E+03  0.74908523251E+03  0.47000000000E+01 0. -1.
         11    1    4    4    0    0  0.17140476658E+02  0.90189946559E+02 -0.38920698853E+02  0.99713806464E+02  0.00000000000E+00 0. -1.
        -12    1    4    4    0    0  0.91277086538E+02  0.16567223656E+03 -0.20097351959E+03  0.27598759405E+03  0.00000000000E+00 0.  1.
         -5    1    3    3    0  503  0.20731496211E+03  0.19679389969E+03 -0.31797485597E+03  0.42759493858E+03  0.47000000000E+01 0.  1.
</event>
<event>
12    1  0.9749377E-001  0.4367558E+03  0.7818608E-02  0.1031747E+00
         21   -1    0    0  503  502  0.00000000000E+00  0.00000000000E+00  0.37479401784E+03  0.37479401784E+03  0.00000000000E+00 0. -1.
         21   -1    0    0  501  503 -0.00000000000E+00 -0.00000000000E+00 -0.55612820890E+03  0.55612820890E+03  0.00000000000E+00 0.  1.
          6    2    1    2  501    0  0.39197715340E+03  0.13695445819E+03 -0.17312012661E+03  0.48132502931E+03  0.17117416041E+03 0.  0.
         24    2    3    3    0    0  0.11296987981E+03 -0.10921806650E+02 -0.23076995471E+02  0.13168595880E+03  0.62667092011E+02 0.  0.
         -6    2    1    2    0  502 -0.39197715340E+03 -0.13695445819E+03 -0.82140644455E+01  0.44959719743E+03  0.17224272605E+03 0.  0.
        -24    2    5    5    0    0 -0.38308484132E+03 -0.15312845315E+03 -0.29330821841E+02  0.42115991961E+03  0.79454779371E+02 0.  0.
         12    1    4    4    0    0  0.10553454530E+03 -0.26492895672E+02 -0.30347019421E+02  0.11296174291E+03  0.00000000000E+00 0. -1.
        -11    1    4    4    0    0  0.74353345061E+01  0.15571089022E+02  0.72700239504E+01  0.18724215893E+02  0.00000000000E+00 0.  1.
          5    1    3    3  501    0  0.27900727360E+03  0.14787626484E+03 -0.15004313114E+03  0.34963907051E+03  0.47000000000E+01 0. -1.
         13    1    6    6    0    0 -0.32615168876E+02 -0.11379573996E+02 -0.25763894980E+02  0.43093180779E+02  0.00000000000E+00 0. -1.
        -14    1    6    6    0    0 -0.35046967245E+03 -0.14174887915E+03 -0.35669268604E+01  0.37806673884E+03  0.00000000000E+00 0.  1.
         -5    1    5    5    0  502 -0.88923120804E+01  0.16173994955E+02  0.21116757395E+02  0.28437277820E+02  0.47000000000E+01 0.  1.
</event>
<event>
12    1  0.9749377E-001  0.8077438E+03  0.7818608E-02  0.9548875E-01
         21   -1    0    0  501  502  0.00000000000E+00  0.00000000000E+00  0.71423112263E+03  0.71423112263E+03  0.00000000000E+00 0.  1.
         21   -1    0    0  502  503 -0.00000000000E+00 -0.00000000000E+00 -0.98220646007E+03  0.98220646007E+03  0.00000000000E+00 0. -1.
         -6    2    1    2    0  503 -0.13715348074E+03  0.78830895048E+03  0.46093951062E+02  0.81980063708E+03  0.17235531190E+03 0.  0.
        -24    2    3    3    0    0 -0.45073191516E+02  0.61354701505E+03  0.47765477841E+02  0.62220155372E+03  0.79885545102E+02 0.  0.
          6    2    1    2  501    0  0.13715348074E+03 -0.78830895048E+03 -0.31406928850E+03  0.87663694563E+03  0.17207770855E+03 0.  0.
         24    2    5    5    0    0  0.58542396565E+02 -0.44220208285E+03 -0.10242536434E+03  0.46337563967E+03  0.72499199307E+02 0.  0.
         12    1    6    6    0    0  0.22678663047E+02 -0.30570739121E+03 -0.99243840804E+02  0.32221215175E+03  0.00000000000E+00 0. -1.
        -11    1    6    6    0    0  0.35863733518E+02 -0.13649469164E+03 -0.31815235392E+01  0.14116348791E+03  0.00000000000E+00 0.  1.
          5    1    5    5  501    0  0.78611084176E+02 -0.34610686763E+03 -0.21164392416E+03  0.41326130596E+03  0.47000000000E+01 0. -1.
         13    1    4    4    0    0 -0.17825314340E+02  0.30461729948E+03  0.63492185877E+02  0.31167402626E+03  0.00000000000E+00 0. -1.
        -14    1    4    4    0    0 -0.27247877176E+02  0.30892971556E+03 -0.15726708036E+02  0.31052752747E+03  0.00000000000E+00 0.  1.
         -5    1    3    3    0  503 -0.92080289225E+02  0.17476193543E+03 -0.16715267785E+01  0.19759908335E+03  0.47000000000E+01 0.  1.
</event>
<event>
12    1  0.9749377E-001  0.6801417E+03  0.7818608E-02  0.9751808E-01
         21   -1    0    0  503  502  0.00000000000E+00  0.00000000000E+00  0.71245191004E+03  0.71245191004E+03  0.00000000000E+00 0.  1.
         21   -1    0    0  501  503 -0.00000000000E+00 -0.00000000000E+00 -0.99759719752E+03  0.99759719752E+03  0.00000000000E+00 0. -1.
          6    2    1    2  501    0  0.30858920735E+03 -0.58673387005E+03 -0.64152493969E+03  0.93806892220E+03  0.17010326686E+03 0.  0.
         24    2    3    3    0    0  0.28278621054E+03 -0.58753670698E+03 -0.60366920706E+03  0.89200824825E+03  0.78069075085E+02 0.  0.
         -6    2    1    2    0  502 -0.30858920735E+03  0.58673387005E+03  0.35637965221E+03  0.77198018536E+03  0.17164794471E+03 0.  0.
        -24    2    5    5    0    0 -0.32391013452E+03  0.53396836110E+03  0.32316712517E+03  0.70760556539E+03  0.78921856798E+02 0.  0.
         14    1    4    4    0    0  0.28508149003E+03 -0.58444166014E+03 -0.59078983853E+03  0.87856482024E+03  0.00000000000E+00 0. -1.
        -13    1    4    4    0    0 -0.22952794884E+01 -0.30950468366E+01 -0.12879368533E+02  0.13443428010E+02  0.00000000000E+00 0.  1.
          5    1    3    3  501    0  0.25802996815E+02  0.80283692255E+00 -0.37855732628E+02  0.46060673949E+02  0.47000000000E+01 0. -1.
         11    1    6    6    0    0 -0.44179770661E+02  0.85078337616E+02  0.19878988778E+02  0.97904799995E+02  0.00000000000E+00 0. -1.
        -12    1    6    6    0    0 -0.27973036386E+03  0.44889002349E+03  0.30328813639E+03  0.60970076540E+03  0.00000000000E+00 0.  1.
         -5    1    5    5    0  502  0.15320927167E+02  0.52765508952E+02  0.33212527042E+02  0.64374619974E+02  0.47000000000E+01 0.  1.
</event>
<event>
12    1  0.9749377E-001  0.2469901E+03  0.7818608E-02  0.1115222E+00
         21   -1    0    0  501  502  0.00000000000E+00  0.00000000000E+00  0.10460291200E+04  0.10460291200E+04  0.00000000000E+00 0.  1.
         21   -1    0    0  502  503 -0.00000000000E+00 -0.00000000000E+00 -0.65500765190E+02  0.65500765190E+02  0.00000000000E+00 0. -1.
         -6    2    1    2    0  503 -0.18106289305E+03 -0.59126028232E+02  0.38321385614E+03  0.46129954512E+03  0.17223458519E+03 0.  0.
        -24    2    3    3    0    0 -0.25142487117E+02  0.34018971888E+01  0.17834345704E+03  0.19631863095E+03  0.78044209444E+02 0.  0.
          6    2    1    2  501    0  0.18106289305E+03  0.59126028232E+02  0.59731449865E+03  0.65023034005E+03  0.17243905117E+03 0.  0.
         24    2    5    5    0    0  0.98681931340E+02  0.94963818382E+02  0.29775799030E+03  0.33745700079E+03  0.80381317617E+02 0.  0.
         12    1    6    6    0    0  0.44187389215E+02  0.94003797011E+02  0.18330529077E+03  0.21068950814E+03  0.00000000000E+00 0. -1.
        -11    1    6    6    0    0  0.54494542125E+02  0.96002137084E+00  0.11445269953E+03  0.12676749265E+03  0.00000000000E+00 0.  1.
          5    1    5    5  501    0  0.82380961713E+02 -0.35837790150E+02  0.29955650835E+03  0.31277333926E+03  0.47000000000E+01 0. -1.
         11    1    4    4    0    0 -0.61120012976E+01  0.37792235123E+02  0.12009761570E+03  0.12605176275E+03  0.00000000000E+00 0. -1.
        -12    1    4    4    0    0 -0.19030485819E+02 -0.34390337935E+02  0.58245841338E+02  0.70266868202E+02  0.00000000000E+00 0.  1.
         -5    1    3    3    0  503 -0.15592040594E+03 -0.62527925420E+02  0.20487039909E+03  0.26498091416E+03  0.47000000000E+01 0.  1.
</event>
<event>
12    1  0.9749377E-001  0.2937251E+03  0.7818608E-02  0.1088420E+00
         21   -1    0    0  501  502  0.00000000000E+00  0.00000000000E+00  0.18976625419E+03  0.18976625419E+03  0.00000000000E+00 0.  1.
         21   -1    0    0  502  503 -0.00000000000E+00 -0.00000000000E+00 -0.57057609199E+03  0.57057609199E+03  0.00000000000E+00 0. -1.
         -6    2    1    2    0  503 -0.13204198698E+03 -0.24370263396E+03 -0.14220570311E+03  0.35612883925E+03  0.17256659012E+03 0.  0.
        -24    2    3    3    0    0 -0.80840834319E+02 -0.72625769934E+02 -0.10418751115E+03  0.17349170076E+03  0.86224067403E+02 0.  0.
          6    2    1    2  501    0  0.13204198698E+03  0.24370263396E+03 -0.23860413469E+03  0.40421350693E+03  0.17213531297E+03 0.  0.
         24    2    5    5    0    0  0.82765562493E+02  0.21742687280E+03 -0.24627538402E+03  0.34764920987E+03  0.77998878196E+02 0.  0.
         12    1    6    6    0    0  0.95451265499E+02  0.18119997798E+03 -0.22292496619E+03  0.30272085599E+03  0.00000000000E+00 0. -1.
        -11    1    6    6    0    0 -0.12685703006E+02  0.36226894821E+02 -0.23350417835E+02  0.44928353878E+02  0.00000000000E+00 0.  1.
          5    1    5    5  501    0  0.49276424491E+02  0.26275761160E+02  0.76712493357E+01  0.56564297057E+02  0.47000000000E+01 0. -1.
         13    1    4    4    0    0 -0.53938789788E+02 -0.39202018821E+02 -0.67432503374E+01  0.67019868312E+02  0.00000000000E+00 0. -1.
        -14    1    4    4    0    0 -0.26902044531E+02 -0.33423751113E+02 -0.97444260814E+02  0.10647183244E+03  0.00000000000E+00 0.  1.
         -5    1    3    3    0  503 -0.51201152665E+02 -0.17107686402E+03 -0.38018191960E+02  0.18263713850E+03  0.47000000000E+01 0.  1.
</event>
<event>
12    1  0.9749377E-001  0.1456114E+03  0.7818608E-02  0.1205972E+00
         21   -1    0    0  501  502  0.00000000000E+00  0.00000000000E+00  0.86371361588E+02  0.86371361588E+02  0.00000000000E+00 0. -1.
         21   -1    0    0  502  503 -0.00000000000E+00 -0.00000000000E+00 -0.39116482124E+03  0.39116482124E+03  0.00000000000E+00 0. -1.
         -6    2    1    2    0  503  0.49723076843E+02 -0.33812232391E+02 -0.11719719591E+03  0.21605641642E+03  0.17125869588E+03 0.  0.
        -24    2    3    3    0    0  0.64730180808E+02  0.12253032736E+02 -0.17412921112E+02  0.10503293549E+03  0.79928559334E+02 0.  0.
          6    2    1    2  501    0 -0.49723076843E+02  0.33812232391E+02 -0.18759626374E+03  0.26147976640E+03  0.17194085797E+03 0.  0.
         24    2    5    5    0    0 -0.61201046380E+02 -0.25763801625E+02 -0.55309887714E+02  0.11586787508E+03  0.77180562609E+02 0.  0.
         14    1    6    6    0    0 -0.18767304817E+02 -0.42977452888E+02 -0.39564279187E+01  0.47063005734E+02  0.00000000000E+00 0. -1.
        -13    1    6    6    0    0 -0.42433741563E+02  0.17213651263E+02 -0.51353459795E+02  0.68804869347E+02  0.00000000000E+00 0.  1.
          5    1    5    5  501    0  0.11477969537E+02  0.59576034016E+02 -0.13228637602E+03  0.14561189132E+03  0.47000000000E+01 0. -1.
         11    1    4    4    0    0  0.10171882835E+02  0.29964561314E+02 -0.32869100245E+02  0.45625868606E+02  0.00000000000E+00 0. -1.
        -12    1    4    4    0    0  0.54558297973E+02 -0.17711528578E+02  0.15456179133E+02  0.59407066883E+02  0.00000000000E+00 0.  1.
         -5    1    3    3    0  503 -0.15007103964E+02 -0.46065265127E+02 -0.99784274798E+02  0.11102348093E+03  0.47000000000E+01 0.  1.
</event>
<event>
12    1  0.9749377E-001  0.2848101E+03  0.7818608E-02  0.1093090E+00
         21   -1    0    0  501  502  0.00000000000E+00  0.00000000000E+00  0.90500958131E+03  0.90500958131E+03  0.00000000000E+00 0. -1.
         21   -1    0    0  502  503 -0.00000000000E+00 -0.00000000000E+00 -0.10975902841E+03  0.10975902841E+03  0.00000000000E+00 0.  1.
         -6    2    1    2    0  503  0.10414578256E+03 -0.21899979734E+03  0.56590072085E+03  0.63923105014E+03  0.17194607975E+03 0.  0.
        -24    2    3    3    0    0  0.11998366407E+03 -0.97293583422E+02  0.35585588615E+03  0.39591199297E+03  0.79061833094E+02 0.  0.
          6    2    1    2  501    0 -0.10414578256E+03  0.21899979734E+03  0.22934983205E+03  0.37553755959E+03  0.17210420662E+03 0.  0.
         24    2    5    5    0    0 -0.55186304922E+02  0.20983050527E+03  0.22934663558E+03  0.32550560602E+03  0.79244249647E+02 0.  0.
         14    1    6    6    0    0 -0.10459670029E+02  0.15237705129E+03  0.12047706868E+03  0.19453250251E+03  0.00000000000E+00 0. -1.
        -13    1    6    6    0    0 -0.44726634894E+02  0.57453453982E+02  0.10886956691E+03  0.13097310351E+03  0.00000000000E+00 0.  1.
          5    1    5    5  501    0 -0.48959477641E+02  0.91692920724E+01  0.31964713561E-02  0.50031953572E+02  0.47000000000E+01 0. -1.
         13    1    4    4    0    0  0.57176495058E+01 -0.45336851340E+02  0.12575659267E+03  0.13380150300E+03  0.00000000000E+00 0. -1.
        -14    1    4    4    0    0  0.11426601456E+03 -0.51956732082E+02  0.23009929348E+03  0.26211048997E+03  0.00000000000E+00 0.  1.
         -5    1    3    3    0  503 -0.15837881502E+02 -0.12170621392E+03  0.21004483470E+03  0.24331905717E+03  0.47000000000E+01 0.  1.
</event>
<event>
12    1  0.9749377E-001  0.5318809E+03  0.7818608E-02  0.1005777E+00
         21   -1    0    0  501  502  0.00000000000E+00  0.00000000000E+00  0.35580039484E+03  0.35580039484E+03  0.00000000000E+00 0.  1.
         21   -1    0    0  502  503 -0.00000000000E+00 -0.00000000000E+00 -0.97254150384E+03  0.97254150384E+03  0.00000000000E+00 0. -1.
         -6    2    1    2    0  503 -0.22210599709E+03  0.46835134692E+03 -0.61675797891E+02  0.54953614646E+03  0.17176150359E+03 0.  0.
        -24    2    3    3    0    0 -0.89079559475E+02  0.11003356455E+03 -0.33329154357E+02  0.16624345351E+03  0.80520184189E+02 0.  0.
          6    2    1    2  501    0  0.22210599709E+03 -0.46835134692E+03 -0.55506531111E+03  0.77880575222E+03  0.17250171591E+03 0.  0.
         24    2    5    5    0    0  0.20123898264E+03 -0.41714066490E+03 -0.40915393276E+03  0.62269621832E+03  0.76421051828E+02 0.  0.
         14    1    6    6    0    0  0.14357053593E+03 -0.35547620972E+03 -0.35425169088E+03  0.52198668082E+03  0.00000000000E+00 0. -1.
        -13    1    6    6    0    0  0.57668446709E+02 -0.61664455176E+02 -0.54902241883E+02  0.10070953749E+03  0.00000000000E+00 0.  1.
          5    1    5    5  501    0  0.20867014447E+02 -0.51210682018E+02 -0.14591137835E+03  0.15610953391E+03  0.47000000000E+01 0. -1.
         11    1    4    4    0    0 -0.67544233857E+02  0.27511731402E+02  0.42276914062E+01  0.73054721043E+02  0.00000000000E+00 0. -1.
        -12    1    4    4    0    0 -0.21535325617E+02  0.82521833147E+02 -0.37556845763E+02  0.93188732468E+02  0.00000000000E+00 0.  1.
         -5    1    3    3    0  503 -0.13302643762E+03  0.35831778237E+03 -0.28346643535E+02  0.38329269295E+03  0.47000000000E+01 0.  1.
</event>
<event>
12    1  0.9749377E-001  0.3932582E+03  0.7818608E-02  0.1046139E+00
         21   -1    0    0  503  502  0.00000000000E+00  0.00000000000E+00  0.38248096016E+03  0.38248096016E+03  0.00000000000E+00 0.  1.
         21   -1    0    0  501  503 -0.00000000000E+00 -0.00000000000E+00 -0.44331043284E+03  0.44331043284E+03  0.00000000000E+00 0. -1.
          6    2    1    2  501    0  0.19149833532E+03  0.32199481562E+03 -0.22984088791E+02  0.41189912682E+03  0.16964771920E+03 0.  0.
         24    2    3    3    0    0  0.72085830993E+02  0.72884703509E+02 -0.37433632238E+02  0.13522951619E+03  0.79857361533E+02 0.  0.
         -6    2    1    2    0  502 -0.19149833532E+03 -0.32199481562E+03 -0.37845383894E+02  0.41389226618E+03  0.17182043303E+03 0.  0.
        -24    2    5    5    0    0 -0.14707106172E+03 -0.19242982481E+03 -0.85361689312E+02  0.26883793580E+03  0.79549249209E+02 0.  0.
         14    1    4    4    0    0  0.59681259132E+02  0.69054133839E+01 -0.31489622186E+02  0.67831657292E+02  0.00000000000E+00 0. -1.
        -13    1    4    4    0    0  0.12404571860E+02  0.65979290125E+02 -0.59440100514E+01  0.67397858897E+02  0.00000000000E+00 0.  1.
          5    1    3    3  501    0  0.11941250432E+03  0.24911011211E+03  0.14449543447E+02  0.27666961063E+03  0.47000000000E+01 0. -1.
         11    1    6    6    0    0  0.10345560667E+01 -0.14138928462E+02 -0.25938380019E+02  0.29559755789E+02  0.00000000000E+00 0. -1.
        -12    1    6    6    0    0 -0.14810561778E+03 -0.17829089635E+03 -0.59423309293E+02  0.23927818001E+03  0.00000000000E+00 0.  1.
         -5    1    5    5    0  502 -0.44427273600E+02 -0.12956499080E+03  0.47516305418E+02  0.14505433038E+03  0.47000000000E+01 0.  1.
</event>
<event>
12    1  0.9749377E-001  0.2093557E+03  0.7818608E-02  0.1142077E+00
         21   -1    0    0  501  502  0.00000000000E+00  0.00000000000E+00  0.53989033570E+02  0.53989033570E+02  0.00000000000E+00 0.  1.
         21   -1    0    0  502  503 -0.00000000000E+00 -0.00000000000E+00 -0.17775162270E+04  0.17775162270E+04  0.00000000000E+00 0. -1.
         -6    2    1    2    0  503 -0.15237945085E+03 -0.96512971047E+02 -0.31635687915E+03  0.40303229565E+03  0.17268209441E+03 0.  0.
        -24    2    3    3    0    0 -0.53825770512E+02  0.70625567064E+01 -0.79407817839E+02  0.12625139762E+03  0.81772370568E+02 0.  0.
          6    2    1    2  501    0  0.15237945085E+03  0.96512971047E+02 -0.14071703142E+04  0.14284729649E+04  0.16695049416E+03 0.  0.
         24    2    5    5    0    0  0.89856128959E+02  0.46528186969E+02 -0.45349034010E+03  0.47142791501E+03  0.79698145448E+02 0.  0.
         12    1    6    6    0    0  0.36899894329E+02  0.56060777309E+02 -0.16797721233E+03  0.18088879682E+03  0.00000000000E+00 0. -1.
        -11    1    6    6    0    0  0.52956234630E+02 -0.95325903398E+01 -0.28551312778E+03  0.29053911819E+03  0.00000000000E+00 0.  1.
          5    1    5    5  501    0  0.62523321889E+02  0.49984784078E+02 -0.95367997414E+03  0.95704504988E+03  0.47000000000E+01 0. -1.
         11    1    4    4    0    0 -0.13202581042E+02 -0.21265319643E+02 -0.71935669610E+02  0.76166019510E+02  0.00000000000E+00 0. -1.
        -12    1    4    4    0    0 -0.40623189470E+02  0.28327876349E+02 -0.74721482282E+01  0.50085378109E+02  0.00000000000E+00 0.  1.
         -5    1    3    3    0  503 -0.98553680336E+02 -0.10357552775E+03 -0.23694906131E+03  0.27678089803E+03  0.47000000000E+01 0.  1.
</event>
<event>
12    1  0.9749377E-001  0.1736868E+03  0.7818608E-02  0.1174057E+00
         21   -1    0    0  501  502  0.00000000000E+00  0.00000000000E+00  0.25049219791E+02  0.25049219791E+02  0.00000000000E+00 0. -1.
         21   -1    0    0  502  503 -0.00000000000E+00 -0.00000000000E+00 -0.18754329473E+04  0.18754329473E+04  0.00000000000E+00 0.  1.
         -6    2    1    2    0  503  0.10647028982E+03 -0.74622773477E+02 -0.10149484731E+04  0.10375654259E+04  0.17180549759E+03 0.  0.
        -24    2    3    3    0    0  0.78913891810E+01 -0.15792248015E+02 -0.21926430274E+03  0.23362872481E+03  0.78701191079E+02 0.  0.
          6    2    1    2  501    0 -0.10647028982E+03  0.74622773477E+02 -0.83543525434E+03  0.86291674114E+03  0.17253624840E+03 0.  0.
         24    2    5    5    0    0 -0.67926975207E+02 -0.88846616413E+01 -0.61642752287E+03  0.62533400763E+03  0.79791722424E+02 0.  0.
         12    1    6    6    0    0 -0.50025831345E+02  0.23544415521E+01 -0.14448545985E+03  0.15291885202E+03  0.00000000000E+00 0. -1.
        -11    1    6    6    0    0 -0.17901143862E+02 -0.11239103193E+02 -0.47194206303E+03  0.47241515561E+03  0.00000000000E+00 0.  1.
          5    1    5    5  501    0 -0.38543314609E+02  0.83507435118E+02 -0.21900773146E+03  0.23758273351E+03  0.47000000000E+01 0. -1.
         13    1    4    4    0    0  0.36254258596E+02  0.88374674945E+00 -0.53514140561E+02  0.64644531978E+02  0.00000000000E+00 0. -1.
        -14    1    4    4    0    0 -0.28362869415E+02 -0.16675994764E+02 -0.16575016218E+03  0.16898419283E+03  0.00000000000E+00 0.  1.
         -5    1    3    3    0  503  0.98578900635E+02 -0.58830525462E+02 -0.79568417039E+03  0.80393670111E+03  0.47000000000E+01 0.  1.
</event>
<event>
12    1  0.9749377E-001  0.1361886E+03  0.7818608E-02  0.1218551E+00
         21   -1    0    0  503  502  0.00000000000E+00  0.00000000000E+00  0.82513878096E+02  0.82513878096E+02  0.00000000000E+00 0. -1.
         21   -1    0    0  501  503 -0.00000000000E+00 -0.00000000000E+00 -0.45799302073E+03  0.45799302073E+03  0.00000000000E+00 0. -1.
          6    2    1    2  501    0  0.46733088819E+02 -0.17468683187E+02 -0.78016280521E+02  0.19345648215E+03  0.16985209442E+03 0.  0.
         24    2    3    3    0    0  0.83618893827E+02  0.23421929656E+02 -0.73307156955E+02  0.13798693488E+03  0.78267162617E+02 0.  0.
         -6    2    1    2    0  502 -0.46733088819E+02  0.17468683187E+02 -0.29746286211E+03  0.34705041667E+03  0.17167032618E+03 0.  0.
        -24    2    5    5    0    0  0.22572457103E+02  0.40179287960E+02 -0.22443658179E+03  0.24373556836E+03  0.83134571839E+02 0.  0.
         14    1    4    4    0    0  0.61783063086E+02  0.13650280524E+02 -0.89129860176E+02  0.10930511890E+03  0.00000000000E+00 0. -1.
        -13    1    4    4    0    0  0.21835830741E+02  0.97716491320E+01  0.15822703221E+02  0.28681815984E+02  0.00000000000E+00 0.  1.
          5    1    3    3  501    0 -0.36885805007E+02 -0.40890612843E+02 -0.47091235664E+01  0.55469547271E+02  0.47000000000E+01 0. -1.
         13    1    6    6    0    0  0.24990446086E+02  0.10590300741E+02 -0.12767599269E+02  0.29994807158E+02  0.00000000000E+00 0. -1.
        -14    1    6    6    0    0 -0.24179889827E+01  0.29588987219E+02 -0.21166898252E+03  0.21374076120E+03  0.00000000000E+00 0.  1.
         -5    1    5    5    0  502 -0.69305545922E+02 -0.22710604773E+02 -0.73026280318E+02  0.10331484831E+03  0.47000000000E+01 0.  1.
</event>
<event>
12    1  0.9749377E-001  0.5296694E+03  0.7818608E-02  0.1006312E+00
         21   -1    0    0  503  502  0.00000000000E+00  0.00000000000E+00  0.16887046609E+03  0.16887046609E+03  0.00000000000E+00 0. -1.
         21   -1    0    0  501  503 -0.00000000000E+00 -0.00000000000E+00 -0.17261806395E+04  0.17261806395E+04  0.00000000000E+00 0.  1.
          6    2    1    2  501    0 -0.50993559237E+03 -0.25732664527E+02 -0.84152645334E+03  0.99922247644E+03  0.17199507950E+03 0.  0.
         24    2    3    3    0    0 -0.32779446711E+03  0.26788196989E+02 -0.63085316226E+03  0.71578084934E+03  0.78738121470E+02 0.  0.
         -6    2    1    2    0  502  0.50993559237E+03  0.25732664527E+02 -0.71578372005E+03  0.89582862912E+03  0.17165698492E+03 0.  0.
        -24    2    5    5    0    0  0.40048963925E+03 -0.40721834520E+02 -0.55301766721E+03  0.68868255734E+03  0.80030654011E+02 0.  0.
         12    1    4    4    0    0 -0.19630230722E+02  0.22442807297E+02 -0.62347723116E+02  0.69110521162E+02  0.00000000000E+00 0. -1.
        -11    1    4    4    0    0 -0.30816423639E+03  0.43453896925E+01 -0.56850543915E+03  0.64667032818E+03  0.00000000000E+00 0.  1.
          5    1    3    3  501    0 -0.18214112526E+03 -0.52520861516E+02 -0.21067329107E+03  0.28344162711E+03  0.47000000000E+01 0. -1.
         13    1    6    6    0    0  0.23726269787E+03 -0.99099288534E+01 -0.38549165141E+03  0.45276440651E+03  0.00000000000E+00 0. -1.
        -14    1    6    6    0    0  0.16322694137E+03 -0.30811905666E+02 -0.16752601580E+03  0.23591815083E+03  0.00000000000E+00 0.  1.
         -5    1    5    5    0  502  0.10944595313E+03  0.66454499046E+02 -0.16276605284E+03  0.20714607178E+03  0.47000000000E+01 0.  1.
</event>
<event>
12    1  0.9749377E-001  0.8743551E+03  0.7818608E-02  0.9458219E-01
         21   -1    0    0  503  502  0.00000000000E+00  0.00000000000E+00  0.12439642118E+04  0.12439642118E+04  0.00000000000E+00 0. -1.
         21   -1    0    0  501  503 -0.00000000000E+00 -0.00000000000E+00 -0.64079881547E+03  0.64079881547E+03  0.00000000000E+00 0.  1.
          6    2    1    2  501    0  0.53222680990E+02 -0.86367674871E+03  0.15885873136E+03  0.89662885566E+03  0.17302320145E+03 0.  0.
         24    2    3    3    0    0 -0.46180114364E+02 -0.40635177395E+03  0.99630734111E+02  0.42486928350E+03  0.57734372175E+02 0.  0.
         -6    2    1    2    0  502 -0.53222680990E+02  0.86367674871E+03  0.44430666494E+03  0.98813417158E+03  0.17386934321E+03 0.  0.
        -24    2    5    5    0    0 -0.38968201158E+02  0.76355826296E+03  0.44245085125E+03  0.88687986092E+03  0.79078380730E+02 0.  0.
         12    1    4    4    0    0 -0.52242732328E+02 -0.31732855738E+03  0.59619632450E+02  0.32707983273E+03  0.00000000000E+00 0. -1.
        -11    1    4    4    0    0  0.60626179645E+01 -0.89023216569E+02  0.40011101661E+02  0.97789450765E+02  0.00000000000E+00 0.  1.
          5    1    3    3  501    0  0.99402795353E+02 -0.45732497476E+03  0.59227997249E+02  0.47175957216E+03  0.47000000000E+01 0. -1.
         11    1    6    6    0    0 -0.45643886399E+02  0.20506931197E+03  0.12334818285E+03  0.24362175866E+03  0.00000000000E+00 0. -1.
        -12    1    6    6    0    0  0.66756852411E+01  0.55848895098E+03  0.31910266839E+03  0.64325810226E+03  0.00000000000E+00 0.  1.
         -5    1    5    5    0  502 -0.14254479832E+02  0.10011848575E+03  0.18558136980E+01  0.10125431067E+03  0.47000000000E+01 0.  1.
</event>
<event>
12    1  0.9749377E-001  0.8093222E+03  0.7818608E-02  0.9546621E-01
         21   -1    0    0  501  502  0.00000000000E+00  0.00000000000E+00  0.85583049101E+03  0.85583049101E+03  0.00000000000E+00 0.  1.
         21   -1    0    0  502  503 -0.00000000000E+00 -0.00000000000E+00 -0.17487754027E+04  0.17487754027E+04  0.00000000000E+00 0. -1.
         -6    2    1    2    0  503  0.79409105239E+03 -0.11335663594E+03  0.51913462375E+03  0.97120114675E+03  0.17407062786E+03 0.  0.
        -24    2    3    3    0    0  0.66916964038E+03 -0.67640538540E+02  0.48662748507E+03  0.83418244436E+03  0.81797256648E+02 0.  0.
          6    2    1    2  501    0 -0.79409105239E+03  0.11335663594E+03 -0.14120795354E+04  0.16334047469E+04  0.17496321489E+03 0.  0.
         24    2    5    5    0    0 -0.47014215235E+03  0.13171402191E+03 -0.90805163394E+03  0.10339499122E+04  0.78181992732E+02 0.  0.
         14    1    6    6    0    0 -0.39382950557E+02  0.15170717057E+02 -0.13387570266E+03  0.14037047842E+03  0.00000000000E+00 0. -1.
        -13    1    6    6    0    0 -0.43075920180E+03  0.11654330485E+03 -0.77417593128E+03  0.89357943375E+03  0.00000000000E+00 0.  1.
          5    1    5    5  501    0 -0.32394890003E+03 -0.18357385972E+02 -0.50402790146E+03  0.59945483475E+03  0.47000000000E+01 0. -1.
         11    1    4    4    0    0  0.58520470783E+03 -0.58268331388E+02  0.38918019032E+03  0.70520987589E+03  0.00000000000E+00 0. -1.
        -12    1    4    4    0    0  0.83964932544E+02 -0.93722071519E+01  0.97447294748E+02  0.12897256847E+03  0.00000000000E+00 0.  1.
         -5    1    3    3    0  503  0.12492141201E+03 -0.45716097400E+02  0.32507138679E+02  0.13701870239E+03  0.47000000000E+01 0.  1.
</event>
<event>
12    1  0.9749377E-001  0.2443885E+03  0.7818608E-02  0.1116903E+00
         21   -1    0    0  501  502  0.00000000000E+00  0.00000000000E+00  0.96919423223E+03  0.96919423223E+03  0.00000000000E+00 0. -1.
         21   -1    0    0  502  503 -0.00000000000E+00 -0.00000000000E+00 -0.10027349004E+03  0.10027349004E+03  0.00000000000E+00 0.  1.
         -6    2    1    2    0  503  0.82870124701E+02  0.17951142673E+03  0.72486348125E+03  0.76986566875E+03  0.16785193351E+03 0.  0.
        -24    2    3    3    0    0  0.52901606166E+02  0.20653271799E+02  0.26553273588E+03  0.28289457194E+03  0.79350913276E+02 0.  0.
          6    2    1    2  501    0 -0.82870124701E+02 -0.17951142673E+03  0.14405726093E+03  0.29960205352E+03  0.17296556349E+03 0.  0.
         24    2    5    5    0    0  0.10945032094E+02 -0.32001503928E+02  0.79214444102E+02  0.11308893906E+03  0.73282262542E+02 0.  0.
         12    1    6    6    0    0 -0.18285666644E+02 -0.38454026456E+02  0.69702973962E+02  0.81679754740E+02  0.00000000000E+00 0. -1.
        -11    1    6    6    0    0  0.29230698738E+02  0.64525225287E+01  0.95114701400E+01  0.31409184324E+02  0.00000000000E+00 0.  1.
          5    1    5    5  501    0 -0.93815156795E+02 -0.14750992280E+03  0.64842816831E+02  0.18651311445E+03  0.47000000000E+01 0. -1.
         11    1    4    4    0    0 -0.29184845797E+01  0.23578463962E+02  0.17421428140E+03  0.17582683913E+03  0.00000000000E+00 0. -1.
        -12    1    4    4    0    0  0.55820090746E+02 -0.29251921630E+01  0.91318454479E+02  0.10706773281E+03  0.00000000000E+00 0.  1.
         -5    1    3    3    0  503  0.29968518535E+02  0.15885815493E+03  0.45933074537E+03  0.48697109681E+03  0.47000000000E+01 0.  1.
</event>
<event>
12    1  0.9749377E-001  0.3998889E+03  0.7818608E-02  0.1043818E+00
         21   -1    0    0  503  502  0.00000000000E+00  0.00000000000E+00  0.17740569091E+04  0.17740569091E+04  0.00000000000E+00 0. -1.
         21   -1    0    0  501  503 -0.00000000000E+00 -0.00000000000E+00 -0.10808565842E+03  0.10808565842E+03  0.00000000000E+00 0.  1.
          6    2    1    2  501    0  0.36510485551E+03 -0.92155165527E+02  0.53607768339E+03  0.67907104606E+03  0.17878499075E+03 0.  0.
         24    2    3    3    0    0  0.24387657335E+03 -0.74439963927E+02  0.24407091033E+03  0.36236902479E+03  0.81997619472E+02 0.  0.
         -6    2    1    2    0  502 -0.36510485551E+03  0.92155165527E+02  0.11298935672E+04  0.12030715214E+04  0.17008081104E+03 0.  0.
        -24    2    5    5    0    0 -0.16965749768E+03 -0.20313509953E+02  0.47792629975E+03  0.51319306797E+03  0.75876688177E+02 0.  0.
         12    1    4    4    0    0  0.24659706327E+03 -0.61406936849E+02  0.22724146744E+03  0.34090997057E+03  0.00000000000E+00 0. -1.
        -11    1    4    4    0    0 -0.27204899200E+01 -0.13033027079E+02  0.16829442883E+02  0.21459054219E+02  0.00000000000E+00 0.  1.
          5    1    3    3  501    0  0.12122828216E+03 -0.17715201599E+02  0.29200677307E+03  0.31670202127E+03  0.47000000000E+01 0. -1.
         13    1    6    6    0    0 -0.18337169685E+02 -0.27089442136E+02  0.55406384189E+02  0.64342498213E+02  0.00000000000E+00 0. -1.
        -14    1    6    6    0    0 -0.15132032799E+03  0.67759321828E+01  0.42251991556E+03  0.44885056975E+03  0.00000000000E+00 0.  1.
         -5    1    5    5    0  502 -0.19544735783E+03  0.11246867548E+03  0.65196726749E+03  0.68987845345E+03  0.47000000000E+01 0.  1.
</event>
<event>
12    1  0.9749377E-001  0.1115026E+04  0.7818608E-02  0.9190669E-01
         21   -1    0    0  501  502  0.00000000000E+00  0.00000000000E+00  0.12091856089E+04  0.12091856089E+04  0.00000000000E+00 0.  1.
         21   -1    0    0  502  503 -0.00000000000E+00 -0.00000000000E+00 -0.11703667106E+04  0.11703667106E+04  0.00000000000E+00 0. -1.
         -6    2    1    2    0  503  0.11013417730E+04 -0.89518934873E+02 -0.38528985731E+03  0.11828172553E+04  0.17216574732E+03 0.  0.
        -24    2    3    3    0    0  0.61777972411E+03 -0.11739458098E+03 -0.24097836423E+03  0.67738951185E+03  0.73162173163E+02 0.  0.
          6    2    1    2  501    0 -0.11013417730E+04  0.89518934873E+02  0.42410875567E+03  0.11967350642E+04  0.17702891476E+03 0.  0.
         24    2    5    5    0    0 -0.10383937696E+04  0.53364962215E+02  0.41886697473E+03  0.11238027179E+04  0.79834618735E+02 0.  0.
         12    1    6    6    0    0 -0.51929566190E+03  0.44410481589E+01  0.24475398092E+03  0.57410122675E+03  0.00000000000E+00 0. -1.
        -11    1    6    6    0    0 -0.51909810766E+03  0.48923914056E+02  0.17411299381E+03  0.54970149114E+03  0.00000000000E+00 0.  1.
          5    1    5    5  501    0 -0.62948003449E+02  0.36153972658E+02  0.52417809409E+01  0.72932346353E+02  0.47000000000E+01 0. -1.
         13    1    4    4    0    0  0.22887040773E+03 -0.75724345589E+02 -0.74733646458E+02  0.25239048707E+03  0.00000000000E+00 0. -1.
        -14    1    4    4    0    0  0.38890931637E+03 -0.41670235387E+02 -0.16624471777E+03  0.42499902478E+03  0.00000000000E+00 0.  1.
         -5    1    3    3    0  503  0.48356204891E+03  0.27875646103E+02 -0.14431149308E+03  0.50542774342E+03  0.47000000000E+01 0.  1.
</event>
<event>
12    1  0.9749377E-001  0.2680521E+03  0.7818608E-02  0.1102400E+00
         21   -1    0    0  503  502  0.00000000000E+00  0.00000000000E+00  0.13578303520E+03  0.13578303520E+03  0.00000000000E+00 0. -1.
         21   -1    0    0  501  503 -0.00000000000E+00 -0.00000000000E+00 -0.61935105641E+03  0.61935105641E+03  0.00000000000E+00 0.  1.
          6    2    1    2  501    0  0.22523662414E+03  0.46028089616E+02 -0.29159762218E+03  0.40965003593E+03  0.17301403641E+03 0.  0.
         24    2    3    3    0    0  0.24757348193E+03  0.46345268172E+02 -0.26094116142E+03  0.37142773349E+03  0.80173303811E+02 0.  0.
         -6    2    1    2    0  502 -0.22523662414E+03 -0.46028089616E+02 -0.19197039903E+03  0.34548405568E+03  0.17221055931E+03 0.  0.
        -24    2    5    5    0    0 -0.22757061746E+03 -0.15022630047E+02 -0.19806962533E+03  0.31345162509E+03  0.83703521140E+02 0.  0.
         12    1    4    4    0    0  0.11757346242E+03  0.99808199112E+01 -0.68741885357E+02  0.13655981339E+03  0.00000000000E+00 0. -1.
        -11    1    4    4    0    0  0.13000001950E+03  0.36364448261E+02 -0.19219927607E+03  0.23486792009E+03  0.00000000000E+00 0.  1.
          5    1    3    3  501    0 -0.22336857789E+02 -0.31717855675E+00 -0.30656460756E+02  0.38222302446E+02  0.47000000000E+01 0. -1.
         13    1    6    6    0    0 -0.66715758137E+02 -0.13027820479E+02 -0.14750464147E+02  0.69557836961E+02  0.00000000000E+00 0. -1.
        -14    1    6    6    0    0 -0.16085485932E+03 -0.19948095682E+01 -0.18331916118E+03  0.24389378813E+03  0.00000000000E+00 0.  1.
         -5    1    5    5    0  502  0.23339933211E+01 -0.31005459569E+02  0.60992262963E+01  0.32032430587E+02  0.47000000000E+01 0.  1.
</event>
<event>
12    1  0.9749377E-001  0.4778955E+03  0.7818608E-02  0.1019715E+00
         21   -1    0    0  503  502  0.00000000000E+00  0.00000000000E+00  0.14620282931E+04  0.14620282931E+04  0.00000000000E+00 0. -1.
         21   -1    0    0  501  503 -0.00000000000E+00 -0.00000000000E+00 -0.18668329385E+03  0.18668329385E+03  0.00000000000E+00 0.  1.
          6    2    1    2  501    0  0.46548207871E+03  0.40843949755E+02  0.38764092902E+03  0.63094926656E+03  0.17172563376E+03 0.  0.
         24    2    3    3    0    0  0.36577937313E+03  0.14817396533E+02  0.22116055582E+03  0.43510285829E+03  0.79927472079E+02 0.  0.
         -6    2    1    2    0  502 -0.46548207871E+03 -0.40843949755E+02  0.88770407025E+03  0.10177623204E+04  0.17169691518E+03 0.  0.
        -24    2    5    5    0    0 -0.12526330297E+03 -0.49591217959E+02  0.27332181204E+03  0.31539989313E+03  0.81376259896E+02 0.  0.
         14    1    4    4    0    0  0.17245016652E+03 -0.18418286822E+02  0.13969250780E+03  0.22269326429E+03  0.00000000000E+00 0. -1.
        -13    1    4    4    0    0  0.19332920661E+03  0.33235683355E+02  0.81468048014E+02  0.21240959400E+03  0.00000000000E+00 0.  1.
          5    1    3    3  501    0  0.99702705579E+02  0.26026553222E+02  0.16648037320E+03  0.19584640827E+03  0.47000000000E+01 0. -1.
         11    1    6    6    0    0 -0.11149251596E+03 -0.24642347158E+02  0.14826440137E+03  0.18713673905E+03  0.00000000000E+00 0. -1.
        -12    1    6    6    0    0 -0.13770787014E+02 -0.24948870801E+02  0.12505741068E+03  0.12826315408E+03  0.00000000000E+00 0.  1.
         -5    1    5    5    0  502 -0.34021877573E+03  0.87472682047E+01  0.61438225821E+03  0.70236242729E+03  0.47000000000E+01 0.  1.
</event>
<event>
12    1  0.9749377E-001  0.5491600E+03  0.7818608E-02  0.1001689E+00
         21   -1    0    0  501  502  0.00000000000E+00  0.00000000000E+00  0.28151735317E+03  0.28151735317E+03  0.00000000000E+00 0. -1.
         21   -1    0    0  502  503 -0.00000000000E+00 -0.00000000000E+00 -0.16803693640E+04  0.16803693640E+04  0.00000000000E+00 0.  1.
         -6    2    1    2    0  503 -0.43047059412E+03  0.31907978078E+03 -0.12634407201E+04  0.13833951937E+04  0.17430711386E+03 0.  0.
        -24    2    3    3    0    0 -0.34846357733E+03  0.23050414716E+03 -0.82032751785E+03  0.92411075716E+03  0.80525948444E+02 0.  0.
          6    2    1    2  501    0  0.43047059412E+03 -0.31907978078E+03 -0.13541129077E+03  0.57849152347E+03  0.17087827875E+03 0.  0.
         24    2    5    5    0    0  0.21117778046E+03 -0.23870837306E+03 -0.86220166989E+02  0.33976415185E+03  0.80174929716E+02 0.  0.
         14    1    6    6    0    0  0.15099487699E+03 -0.13894122903E+03 -0.87926254134E+02  0.22323786454E+03  0.00000000000E+00 0. -1.
        -13    1    6    6    0    0  0.60182903471E+02 -0.99767144035E+02  0.17060871452E+01  0.11652628730E+03  0.00000000000E+00 0.  1.
          5    1    5    5  501    0  0.21929281366E+03 -0.80371407723E+02 -0.49191123780E+02  0.23872737162E+03  0.47000000000E+01 0. -1.
         11    1    4    4    0    0 -0.15455709986E+03  0.66543991745E+02 -0.38434990578E+03  0.41957222266E+03  0.00000000000E+00 0. -1.
        -12    1    4    4    0    0 -0.19390647747E+03  0.16396015542E+03 -0.43597761206E+03  0.50453853450E+03  0.00000000000E+00 0.  1.
         -5    1    3    3    0  503 -0.82007016790E+02  0.88575633619E+02 -0.44311320223E+03  0.45928443656E+03  0.47000000000E+01 0.  1.
</event>
<event>
12    1  0.9749377E-001  0.2976749E+03  0.7818608E-02  0.1086409E+00
         21   -1    0    0  503  502  0.00000000000E+00  0.00000000000E+00  0.52310479214E+03  0.52310479214E+03  0.00000000000E+00 0. -1.
         21   -1    0    0  501  503 -0.00000000000E+00 -0.00000000000E+00 -0.26729618385E+03  0.26729618385E+03  0.00000000000E+00 0.  1.
          6    2    1    2  501    0 -0.42333202106E+02 -0.25600284372E+03 -0.91834048928E+02  0.32457758704E+03  0.17201035282E+03 0.  0.
         24    2    3    3    0    0 -0.66647085147E+02 -0.14504090081E+03 -0.78576316433E+00  0.17892183527E+03  0.80831360552E+02 0.  0.
         -6    2    1    2    0  502  0.42333202106E+02  0.25600284372E+03  0.34764265722E+03  0.46582338896E+03  0.16972464932E+03 0.  0.
        -24    2    5    5    0    0  0.10590865288E+02  0.26518373178E+03  0.31859857245E+03  0.42157959264E+03  0.76090239422E+02 0.  0.
         14    1    4    4    0    0 -0.10443281785E+02 -0.11405174181E+03 -0.46641167407E+01  0.11462380176E+03  0.00000000000E+00 0. -1.
        -13    1    4    4    0    0 -0.56203803362E+02 -0.30989158997E+02  0.38783535764E+01  0.64298033517E+02  0.00000000000E+00 0.  1.
          5    1    3    3  501    0  0.24313883042E+02 -0.11096194291E+03 -0.91048285764E+02  0.14565575177E+03  0.47000000000E+01 0. -1.
         13    1    6    6    0    0 -0.99437367357E+01  0.12121914733E+02  0.20835113949E+01  0.15816438815E+02  0.00000000000E+00 0. -1.
        -14    1    6    6    0    0  0.20534602024E+02  0.25306181705E+03  0.31651506105E+03  0.40576315382E+03  0.00000000000E+00 0.  1.
         -5    1    5    5    0  502  0.31742336817E+02 -0.91808880645E+01  0.29044084772E+02  0.44243796317E+02  0.47000000000E+01 0.  1.
</event>
<event>
12    1  0.9749377E-001  0.4748692E+03  0.7818608E-02  0.1020555E+00
         21   -1    0    0  501  502  0.00000000000E+00  0.00000000000E+00  0.12989790201E+04  0.12989790201E+04  0.00000000000E+00 0. -1.
         21   -1    0    0  502  503 -0.00000000000E+00 -0.00000000000E+00 -0.29340296811E+03  0.29340296811E+03  0.00000000000E+00 0.  1.
         -6    2    1    2    0  503 -0.15378532644E+03  0.44088641204E+03  0.31489684321E+02  0.49855873837E+03  0.17186756658E+03 0.  0.
        -24    2    3    3    0    0 -0.26741161225E+02  0.18069530291E+03  0.60941597996E+02  0.20747603809E+03  0.77243419252E+02 0.  0.
          6    2    1    2  501    0  0.15378532644E+03 -0.44088641204E+03  0.97408636762E+03  0.10938232498E+04  0.17197178622E+03 0.  0.
         24    2    5    5    0    0  0.10207965915E+03 -0.28042166962E+03  0.47051616294E+03  0.56276068227E+03  0.79104717358E+02 0.  0.
         12    1    6    6    0    0 -0.52421038389E+01 -0.89778385449E+02  0.14019279680E+03  0.16655827335E+03  0.00000000000E+00 0. -1.
        -11    1    6    6    0    0  0.10732176299E+03 -0.19064328418E+03  0.33032336615E+03  0.39620240892E+03  0.00000000000E+00 0.  1.
          5    1    5    5  501    0  0.51705667287E+02 -0.16046474241E+03  0.50357020468E+03  0.53106256753E+03  0.47000000000E+01 0. -1.
         11    1    4    4    0    0 -0.21581764727E+02  0.12457578367E+03  0.78047447437E+02  0.14858096277E+03  0.00000000000E+00 0. -1.
        -12    1    4    4    0    0 -0.51593964977E+01  0.56119519245E+02 -0.17105849441E+02  0.58895075326E+02  0.00000000000E+00 0.  1.
         -5    1    3    3    0  503 -0.12704416522E+03  0.26019110913E+03 -0.29451913675E+02  0.29108270028E+03  0.47000000000E+01 0.  1.
</event>
<event>
12    1  0.9749377E-001  0.2949647E+03  0.7818608E-02  0.1087785E+00
         21   -1    0    0  501  502  0.00000000000E+00  0.00000000000E+00  0.10650903403E+04  0.10650903403E+04  0.00000000000E+00 0. -1.
         21   -1    0    0  502  503 -0.00000000000E+00 -0.00000000000E+00 -0.50024175467E+03  0.50024175467E+03  0.00000000000E+00 0.  1.
         -6    2    1    2    0  503 -0.20210547610E+03 -0.19092986143E+03  0.98217976831E+03  0.10350410998E+04  0.17126630009E+03 0.  0.
        -24    2    3    3    0    0 -0.25199162787E+02 -0.63752878602E+02  0.30223735547E+03  0.32102877257E+03  0.83741426097E+02 0.  0.
          6    2    1    2  501    0  0.20210547610E+03  0.19092986143E+03 -0.41733118266E+03  0.53029099518E+03  0.17245981588E+03 0.  0.
         24    2    5    5    0    0  0.93590859787E+02  0.82395268802E+02 -0.10421411672E+03  0.18155102509E+03  0.80944198266E+02 0.  0.
         12    1    6    6    0    0  0.78252047130E+02  0.51436722055E+02 -0.11214593804E+03  0.14610212413E+03  0.00000000000E+00 0. -1.
        -11    1    6    6    0    0  0.15338812656E+02  0.30958546747E+02  0.79318213197E+01  0.35448900968E+02  0.00000000000E+00 0.  1.
          5    1    5    5  501    0  0.10851461632E+03  0.10853459263E+03 -0.31311706594E+03  0.34873997009E+03  0.47000000000E+01 0. -1.
         13    1    4    4    0    0 -0.38730637277E+02 -0.66018194945E+02  0.29639234345E+03  0.30611580421E+03  0.00000000000E+00 0. -1.
        -14    1    4    4    0    0  0.13531474489E+02  0.22653163424E+01  0.58450120103E+01  0.14912968363E+02  0.00000000000E+00 0.  1.
         -5    1    3    3    0  503 -0.17690631332E+03 -0.12717698283E+03  0.67994241284E+03  0.71401232723E+03  0.47000000000E+01 0.  1.
</event>
<event>
12    1  0.9749377E-001  0.8383935E+03  0.7818608E-02  0.9506049E-01
         21   -1    0    0  501  502  0.00000000000E+00  0.00000000000E+00  0.83816757264E+03  0.83816757264E+03  0.00000000000E+00 0.  1.
         21   -1    0    0  502  503 -0.00000000000E+00 -0.00000000000E+00 -0.85076774722E+03  0.85076774722E+03  0.00000000000E+00 0. -1.
         -6    2    1    2    0  503  0.69417014202E+03 -0.44936268394E+03 -0.14168245045E+02  0.84427284004E+03  0.16969643922E+03 0.  0.
        -24    2    3    3    0    0  0.47437476510E+03 -0.25238957255E+03 -0.58328191888E+02  0.54580909814E+03  0.75983416301E+02 0.  0.
          6    2    1    2  501    0 -0.69417014202E+03  0.44936268394E+03  0.15680704686E+01  0.84466247982E+03  0.17220115616E+03 0.  0.
         24    2    5    5    0    0 -0.49375847775E+03  0.24900750839E+03 -0.30657805092E+02  0.55941236396E+03  0.78740830258E+02 0.  0.
         12    1    6    6    0    0 -0.40188131211E+03  0.17869851252E+03 -0.47982877734E+02  0.44242977291E+03  0.00000000000E+00 0. -1.
        -11    1    6    6    0    0 -0.91877165638E+02  0.70308995868E+02  0.17325072643E+02  0.11698259105E+03  0.00000000000E+00 0.  1.
          5    1    5    5  501    0 -0.20041166427E+03  0.20035517555E+03  0.32225875560E+02  0.28525011586E+03  0.47000000000E+01 0. -1.
         11    1    4    4    0    0  0.29047674177E+03 -0.11203989618E+03 -0.31680649061E+02  0.31294302896E+03  0.00000000000E+00 0. -1.
        -12    1    4    4    0    0  0.18389802332E+03 -0.14034967637E+03 -0.26647542827E+02  0.23286606918E+03  0.00000000000E+00 0.  1.
         -5    1    3    3    0  503  0.21979537692E+03 -0.19697311138E+03  0.44159946843E+02  0.29846374190E+03  0.47000000000E+01 0.  1.
</event>
<event>
12    1  0.9749377E-001  0.1428217E+04  0.7818608E-02  0.8933643E-01
         21   -1    0    0  503  502  0.00000000000E+00  0.00000000000E+00  0.80009437317E+03  0.80009437317E+03  0.00000000000E+00 0. -1.
         21   -1    0    0  501  503 -0.00000000000E+00 -0.00000000000E+00 -0.28126150683E+04  0.28126150683E+04  0.00000000000E+00 0.  1.
          6    2    1    2  501    0 -0.14254885353E+04  0.16981730875E+02 -0.48267493826E+03  0.15145235940E+04  0.16882143598E+03 0.  0.
         24    2    3    3    0    0 -0.78129785572E+03 -0.25118290331E+01 -0.19657555491E+03  0.80937355485E+03  0.77530341566E+02 0.  0.
         -6    2    1    2    0  502  0.14254885353E+04 -0.16981730875E+02 -0.15298457569E+04  0.20981858475E+04  0.17219136751E+03 0.  0.
        -24    2    5    5    0    0  0.79664336788E+03  0.29870283931E+02 -0.77525957765E+03  0.11147918533E+04  0.78743722995E+02 0.  0.
         14    1    4    4    0    0 -0.76065951737E+03 -0.27738403730E+01 -0.20382177469E+03  0.78749851517E+03  0.00000000000E+00 0. -1.
        -13    1    4    4    0    0 -0.20638338347E+02  0.26201133991E+00  0.72462197842E+01  0.21875039676E+02  0.00000000000E+00 0.  1.
          5    1    3    3  501    0 -0.64419067962E+03  0.19493559908E+02 -0.28609938335E+03  0.70515003917E+03  0.47000000000E+01 0. -1.
         11    1    6    6    0    0  0.78941048959E+03  0.36439752869E+02 -0.75832935876E+03  0.10952443531E+04  0.00000000000E+00 0. -1.
        -12    1    6    6    0    0  0.72328782949E+01 -0.65694689378E+01 -0.16930218900E+02  0.19547500161E+02  0.00000000000E+00 0.  1.
         -5    1    5    5    0  502  0.62884516746E+03 -0.46852014806E+02 -0.75458617924E+03  0.98339399420E+03  0.47000000000E+01 0.  1.
</event>
<event>
12    1  0.9749377E-001  0.2979821E+03  0.7818608E-02  0.1086254E+00
         21   -1    0    0  501  502  0.00000000000E+00  0.00000000000E+00  0.83937299621E+03  0.83937299621E+03  0.00000000000E+00 0.  1.
         21   -1    0    0  502  503 -0.00000000000E+00 -0.00000000000E+00 -0.16850546023E+03  0.16850546023E+03  0.00000000000E+00 0. -1.
         -6    2    1    2    0  503  0.26023207203E+03  0.46233675183E+02  0.60825598976E+03  0.68530580317E+03  0.17265691630E+03 0.  0.
        -24    2    3    3    0    0  0.26420784537E+03  0.53560562157E+02  0.61303977414E+03  0.67460698831E+03  0.81254566797E+02 0.  0.
          6    2    1    2  501    0 -0.26023207203E+03 -0.46233675183E+02  0.62611546225E+02  0.32257265327E+03  0.17399605422E+03 0.  0.
         24    2    5    5    0    0 -0.28087459868E+03 -0.44184697814E+02  0.58209475335E+02  0.30085214584E+03  0.79251769257E+02 0.  0.
         12    1    6    6    0    0 -0.18067163604E+03 -0.66549046597E+01  0.38499189450E+01  0.18083514509E+03  0.00000000000E+00 0. -1.
        -11    1    6    6    0    0 -0.10020296264E+03 -0.37529793154E+02  0.54359556390E+02  0.12001700074E+03  0.00000000000E+00 0.  1.
          5    1    5    5  501    0  0.20642526656E+02 -0.20489773696E+01  0.44020708908E+01  0.21720507432E+02  0.47000000000E+01 0. -1.
         13    1    4    4    0    0  0.16168367101E+03  0.54819692732E-01  0.29841121964E+03  0.33939780271E+03  0.00000000000E+00 0. -1.
        -14    1    4    4    0    0  0.10252417436E+03  0.53505742464E+02  0.31462855450E+03  0.33520918560E+03  0.00000000000E+00 0.  1.
         -5    1    3    3    0  503 -0.39757733480E+01 -0.73268869736E+01 -0.47837843764E+01  0.10698814859E+02  0.47000000000E+01 0.  1.
</event>
<event>
12    1  0.9749377E-001  0.3357267E+03  0.7818608E-02  0.1068631E+00
         21   -1    0    0  501  502  0.00000000000E+00  0.00000000000E+00  0.14709267183E+04  0.14709267183E+04  0.00000000000E+00 0. -1.
         21   -1    0    0  502  503 -0.00000000000E+00 -0.00000000000E+00 -0.10299565458E+03  0.10299565458E+03  0.00000000000E+00 0.  1.
         -6    2    1    2    0  503  0.27001445136E+03  0.17053452138E+03  0.39616347722E+03  0.53721483380E+03  0.17223370763E+03 0.  0.
        -24    2    3    3    0    0  0.18061298598E+03  0.93256201208E+02  0.34937895889E+03  0.41003212296E+03  0.68868825865E+02 0.  0.
          6    2    1    2  501    0 -0.27001445136E+03 -0.17053452138E+03  0.97176758651E+03  0.10367075391E+04  0.16864297352E+03 0.  0.
         24    2    5    5    0    0 -0.22695786798E+03 -0.11176083584E+03  0.58064261550E+03  0.63882684287E+03  0.83387828707E+02 0.  0.
         12    1    6    6    0    0 -0.89676293586E+02 -0.14911891736E+01  0.21661909694E+03  0.23445232870E+03  0.00000000000E+00 0. -1.
        -11    1    6    6    0    0 -0.13728157439E+03 -0.11026964667E+03  0.36402351856E+03  0.40437451417E+03  0.00000000000E+00 0.  1.
          5    1    5    5  501    0 -0.43056583379E+02 -0.58773685536E+02  0.39112497101E+03  0.39788069623E+03  0.47000000000E+01 0. -1.
         13    1    4    4    0    0  0.65168829769E+01 -0.10042102170E+02  0.15623503658E+02  0.19682668678E+02  0.00000000000E+00 0. -1.
        -14    1    4    4    0    0  0.17409610300E+03  0.10329830338E+03  0.33375545523E+03  0.39034945428E+03  0.00000000000E+00 0.  1.
         -5    1    3    3    0  503  0.89401465378E+02  0.77278320170E+02  0.46784518331E+02  0.12718271084E+03  0.47000000000E+01 0.  1.
</event>
<event>
12    1  0.9749377E-001  0.8143950E+03  0.7818608E-02  0.9539412E-01
         21   -1    0    0  501  502  0.00000000000E+00  0.00000000000E+00  0.38279342018E+03  0.38279342018E+03  0.00000000000E+00 0. -1.
         21   -1    0    0  502  503 -0.00000000000E+00 -0.00000000000E+00 -0.17889501724E+04  0.17889501724E+04  0.00000000000E+00 0.  1.
         -6    2    1    2    0  503 -0.34031878009E+02  0.80090737289E+03 -0.55487574205E+03  0.98976437122E+03  0.17069163056E+03 0.  0.
        -24    2    3    3    0    0  0.23710176566E+02  0.26644861512E+03 -0.24478290497E+03  0.36915179784E+03  0.69262849432E+02 0.  0.
          6    2    1    2  501    0  0.34031878009E+02 -0.80090737289E+03 -0.85128101019E+03  0.11819792214E+04  0.17258253911E+03 0.  0.
         24    2    5    5    0    0 -0.44478730344E+02 -0.31540441155E+03 -0.35278177626E+03  0.48169312462E+03  0.78198365495E+02 0.  0.
         12    1    6    6    0    0 -0.25428951476E+02 -0.29344881855E+03 -0.34026893367E+03  0.45004642861E+03  0.00000000000E+00 0. -1.
        -11    1    6    6    0    0 -0.19049778868E+02 -0.21955592999E+02 -0.12512842596E+02  0.31646696016E+02  0.00000000000E+00 0.  1.
          5    1    5    5  501    0  0.78510608354E+02 -0.48550296134E+03 -0.49849923393E+03  0.70028609677E+03  0.47000000000E+01 0. -1.
         11    1    4    4    0    0 -0.11811544229E+02  0.20047845996E+03 -0.18860015146E+03  0.27550161999E+03  0.00000000000E+00 0. -1.
        -12    1    4    4    0    0  0.35521720795E+02  0.65970155165E+02 -0.56182753513E+02  0.93650177859E+02  0.00000000000E+00 0.  1.
         -5    1    3    3    0  503 -0.57742054576E+02  0.53445875777E+03 -0.31009283708E+03  0.62061257337E+03  0.47000000000E+01 0.  1.
</event>
<event>
12    1  0.9749377E-001  0.7450591E+03  0.7818608E-02  0.9643134E-01
         21   -1    0    0  503  502  0.00000000000E+00  0.00000000000E+00  0.20173546951E+04  0.20173546951E+04  0.00000000000E+00 0.  1.
         21   -1    0    0  501  503 -0.00000000000E+00 -0.00000000000E+00 -0.28017967568E+03  0.28017967568E+03  0.00000000000E+00 0. -1.
          6    2    1    2  501    0  0.27457070705E+03 -0.67758018036E+03  0.81670042563E+03  0.11096819310E+04  0.17288848671E+03 0.  0.
         24    2    3    3    0    0  0.94973387384E+02 -0.40645666246E+03  0.39877053875E+03  0.58010602567E+03  0.57254656322E+02 0.  0.
         -6    2    1    2    0  502 -0.27457070705E+03  0.67758018036E+03  0.92047459377E+03  0.11878524397E+04  0.17092678786E+03 0.  0.
        -24    2    5    5    0    0 -0.21835941456E+03  0.38792338109E+03  0.50204615230E+03  0.67583171613E+03  0.80825651625E+02 0.  0.
         14    1    4    4    0    0  0.16544692982E+02 -0.19332046018E+02  0.15870486617E+02  0.29988784813E+02  0.00000000000E+00 0. -1.
        -13    1    4    4    0    0  0.78428694402E+02 -0.38712461644E+03  0.38290005214E+03  0.55011724086E+03  0.00000000000E+00 0.  1.
          5    1    3    3  501    0  0.17959731966E+03 -0.27112351789E+03  0.41792988688E+03  0.52957590536E+03  0.47000000000E+01 0. -1.
         11    1    6    6    0    0 -0.25547829157E+02  0.97109007532E+02  0.14706586659E+03  0.17807644435E+03  0.00000000000E+00 0. -1.
        -12    1    6    6    0    0 -0.19281158541E+03  0.29081437356E+03  0.35498028571E+03  0.49775527178E+03  0.00000000000E+00 0.  1.
         -5    1    5    5    0  502 -0.56211292487E+02  0.28965679926E+03  0.41842844147E+03  0.51202072360E+03  0.47000000000E+01 0.  1.
</event>
<event>
12    1  0.9749377E-001  0.3174879E+03  0.7818608E-02  0.1076811E+00
         21   -1    0    0  501  502  0.00000000000E+00  0.00000000000E+00  0.87395641178E+02  0.87395641178E+02  0.00000000000E+00 0. -1.
         21   -1    0    0  502  503 -0.00000000000E+00 -0.00000000000E+00 -0.18993761822E+04  0.18993761822E+04  0.00000000000E+00 0.  1.
         -6    2    1    2    0  503 -0.94630612118E+02 -0.25458426211E+03 -0.15159639395E+04  0.15497539972E+04  0.17269246270E+03 0.  0.
        -24    2    3    3    0    0 -0.12745784249E+03 -0.19912896353E+03 -0.13209770637E+04  0.13443400519E+04  0.79824347999E+02 0.  0.
          6    2    1    2  501    0  0.94630612118E+02  0.25458426211E+03 -0.29601660155E+03  0.43701782622E+03  0.17201933838E+03 0.  0.
         24    2    5    5    0    0  0.13396973387E+03  0.21269435337E+03 -0.24284059576E+03  0.35858244807E+03  0.80143867907E+02 0.  0.
         14    1    6    6    0    0  0.14010655280E+03  0.21510474229E+03 -0.23266558453E+03  0.34645803572E+03  0.00000000000E+00 0. -1.
        -13    1    6    6    0    0 -0.61368189262E+01 -0.24103889113E+01 -0.10175011237E+02  0.12124412353E+02  0.00000000000E+00 0.  1.
          5    1    5    5  501    0 -0.39339121752E+02  0.41889908731E+02 -0.53176005789E+02  0.78435378149E+02  0.47000000000E+01 0. -1.
         11    1    4    4    0    0 -0.10203124358E+03 -0.85972522320E+02 -0.68431423402E+03  0.69719984233E+03  0.00000000000E+00 0. -1.
        -12    1    4    4    0    0 -0.25426598907E+02 -0.11315644121E+03 -0.63666282968E+03  0.64714020955E+03  0.00000000000E+00 0.  1.
         -5    1    3    3    0  503  0.32827230367E+02 -0.55455298572E+02 -0.19498687579E+03  0.20541394530E+03  0.47000000000E+01 0.  1.
</event>
<event>
12    1  0.9749377E-001  0.4292085E+03  0.7818608E-02  0.1034110E+00
         21   -1    0    0  501  502  0.00000000000E+00  0.00000000000E+00  0.13913861224E+04  0.13913861224E+04  0.00000000000E+00 0.  1.
         21   -1    0    0  502  503 -0.00000000000E+00 -0.00000000000E+00 -0.16771047048E+03  0.16771047048E+03  0.00000000000E+00 0. -1.
         -6    2    1    2    0  503 -0.41431471346E+03  0.31970251596E+02  0.32695169063E+03  0.55593885030E+03  0.17173182143E+03 0.  0.
        -24    2    3    3    0    0 -0.99370798785E+02 -0.18428289809E+02  0.66173425914E+02  0.14392298202E+03  0.78235189909E+02 0.  0.
          6    2    1    2  501    0  0.41431471346E+03 -0.31970251596E+02  0.89672396127E+03  0.10031577426E+04  0.17185114185E+03 0.  0.
         24    2    5    5    0    0  0.16442129359E+03  0.11622810753E+02  0.26585179808E+03  0.32318064539E+03  0.81234841642E+02 0.  0.
         12    1    6    6    0    0  0.17351250817E+03  0.77602283291E+01  0.25469292507E+03  0.30827795529E+03  0.00000000000E+00 0. -1.
        -11    1    6    6    0    0 -0.90912145775E+01  0.38625824234E+01  0.11158873004E+02  0.14902690099E+02  0.00000000000E+00 0.  1.
          5    1    5    5  501    0  0.24989341987E+03 -0.43593062348E+02  0.63087216319E+03  0.67997709717E+03  0.47000000000E+01 0. -1.
         13    1    4    4    0    0 -0.46531212282E+02 -0.10849491631E+01  0.74345115277E+02  0.87712752759E+02  0.00000000000E+00 0. -1.
        -14    1    4    4    0    0 -0.52839586503E+02 -0.17343340646E+02 -0.81716893629E+01  0.56210229262E+02  0.00000000000E+00 0.  1.
         -5    1    3    3    0  503 -0.31494391467E+03  0.50398541405E+02  0.26077826472E+03  0.41201586828E+03  0.47000000000E+01 0.  1.
</event>
<event>
12    1  0.9749377E-001  0.5853608E+03  0.7818608E-02  0.9936252E-01
         21   -1    0    0  501  502  0.00000000000E+00  0.00000000000E+00  0.12910709616E+04  0.12910709616E+04  0.00000000000E+00 0. -1.
         21   -1    0    0  502  503 -0.00000000000E+00 -0.00000000000E+00 -0.29934025064E+03  0.29934025064E+03  0.00000000000E+00 0.  1.
         -6    2    1    2    0  503  0.56711263060E+03  0.35722421072E+02  0.73656669580E+03  0.94402866345E+03  0.16052038157E+03 0.  0.
        -24    2    3    3    0    0  0.34939132845E+03  0.73399548607E+02  0.40401552541E+03  0.54473616129E+03  0.77763400897E+02 0.  0.
          6    2    1    2  501    0 -0.56711263060E+03 -0.35722421072E+02  0.25516401512E+03  0.64638254875E+03  0.17265253418E+03 0.  0.
         24    2    5    5    0    0 -0.39742492043E+03  0.40155980004E+02  0.17258686995E+03  0.44293101733E+03  0.82719939086E+02 0.  0.
         12    1    6    6    0    0 -0.28136869014E+03 -0.94810726763E+00  0.93061940597E+02  0.29636086700E+03  0.00000000000E+00 0. -1.
        -11    1    6    6    0    0 -0.11605623029E+03  0.41104087272E+02  0.79524929353E+02  0.14657015033E+03  0.00000000000E+00 0.  1.
          5    1    5    5  501    0 -0.16968771018E+03 -0.75878401076E+02  0.82577145169E+02  0.20345153142E+03  0.47000000000E+01 0. -1.
         11    1    4    4    0    0  0.46283253920E+02  0.24136892909E+02  0.27922180853E+02  0.59197781853E+02  0.00000000000E+00 0. -1.
        -12    1    4    4    0    0  0.30310807453E+03  0.49262655698E+02  0.37609334455E+03  0.48553837944E+03  0.00000000000E+00 0.  1.
         -5    1    3    3    0  503  0.21772130216E+03 -0.37677127535E+02  0.33255117039E+03  0.39929250216E+03  0.47000000000E+01 0.  1.
</event>
<event>
12    1  0.9749377E-001  0.3031230E+03  0.7818608E-02  0.1083690E+00
         21   -1    0    0  501  502  0.00000000000E+00  0.00000000000E+00  0.29846361347E+03  0.29846361347E+03  0.00000000000E+00 0.  1.
         21   -1    0    0  502  503 -0.00000000000E+00 -0.00000000000E+00 -0.40637054226E+03  0.40637054226E+03  0.00000000000E+00 0. -1.
         -6    2    1    2    0  503  0.10005677128E+03 -0.25586398181E+03 -0.18354440140E+03  0.37201905633E+03  0.17097337897E+03 0.  0.
        -24    2    3    3    0    0  0.73301085158E+02 -0.10738528626E+03 -0.26499947982E+02  0.15419610041E+03  0.78546427984E+02 0.  0.
          6    2    1    2  501    0 -0.10005677128E+03  0.25586398181E+03  0.75637472610E+02  0.33281509940E+03  0.17195094782E+03 0.  0.
         24    2    5    5    0    0 -0.44831043016E+02  0.77242176445E+02  0.83365626856E+02  0.14563218142E+03  0.79263663069E+02 0.  0.
         14    1    6    6    0    0  0.63910077519E+01  0.63626959037E+02  0.30774476666E+02  0.70966917014E+02  0.00000000000E+00 0. -1.
        -13    1    6    6    0    0 -0.51222050768E+02  0.13615217408E+02  0.52591150189E+02  0.74665264402E+02  0.00000000000E+00 0.  1.
          5    1    5    5  501    0 -0.55225728264E+02  0.17862180537E+03 -0.77281542459E+01  0.18718291798E+03  0.47000000000E+01 0. -1.
         11    1    4    4    0    0  0.55677012867E+02 -0.15532020592E+02 -0.16632467419E+02  0.60148253490E+02  0.00000000000E+00 0. -1.
        -12    1    4    4    0    0  0.17624072291E+02 -0.91853265670E+02 -0.98674805633E+01  0.94047846924E+02  0.00000000000E+00 0.  1.
         -5    1    3    3    0  503  0.26755686122E+02 -0.14847869555E+03 -0.15704445342E+03  0.21782295591E+03  0.47000000000E+01 0.  1.
</event>
<event>
12    1  0.1000285E+000  0.3197888E+03  0.7818608E-02  0.1075747E+00
         21   -1    0    0  503  502  0.00000000000E+00  0.00000000000E+00  0.41030143826E+03  0.41030143826E+03  0.00000000000E+00 0. -1.
         21   -1    0    0  501  503 -0.00000000000E+00 -0.00000000000E+00 -0.52067835796E+03  0.52067835796E+03  0.00000000000E+00 0.  1.
          6    2    1    2  501    0 -0.12268074653E+03  0.26835552138E+03  0.25245828285E+03  0.42448892529E+03  0.17143631964E+03 0.  0.
         24    2    3    3    0    0  0.13301946356E+00  0.69359889381E+02  0.30001234968E+02  0.10170151720E+03  0.68061094255E+02 0.  0.
         -6    2    1    2    0  502  0.12268074653E+03 -0.26835552138E+03 -0.36283520255E+03  0.50649087093E+03  0.19446944930E+03 0.  0.
        -24    2    5    5    0    0  0.32816584904E+02 -0.49774450699E+02 -0.18812098036E+03  0.21255141894E+03  0.78956812597E+02 0.  0.
         14    1    4    4    0    0  0.16704180433E+02  0.26205950727E+02  0.43576809800E+02  0.53523077731E+02  0.00000000000E+00 0. -1.
        -13    1    4    4    0    0 -0.16571160970E+02  0.43153938654E+02 -0.13575574832E+02  0.48178439465E+02  0.00000000000E+00 0.  1.
          5    1    3    3  501    0 -0.12281376599E+03  0.19899563200E+03  0.22245704789E+03  0.32278740809E+03  0.47000000000E+01 0. -1.
         11    1    6    6    0    0 -0.10426856235E+02  0.12443659462E+02 -0.10211676407E+02  0.19179216011E+02  0.00000000000E+00 0. -1.
        -12    1    6    6    0    0  0.43243441139E+02 -0.62218110161E+02 -0.17790930395E+03  0.19337220293E+03  0.00000000000E+00 0.  1.
         -5    1    5    5    0  502  0.89864161621E+02 -0.21858107068E+03 -0.17471422219E+03  0.29393945199E+03  0.47000000000E+01 0.  1.
</event>
<event>
12    1  0.9749377E-001  0.3761676E+03  0.7818608E-02  0.1052359E+00
         21   -1    0    0  503  502  0.00000000000E+00  0.00000000000E+00  0.96683992515E+03  0.96683992515E+03  0.00000000000E+00 0.  1.
         21   -1    0    0  501  503 -0.00000000000E+00 -0.00000000000E+00 -0.17074589371E+03  0.17074589371E+03  0.00000000000E+00 0. -1.
          6    2    1    2  501    0  0.32370379772E+03  0.13566511300E+03  0.55374788814E+03  0.67759489783E+03  0.17119857012E+03 0.  0.
         24    2    3    3    0    0  0.19718990732E+03  0.14252675755E+03  0.30529843892E+03  0.39866468174E+03  0.80800095911E+02 0.  0.
         -6    2    1    2    0  502 -0.32370379772E+03 -0.13566511300E+03  0.24234614330E+03  0.45999092103E+03  0.17225220669E+03 0.  0.
        -24    2    5    5    0    0 -0.25412177516E+03 -0.45198274279E+02  0.20681454632E+03  0.34036445591E+03  0.80342676511E+02 0.  0.
         12    1    4    4    0    0  0.13707965220E+03  0.13413488571E+03  0.25924772802E+03  0.32247850020E+03  0.00000000000E+00 0. -1.
        -11    1    4    4    0    0  0.60110255117E+02  0.83918718402E+01  0.46050710900E+02  0.76186181540E+02  0.00000000000E+00 0.  1.
          5    1    3    3  501    0  0.12651389040E+03 -0.68616445442E+01  0.24844944922E+03  0.27893021609E+03  0.47000000000E+01 0. -1.
         13    1    6    6    0    0 -0.43840554217E+01  0.17598870767E+01  0.31001182621E+02  0.31359057198E+02  0.00000000000E+00 0. -1.
        -14    1    6    6    0    0 -0.24973771974E+03 -0.46958161356E+02  0.17581336370E+03  0.30900539871E+03  0.00000000000E+00 0.  1.
         -5    1    5    5    0  502 -0.69582022561E+02 -0.90466838725E+02  0.35531596975E+02  0.11962646512E+03  0.47000000000E+01 0.  1.
</event>
<event>
12    1  0.9749377E-001  0.2361063E+03  0.7818608E-02  0.1122414E+00
         21   -1    0    0  503  502  0.00000000000E+00  0.00000000000E+00  0.60538358129E+03  0.60538358129E+03  0.00000000000E+00 0.  1.
         21   -1    0    0  501  503 -0.00000000000E+00 -0.00000000000E+00 -0.11449974060E+03  0.11449974060E+03  0.00000000000E+00 0. -1.
          6    2    1    2  501    0  0.24107569510E+02 -0.18971804653E+03  0.31794975097E+03  0.40919680748E+03  0.17255686316E+03 0.  0.
         24    2    3    3    0    0  0.43637881849E+02 -0.12949175569E+03  0.30276558636E+03  0.34391826534E+03  0.89108885238E+02 0.  0.
         -6    2    1    2    0  502 -0.24107569510E+02  0.18971804653E+03  0.17293408973E+03  0.31068651440E+03  0.17333723995E+03 0.  0.
        -24    2    5    5    0    0 -0.78627511195E+02  0.14966719556E+03  0.15125821010E+03  0.23949361825E+03  0.76782759241E+02 0.  0.
         14    1    4    4    0    0  0.11775227391E+02 -0.12961631049E+03  0.25802643084E+03  0.28899253094E+03  0.00000000000E+00 0. -1.
        -13    1    4    4    0    0  0.31862654457E+02  0.12455480800E+00  0.44739155514E+02  0.54925734397E+02  0.00000000000E+00 0.  1.
          5    1    3    3  501    0 -0.19530312338E+02 -0.60226290847E+02  0.15184164609E+02  0.65278542141E+02  0.47000000000E+01 0. -1.
         11    1    6    6    0    0 -0.36599118976E+02  0.12481963872E+03  0.13635284041E+03  0.18844504453E+03  0.00000000000E+00 0. -1.
        -12    1    6    6    0    0 -0.42028392218E+02  0.24847556842E+02  0.14905369691E+02  0.51048573723E+02  0.00000000000E+00 0.  1.
         -5    1    5    5    0  502  0.54519941684E+02  0.40050850971E+02  0.21675879624E+02  0.71192896150E+02  0.47000000000E+01 0.  1.
</event>
<event>
12    1  0.9749377E-001  0.7144220E+03  0.7818608E-02  0.9692882E-01
         21   -1    0    0  501  502  0.00000000000E+00  0.00000000000E+00  0.20991814874E+03  0.20991814874E+03  0.00000000000E+00 0. -1.
         21   -1    0    0  502  503 -0.00000000000E+00 -0.00000000000E+00 -0.26242969747E+04  0.26242969747E+04  0.00000000000E+00 0.  1.
         -6    2    1    2    0  503 -0.50846970886E+03 -0.48525432411E+03 -0.89119622469E+03  0.11479567590E+04  0.17193256127E+03 0.  0.
        -24    2    3    3    0    0 -0.19179552935E+03 -0.19997482439E+03 -0.27014209908E+03  0.39469900369E+03  0.77685869679E+02 0.  0.
          6    2    1    2  501    0  0.50846970886E+03  0.48525432411E+03 -0.15231826013E+04  0.16862583645E+04  0.17137336755E+03 0.  0.
         24    2    5    5    0    0  0.42923265555E+03  0.46516098049E+03 -0.13971626081E+04  0.15359740282E+04  0.80854506772E+02 0.  0.
         14    1    6    6    0    0  0.11824821847E+03  0.14912770694E+03 -0.50591460461E+03  0.54052872385E+03  0.00000000000E+00 0. -1.
        -13    1    6    6    0    0  0.31098443709E+03  0.31603327355E+03 -0.89124800354E+03  0.99544530433E+03  0.00000000000E+00 0.  1.
          5    1    5    5  501    0  0.79237053307E+02  0.20093343620E+02 -0.12601999313E+03  0.15028433632E+03  0.47000000000E+01 0. -1.
         11    1    4    4    0    0 -0.16704968963E+03 -0.12667719973E+03 -0.20970444911E+03  0.29652768457E+03  0.00000000000E+00 0. -1.
        -12    1    4    4    0    0 -0.24745839722E+02 -0.73297624663E+02 -0.60437649974E+02  0.98171319127E+02  0.00000000000E+00 0.  1.
         -5    1    3    3    0  503 -0.31667417951E+03 -0.28527949972E+03 -0.62105412561E+03  0.75325775526E+03  0.47000000000E+01 0.  1.
</event>
<event>
12    1  0.9749377E-001  0.1607183E+03  0.7818608E-02  0.1187888E+00
         21   -1    0    0  501  502  0.00000000000E+00  0.00000000000E+00  0.83747798546E+02  0.83747798546E+02  0.00000000000E+00 0. -1.
         21   -1    0    0  502  503 -0.00000000000E+00 -0.00000000000E+00 -0.68121622954E+03  0.68121622954E+03  0.00000000000E+00 0.  1.
         -6    2    1    2    0  503  0.98585325960E+02  0.55699812263E+02 -0.10293503303E+03  0.22948870001E+03  0.17102019421E+03 0.  0.
        -24    2    3    3    0    0  0.11785333791E+03  0.20043688032E+02 -0.31529626789E+02  0.14724857891E+03  0.79980422221E+02 0.  0.
          6    2    1    2  501    0 -0.98585325960E+02 -0.55699812263E+02 -0.49453339796E+03  0.53547532807E+03  0.17131552671E+03 0.  0.
         24    2    5    5    0    0 -0.72047678162E+02 -0.52667127052E+02 -0.49393958140E+03  0.50834809916E+03  0.80478479391E+02 0.  0.
         14    1    6    6    0    0 -0.54019102492E+02 -0.74346379087E+02 -0.37006379810E+03  0.38130389741E+03  0.00000000000E+00 0. -1.
        -13    1    6    6    0    0 -0.18028575670E+02  0.21679252035E+02 -0.12387578330E+03  0.12704420175E+03  0.00000000000E+00 0.  1.
          5    1    5    5  501    0 -0.26537647798E+02 -0.30326852117E+01 -0.59381656267E+00  0.27127228911E+02  0.47000000000E+01 0. -1.
         13    1    4    4    0    0  0.24181275172E+02 -0.20161804164E+02  0.15376851590E+02  0.35038264525E+02  0.00000000000E+00 0. -1.
        -14    1    4    4    0    0  0.93672062734E+02  0.40205492196E+02 -0.46906478379E+02  0.11221031438E+03  0.00000000000E+00 0.  1.
         -5    1    3    3    0  503 -0.19268011946E+02  0.35656124231E+02 -0.71405406238E+02  0.82240121106E+02  0.47000000000E+01 0.  1.
</event>
<event>
12    1  0.9749377E-001  0.4195667E+03  0.7818608E-02  0.1037207E+00
         21   -1    0    0  503  502  0.00000000000E+00  0.00000000000E+00  0.35879500953E+03  0.35879500953E+03  0.00000000000E+00 0. -1.
         21   -1    0    0  501  503 -0.00000000000E+00 -0.00000000000E+00 -0.54470571440E+03  0.54470571440E+03  0.00000000000E+00 0.  1.
          6    2    1    2  501    0  0.35565156866E+03  0.19891903794E+03 -0.96010654111E+02  0.45222613879E+03  0.17097839909E+03 0.  0.
         24    2    3    3    0    0  0.21994101557E+03  0.11203910470E+03  0.76155964630E+01  0.26058593730E+03  0.83187872293E+02 0.  0.
         -6    2    1    2    0  502 -0.35565156866E+03 -0.19891903794E+03 -0.89900050762E+02  0.45127458515E+03  0.17178448745E+03 0.  0.
        -24    2    5    5    0    0 -0.15615050292E+03 -0.25501330166E+02 -0.29486308910E+02  0.18008039862E+03  0.80784962414E+02 0.  0.
         12    1    4    4    0    0  0.16611953684E+03  0.93712559807E+02 -0.29054957746E+02  0.19292987056E+03  0.00000000000E+00 0. -1.
        -11    1    4    4    0    0  0.53821478730E+02  0.18326544897E+02  0.36670554209E+02  0.67656066739E+02  0.00000000000E+00 0.  1.
          5    1    3    3  501    0  0.13571055309E+03  0.86879933233E+02 -0.10362625057E+03  0.19164020149E+03  0.47000000000E+01 0. -1.
         13    1    6    6    0    0 -0.80767927595E+02 -0.38486765929E+02 -0.47783641967E+02  0.10142960968E+03  0.00000000000E+00 0. -1.
        -14    1    6    6    0    0 -0.75382575324E+02  0.12985435763E+02  0.18297333057E+02  0.78650788943E+02  0.00000000000E+00 0.  1.
         -5    1    5    5    0  502 -0.19950106574E+03 -0.17341770777E+03 -0.60413741852E+02  0.27119418653E+03  0.47000000000E+01 0.  1.
</event>
<event>
12    1  0.9749377E-001  0.1737759E+03  0.7818608E-02  0.1173966E+00
         21   -1    0    0  503  502  0.00000000000E+00  0.00000000000E+00  0.41088489453E+02  0.41088489453E+02  0.00000000000E+00 0.  1.
         21   -1    0    0  501  503 -0.00000000000E+00 -0.00000000000E+00 -0.17339962490E+04  0.17339962490E+04  0.00000000000E+00 0. -1.
          6    2    1    2  501    0  0.93539356794E+02 -0.92564161293E+02 -0.32700177090E+03  0.39215404996E+03  0.17186304285E+03 0.  0.
         24    2    3    3    0    0  0.47982464298E+02  0.17892406533E+02 -0.17191779467E+03  0.19632449776E+03  0.79781734775E+02 0.  0.
         -6    2    1    2    0  502 -0.93539356794E+02  0.92564161293E+02 -0.13659059886E+04  0.13829306885E+04  0.17169852693E+03 0.  0.
        -24    2    5    5    0    0 -0.56137813114E+02  0.13317495972E+01 -0.36214663015E+03  0.37432909808E+03  0.76281480896E+02 0.  0.
         12    1    4    4    0    0  0.49408326224E+02  0.89954792163E+01 -0.40279261025E+02  0.64377948207E+02  0.00000000000E+00 0. -1.
        -11    1    4    4    0    0 -0.14258619266E+01  0.88969273164E+01 -0.13163853365E+03  0.13194654955E+03  0.00000000000E+00 0.  1.
          5    1    3    3  501    0  0.45556892497E+02 -0.11045656783E+03 -0.15508397623E+03  0.19582955220E+03  0.47000000000E+01 0. -1.
         13    1    6    6    0    0 -0.90980948861E+01  0.17965902094E+02 -0.19375402074E+02  0.27945575216E+02  0.00000000000E+00 0. -1.
        -14    1    6    6    0    0 -0.47039718228E+02 -0.16634152497E+02 -0.34277122807E+03  0.34638352287E+03  0.00000000000E+00 0.  1.
         -5    1    5    5    0  502 -0.37401543681E+02  0.91232411696E+02 -0.10037593585E+04  0.10086015904E+04  0.47000000000E+01 0.  1.
</event>
<event>
12    1  0.9749377E-001  0.4010305E+03  0.7818608E-02  0.1043423E+00
         21   -1    0    0  503  502  0.00000000000E+00  0.00000000000E+00  0.94839000378E+03  0.94839000378E+03  0.00000000000E+00 0.  1.
         21   -1    0    0  501  503 -0.00000000000E+00 -0.00000000000E+00 -0.19979008615E+03  0.19979008615E+03  0.00000000000E+00 0. -1.
          6    2    1    2  501    0 -0.38234193947E+03  0.99025811812E+02  0.29216511475E+03  0.52041915493E+03  0.17170955842E+03 0.  0.
         24    2    3    3    0    0 -0.28159744183E+03  0.10988840766E+03  0.27845056010E+03  0.41805886574E+03  0.76589290496E+02 0.  0.
         -6    2    1    2    0  502  0.38234193947E+03 -0.99025811812E+02  0.45643480287E+03  0.62776093500E+03  0.17250968715E+03 0.  0.
        -24    2    5    5    0    0  0.22062197534E+03 -0.80771488735E+02  0.17717186574E+03  0.30450183588E+03  0.78316081687E+02 0.  0.
         12    1    4    4    0    0 -0.20662347856E+03  0.73716845125E+02  0.15285010260E+03  0.26737724101E+03  0.00000000000E+00 0. -1.
        -11    1    4    4    0    0 -0.74973963271E+02  0.36171562536E+02  0.12560045751E+03  0.15068162473E+03  0.00000000000E+00 0.  1.
          5    1    3    3  501    0 -0.10074449764E+03 -0.10862595850E+02  0.13714554651E+02  0.10236028919E+03  0.47000000000E+01 0. -1.
         13    1    6    6    0    0  0.54146416936E+02 -0.14972905942E+02  0.88278174016E+02  0.10463774838E+03  0.00000000000E+00 0. -1.
        -14    1    6    6    0    0  0.16647555840E+03 -0.65798582793E+02  0.88893691725E+02  0.19986408750E+03  0.00000000000E+00 0.  1.
         -5    1    5    5    0  502  0.16171996413E+03 -0.18254323076E+02  0.27926293713E+03  0.32325909912E+03  0.47000000000E+01 0.  1.
</event>
<event>
12    1  0.9749377E-001  0.6851741E+03  0.7818608E-02  0.9742928E-01
         21   -1    0    0  501  502  0.00000000000E+00  0.00000000000E+00  0.57544176068E+03  0.57544176068E+03  0.00000000000E+00 0. -1.
         21   -1    0    0  502  503 -0.00000000000E+00 -0.00000000000E+00 -0.98268852616E+03  0.98268852616E+03  0.00000000000E+00 0.  1.
         -6    2    1    2    0  503  0.55943037731E+03 -0.37249964490E+03  0.98364364624E+02  0.69966478534E+03  0.16774066624E+03 0.  0.
        -24    2    3    3    0    0  0.20820489771E+03 -0.96708394669E+02  0.69118551445E+02  0.25211863262E+03  0.78004087916E+02 0.  0.
          6    2    1    2  501    0 -0.55943037731E+03  0.37249964490E+03 -0.50561113011E+03  0.85846550150E+03  0.17205252066E+03 0.  0.
         24    2    5    5    0    0 -0.28530794113E+03  0.11750549169E+03 -0.25398367124E+03  0.40735177277E+03  0.78864438586E+02 0.  0.
         12    1    6    6    0    0 -0.19072999431E+03  0.11514525108E+03 -0.19325761486E+03  0.29493196720E+03  0.00000000000E+00 0. -1.
        -11    1    6    6    0    0 -0.94577946826E+02  0.23602406076E+01 -0.60726056382E+02  0.11241980557E+03  0.00000000000E+00 0.  1.
          5    1    5    5  501    0 -0.27412243618E+03  0.25499415322E+03 -0.25162745887E+03  0.45111372873E+03  0.47000000000E+01 0. -1.
         11    1    4    4    0    0  0.10696068289E+03 -0.31445780739E+02 -0.33612249488E+01  0.11153798745E+03  0.00000000000E+00 0. -1.
        -12    1    4    4    0    0  0.10124421482E+03 -0.65262613930E+02  0.72479776394E+02  0.14058064517E+03  0.00000000000E+00 0.  1.
         -5    1    3    3    0  503  0.35122547960E+03 -0.27579125024E+03  0.29245813180E+02  0.44754615272E+03  0.47000000000E+01 0.  1.
</event>
<event>
12    1  0.9749377E-001  0.9354506E+03  0.7818608E-02  0.9382320E-01
         21   -1    0    0  503  502  0.00000000000E+00  0.00000000000E+00  0.31200468286E+03  0.31200468286E+03  0.00000000000E+00 0. -1.
         21   -1    0    0  501  503 -0.00000000000E+00 -0.00000000000E+00 -0.29160331794E+04  0.29160331794E+04  0.00000000000E+00 0.  1.
          6    2    1    2  501    0  0.22359121335E+03  0.90624896238E+03 -0.11398672035E+04  0.14831346989E+04  0.17061969683E+03 0.  0.
         24    2    3    3    0    0  0.20749735795E+03  0.83395460925E+03 -0.11019930253E+04  0.13998158592E+04  0.80996098228E+02 0.  0.
         -6    2    1    2    0  502 -0.22359121335E+03 -0.90624896238E+03 -0.14641612931E+04  0.17449031634E+04  0.17215848808E+03 0.  0.
        -24    2    5    5    0    0 -0.90371388334E+02 -0.34987132269E+03 -0.68101975414E+03  0.77503906997E+03  0.79502982227E+02 0.  0.
         12    1    4    4    0    0  0.79840961781E+02  0.48399321627E+03 -0.63869814795E+03  0.80533181780E+03  0.00000000000E+00 0. -1.
        -11    1    4    4    0    0  0.12765639617E+03  0.34996139298E+03 -0.46329487738E+03  0.59448404139E+03  0.00000000000E+00 0.  1.
          5    1    3    3  501    0  0.16093855394E+02  0.72294353121E+02 -0.37874178147E+02  0.83318839676E+02  0.47000000000E+01 0. -1.
         11    1    6    6    0    0 -0.70227328170E+01 -0.40796541493E+02 -0.35619350472E+02  0.54611488737E+02  0.00000000000E+00 0. -1.
        -12    1    6    6    0    0 -0.83348655517E+02 -0.30907478119E+03 -0.64540040367E+03  0.72042758123E+03  0.00000000000E+00 0.  1.
         -5    1    5    5    0  502 -0.13321982501E+03 -0.55637763969E+03 -0.78314153893E+03  0.96986409343E+03  0.47000000000E+01 0.  1.
</event>
<event>
12    1  0.9749377E-001  0.4275582E+03  0.7818608E-02  0.1034634E+00
         21   -1    0    0  501  502  0.00000000000E+00  0.00000000000E+00  0.23312458458E+04  0.23312458458E+04  0.00000000000E+00 0. -1.
         21   -1    0    0  502  503 -0.00000000000E+00 -0.00000000000E+00 -0.20354826826E+03  0.20354826826E+03  0.00000000000E+00 0.  1.
         -6    2    1    2    0  503 -0.36230656250E+03 -0.20209340585E+03  0.10308395956E+03  0.46083222269E+03  0.17214018948E+03 0.  0.
        -24    2    3    3    0    0 -0.31445987071E+03 -0.19657539153E+03  0.13519758545E+03  0.40275357459E+03  0.80032242803E+02 0.  0.
          6    2    1    2  501    0  0.36230656250E+03  0.20209340585E+03  0.20246136179E+04  0.20739618913E+04  0.17363707793E+03 0.  0.
         24    2    5    5    0    0  0.17405435952E+03  0.10737982457E+03  0.71798261572E+03  0.75043772443E+03  0.76370118388E+02 0.  0.
         14    1    6    6    0    0  0.24451264611E+02 -0.10478286137E+02  0.64565003826E+02  0.69830498641E+02  0.00000000000E+00 0. -1.
        -13    1    6    6    0    0  0.14960309491E+03  0.11785811071E+03  0.65341761189E+03  0.68060722579E+03  0.00000000000E+00 0.  1.
          5    1    5    5  501    0  0.18825220298E+03  0.94713581280E+02  0.13066310022E+04  0.13235241669E+04  0.47000000000E+01 0. -1.
         13    1    4    4    0    0 -0.22217552152E+03 -0.17814382873E+03  0.11047270907E+03  0.30545278772E+03  0.00000000000E+00 0. -1.
        -14    1    4    4    0    0 -0.92284349188E+02 -0.18431562800E+02  0.24724876386E+02  0.97300786865E+02  0.00000000000E+00 0.  1.
         -5    1    3    3    0  503 -0.47846691792E+02 -0.55180143193E+01 -0.32113625895E+02  0.58078648104E+02  0.47000000000E+01 0.  1.
</event>
<event>
12    1  0.9749377E-001  0.3303896E+03  0.7818608E-02  0.1070965E+00
         21   -1    0    0  501  502  0.00000000000E+00  0.00000000000E+00  0.59227492166E+03  0.59227492166E+03  0.00000000000E+00 0. -1.
         21   -1    0    0  502  503 -0.00000000000E+00 -0.00000000000E+00 -0.20762899648E+03  0.20762899648E+03  0.00000000000E+00 0.  1.
         -6    2    1    2    0  503 -0.16940970177E+03 -0.25391229746E+03  0.20651278145E+03  0.40684888127E+03  0.17235829377E+03 0.  0.
        -24    2    3    3    0    0 -0.75184149601E+02 -0.20083523340E+03  0.18956223004E+03  0.29728136508E+03  0.80342539403E+02 0.  0.
          6    2    1    2  501    0  0.16940970177E+03  0.25391229746E+03  0.17813314373E+03  0.39305503688E+03  0.17201669474E+03 0.  0.
         24    2    5    5    0    0  0.99600993848E+02  0.79662896016E+02  0.13186068187E+03  0.19966594636E+03  0.78820782387E+02 0.  0.
         12    1    6    6    0    0  0.17059107329E+01  0.35361326903E+02  0.62320458254E+02  0.71674075430E+02  0.00000000000E+00 0. -1.
        -11    1    6    6    0    0  0.97895083116E+02  0.44301569114E+02  0.69540223618E+02  0.12799187093E+03  0.00000000000E+00 0.  1.
          5    1    5    5  501    0  0.69808707919E+02  0.17424940144E+03  0.46272461856E+02  0.19338909052E+03  0.47000000000E+01 0. -1.
         11    1    4    4    0    0 -0.82906178457E+02 -0.15853170293E+03  0.17884176465E+03  0.25296266927E+03  0.00000000000E+00 0. -1.
        -12    1    4    4    0    0  0.77220288561E+01 -0.42303530474E+02  0.10720465392E+02  0.44318695811E+02  0.00000000000E+00 0.  1.
         -5    1    3    3    0  503 -0.94225552167E+02 -0.53077064057E+02  0.16950551407E+02  0.10956751619E+03  0.47000000000E+01 0.  1.
</event>
<event>
12    1  0.9749377E-001  0.1481461E+03  0.7818608E-02  0.1202770E+00
         21   -1    0    0  501  502  0.00000000000E+00  0.00000000000E+00  0.54608032188E+02  0.54608032188E+02  0.00000000000E+00 0.  1.
         21   -1    0    0  502  503 -0.00000000000E+00 -0.00000000000E+00 -0.10512921573E+04  0.10512921573E+04  0.00000000000E+00 0. -1.
         -6    2    1    2    0  503 -0.10451229744E+02 -0.10367793250E+03 -0.15786989359E+03  0.24335455215E+03  0.15310190352E+03 0.  0.
        -24    2    3    3    0    0 -0.35128502031E+02 -0.23441532791E+02 -0.11694838459E+03  0.14984782777E+03  0.83629717893E+02 0.  0.
          6    2    1    2  501    0  0.10451229744E+02  0.10367793250E+03 -0.83881423148E+03  0.86254563729E+03  0.17180605224E+03 0.  0.
         24    2    5    5    0    0 -0.95931792189E+01  0.10747245411E+03 -0.37173311780E+03  0.39499560416E+03  0.78699802778E+02 0.  0.
         14    1    6    6    0    0 -0.10544435160E+02  0.11841617357E+03 -0.35903221051E+03  0.37820325681E+03  0.00000000000E+00 0. -1.
        -13    1    6    6    0    0  0.95125594090E+00 -0.10943719466E+02 -0.12700907290E+02  0.16792347352E+02  0.00000000000E+00 0.  1.
          5    1    5    5  501    0  0.20044408963E+02 -0.37945216049E+01 -0.46708111368E+03  0.46755003313E+03  0.47000000000E+01 0. -1.
         11    1    4    4    0    0 -0.15399410214E+02  0.12880714242E+02 -0.10488473012E+03  0.10678886294E+03  0.00000000000E+00 0. -1.
        -12    1    4    4    0    0 -0.19729091817E+02 -0.36322247032E+02 -0.12063654465E+02  0.43058964832E+02  0.00000000000E+00 0.  1.
         -5    1    3    3    0  503  0.24677272287E+02 -0.80236399711E+02 -0.40921508999E+02  0.93506724383E+02  0.47000000000E+01 0.  1.
</event>
<event>
12    1  0.9749377E-001  0.4825858E+03  0.7818608E-02  0.1018427E+00
         21   -1    0    0  501  502  0.00000000000E+00  0.00000000000E+00  0.43096471121E+03  0.43096471121E+03  0.00000000000E+00 0. -1.
         21   -1    0    0  502  503 -0.00000000000E+00 -0.00000000000E+00 -0.92906159750E+03  0.92906159750E+03  0.00000000000E+00 0.  1.
         -6    2    1    2    0  503  0.45695800165E+03  0.69055219021E+02  0.17707459216E+03  0.52384734864E+03  0.17170147042E+03 0.  0.
        -24    2    3    3    0    0  0.37620308110E+03  0.77243770450E+01  0.17468065606E+03  0.42230597628E+03  0.78997352952E+02 0.  0.
          6    2    1    2  501    0 -0.45695800165E+03 -0.69055219021E+02 -0.67517147846E+03  0.83617896007E+03  0.17250938928E+03 0.  0.
         24    2    5    5    0    0 -0.17456601301E+03 -0.80711527667E+02 -0.33703767374E+03  0.39545493681E+03  0.76174601627E+02 0.  0.
         14    1    6    6    0    0 -0.10820248028E+03 -0.20192989891E+02 -0.23512554622E+03  0.25961424473E+03  0.00000000000E+00 0. -1.
        -13    1    6    6    0    0 -0.66363532723E+02 -0.60518537776E+02 -0.10191212752E+03  0.13584069208E+03  0.00000000000E+00 0.  1.
          5    1    5    5  501    0 -0.28239198864E+03  0.11656308646E+02 -0.33813380472E+03  0.44072402326E+03  0.47000000000E+01 0. -1.
         11    1    4    4    0    0  0.36235314776E+02  0.19065666969E+02  0.37522068408E+02  0.55537404616E+02  0.00000000000E+00 0. -1.
        -12    1    4    4    0    0  0.33996776632E+03 -0.11341289924E+02  0.13715858765E+03  0.36676857166E+03  0.00000000000E+00 0.  1.
         -5    1    3    3    0  503  0.80754920556E+02  0.61330841976E+02  0.23939361060E+01  0.10154137236E+03  0.47000000000E+01 0.  1.
</event>
<event>
12    1  0.9749377E-001  0.2081621E+03  0.7818608E-02  0.1143030E+00
         21   -1    0    0  501  502  0.00000000000E+00  0.00000000000E+00  0.10851378033E+04  0.10851378033E+04  0.00000000000E+00 0. -1.
         21   -1    0    0  502  503 -0.00000000000E+00 -0.00000000000E+00 -0.66924727619E+02  0.66924727619E+02  0.00000000000E+00 0.  1.
         -6    2    1    2    0  503 -0.14446980168E+03 -0.10092110048E+03  0.72757200685E+03  0.77130830124E+03  0.18573873664E+03 0.  0.
        -24    2    3    3    0    0 -0.76263993600E+02 -0.45888564853E+02  0.62880956595E+03  0.63918441253E+03  0.72341453506E+02 0.  0.
          6    2    1    2  501    0  0.14446980168E+03  0.10092110048E+03  0.29064106888E+03  0.38075422973E+03  0.17159533915E+03 0.  0.
         24    2    5    5    0    0  0.12033095740E+03  0.30592117673E+02  0.10621237751E+03  0.18184499961E+03  0.79819281975E+02 0.  0.
         14    1    6    6    0    0 -0.90037429339E+01  0.74711554186E-01  0.23878118291E+02  0.25519355434E+02  0.00000000000E+00 0. -1.
        -13    1    6    6    0    0  0.12933470033E+03  0.30517406119E+02  0.82334259217E+02  0.15632564417E+03  0.00000000000E+00 0.  1.
          5    1    5    5  501    0  0.24138844284E+02  0.70328982806E+02  0.18442869137E+03  0.19890923012E+03  0.47000000000E+01 0. -1.
         11    1    4    4    0    0 -0.86966553943E+02 -0.50438370900E+02  0.51053669047E+03  0.52034116027E+03  0.00000000000E+00 0. -1.
        -12    1    4    4    0    0  0.10702560343E+02  0.45498060472E+01  0.11827287548E+03  0.11884325226E+03  0.00000000000E+00 0.  1.
         -5    1    3    3    0  503 -0.68205808080E+02 -0.55032535626E+02  0.98762440900E+02  0.13212388870E+03  0.47000000000E+01 0.  1.
</event>
<event>
12    1  0.9749377E-001  0.2802190E+03  0.7818608E-02  0.1095569E+00
         21   -1    0    0  501  502  0.00000000000E+00  0.00000000000E+00  0.52244945290E+03  0.52244945290E+03  0.00000000000E+00 0. -1.
         21   -1    0    0  502  503 -0.00000000000E+00 -0.00000000000E+00 -0.18039652085E+03  0.18039652085E+03  0.00000000000E+00 0.  1.
         -6    2    1    2    0  503  0.56824286622E+02 -0.23670712640E+03  0.25416209083E+03  0.39159198510E+03  0.17171677593E+03 0.  0.
        -24    2    3    3    0    0 -0.75563465921E+01 -0.44368675176E+02  0.49509597572E+02  0.10341898367E+03  0.78858152534E+02 0.  0.
          6    2    1    2  501    0 -0.56824286622E+02  0.23670712640E+03  0.87890841211E+02  0.31125398865E+03  0.17290165483E+03 0.  0.
         24    2    5    5    0    0 -0.64131985478E+01  0.33867824581E+02  0.45317064095E+02  0.97900580755E+02  0.79641250345E+02 0.  0.
         14    1    6    6    0    0  0.28667186889E+02  0.17491074756E+02 -0.54863491819E+01  0.34027126349E+02  0.00000000000E+00 0. -1.
        -13    1    6    6    0    0 -0.35080385436E+02  0.16376749825E+02  0.50803413277E+02  0.63873454406E+02  0.00000000000E+00 0.  1.
          5    1    5    5  501    0 -0.50411088074E+02  0.20283930182E+03  0.42573777116E+02  0.21335340790E+03  0.47000000000E+01 0. -1.
         11    1    4    4    0    0  0.21153494094E+02  0.24311443077E+01 -0.90590157561E+01  0.23139717835E+02  0.00000000000E+00 0. -1.
        -12    1    4    4    0    0 -0.28709840686E+02 -0.46799819484E+02  0.58568613328E+02  0.80279265835E+02  0.00000000000E+00 0.  1.
         -5    1    3    3    0  503  0.64380633214E+02 -0.19233845123E+03  0.20465249326E+03  0.28817300142E+03  0.47000000000E+01 0.  1.
</event>
<event>
12    1  0.9749377E-001  0.1696004E+03  0.7818608E-02  0.1178265E+00
         21   -1    0    0  503  502  0.00000000000E+00  0.00000000000E+00  0.39184531936E+03  0.39184531936E+03  0.00000000000E+00 0.  1.
         21   -1    0    0  501  503 -0.00000000000E+00 -0.00000000000E+00 -0.93506131359E+02  0.93506131359E+02  0.00000000000E+00 0. -1.
          6    2    1    2  501    0 -0.80979663408E+02  0.12329079457E+01  0.10861153923E+03  0.21913293352E+03  0.17223109520E+03 0.  0.
         24    2    3    3    0    0 -0.11969350160E+03  0.11640262630E+02  0.62880508210E+02  0.15813710172E+03  0.81187157785E+02 0.  0.
         -6    2    1    2    0  502  0.80979663408E+02 -0.12329079457E+01  0.18972764877E+03  0.26621851719E+03  0.16827504937E+03 0.  0.
        -24    2    5    5    0    0  0.80262392984E+02  0.36742950147E+02  0.19294408029E+03  0.22781128211E+03  0.82936518050E+02 0.  0.
         12    1    4    4    0    0 -0.67866504133E+02  0.41744349556E+02  0.14222178429E+02  0.80936539723E+02  0.00000000000E+00 0. -1.
        -11    1    4    4    0    0 -0.51826997467E+02 -0.30104086926E+02  0.48658329781E+02  0.77200562000E+02  0.00000000000E+00 0.  1.
          5    1    3    3  501    0  0.38713838193E+02 -0.10407354685E+02  0.45731031016E+02  0.60995831800E+02  0.47000000000E+01 0. -1.
         11    1    6    6    0    0  0.18180542114E+02  0.53619409725E+02  0.84322786193E+02  0.10156724611E+03  0.00000000000E+00 0. -1.
        -12    1    6    6    0    0  0.62081850870E+02 -0.16876459578E+02  0.10862129410E+03  0.12624403600E+03  0.00000000000E+00 0.  1.
         -5    1    5    5    0  502  0.71727042435E+00 -0.37975858093E+02 -0.32164315171E+01  0.38407235080E+02  0.47000000000E+01 0.  1.
</event>
<event>
12    1  0.9749377E-001  0.1173939E+04  0.7818608E-02  0.9135979E-01
         21   -1    0    0  503  502  0.00000000000E+00  0.00000000000E+00  0.24809293977E+04  0.24809293977E+04  0.00000000000E+00 0.  1.
         21   -1    0    0  501  503 -0.00000000000E+00 -0.00000000000E+00 -0.56145929585E+03  0.56145929585E+03  0.00000000000E+00 0. -1.
          6    2    1    2  501    0  0.13382392286E+03  0.11594257288E+04  0.94361400117E+03  0.15108396309E+04  0.17335554273E+03 0.  0.
         24    2    3    3    0    0  0.14881002078E+03  0.80061958863E+03  0.60912307227E+03  0.10200517940E+04  0.79615308004E+02 0.  0.
         -6    2    1    2    0  502 -0.13382392286E+03 -0.11594257288E+04  0.97585610071E+03  0.15315490627E+04  0.17655180276E+03 0.  0.
        -24    2    5    5    0    0 -0.47934552586E+02 -0.39288931565E+03  0.26897548567E+03  0.48529032288E+03  0.80617305261E+02 0.  0.
         12    1    4    4    0    0  0.15160537863E+03  0.79408762827E+03  0.61019572240E+03  0.10128663149E+04  0.00000000000E+00 0. -1.
        -11    1    4    4    0    0 -0.27953578466E+01  0.65319603571E+01 -0.10726501295E+01  0.71854791001E+01  0.00000000000E+00 0.  1.
          5    1    3    3  501    0 -0.14986097916E+02  0.35880614018E+03  0.33449092890E+03  0.49078783693E+03  0.47000000000E+01 0. -1.
         11    1    6    6    0    0 -0.34070807505E+02 -0.38370578643E+03  0.24650402002E+03  0.45733486894E+03  0.00000000000E+00 0. -1.
        -12    1    6    6    0    0 -0.13863745081E+02 -0.91835292237E+01  0.22471465652E+02  0.27955453944E+02  0.00000000000E+00 0.  1.
         -5    1    5    5    0  502 -0.85889370277E+02 -0.76653641316E+03  0.70688061504E+03  0.10462587398E+04  0.47000000000E+01 0.  1.
</event>
<event>
12    1  0.9749377E-001  0.8662404E+03  0.7818608E-02  0.9468795E-01
         21   -1    0    0  501  502  0.00000000000E+00  0.00000000000E+00  0.16951841539E+04  0.16951841539E+04  0.00000000000E+00 0. -1.
         21   -1    0    0  502  503 -0.00000000000E+00 -0.00000000000E+00 -0.13414821393E+04  0.13414821393E+04  0.00000000000E+00 0.  1.
         -6    2    1    2    0  503  0.84859167348E+03  0.14264336011E+03  0.14116617611E+04  0.16620101334E+04  0.17039307355E+03 0.  0.
        -24    2    3    3    0    0  0.65272613225E+03  0.14798056239E+03  0.99989231408E+03  0.12059750872E+04  0.81496138009E+02 0.  0.
          6    2    1    2  501    0 -0.84859167348E+03 -0.14264336011E+03 -0.10579597464E+04  0.13746561598E+04  0.17304847892E+03 0.  0.
         24    2    5    5    0    0 -0.17359824121E+03 -0.18250834638E+02 -0.21851246610E+03  0.29032066720E+03  0.77903463638E+02 0.  0.
         12    1    6    6    0    0 -0.12491719892E+03  0.54238737238E+01 -0.19421977922E+03  0.23098711573E+03  0.00000000000E+00 0. -1.
        -11    1    6    6    0    0 -0.48681042290E+02 -0.23674708362E+02 -0.24292686879E+02  0.59333551472E+02  0.00000000000E+00 0.  1.
          5    1    5    5  501    0 -0.67499343227E+03 -0.12439252547E+03 -0.83944728031E+03  0.10843354926E+04  0.47000000000E+01 0. -1.
         11    1    4    4    0    0  0.21172386580E+03  0.70729786379E+02  0.39040696287E+03  0.44971912867E+03  0.00000000000E+00 0. -1.
        -12    1    4    4    0    0  0.44100226645E+03  0.77250776012E+02  0.60948535121E+03  0.75625595848E+03  0.00000000000E+00 0.  1.
         -5    1    3    3    0  503  0.19586554123E+03 -0.53372022773E+01  0.41176944698E+03  0.45603504628E+03  0.47000000000E+01 0.  1.
</event>
<event>
12    1  0.9749377E-001  0.4385986E+03  0.7818608E-02  0.1031178E+00
         21   -1    0    0  501  502  0.00000000000E+00  0.00000000000E+00  0.21733842248E+03  0.21733842248E+03  0.00000000000E+00 0. -1.
         21   -1    0    0  502  503 -0.00000000000E+00 -0.00000000000E+00 -0.92834558222E+03  0.92834558222E+03  0.00000000000E+00 0.  1.
         -6    2    1    2    0  503 -0.29150686453E+03  0.29073476582E+03 -0.40951252911E+03  0.60628751577E+03  0.17430170441E+03 0.  0.
        -24    2    3    3    0    0 -0.19658899281E+03  0.11708793517E+03 -0.17383970335E+03  0.29851098163E+03  0.80819224434E+02 0.  0.
          6    2    1    2  501    0  0.29150686453E+03 -0.29073476582E+03 -0.30149463064E+03  0.53939648893E+03  0.17477586744E+03 0.  0.
         24    2    5    5    0    0  0.21885692170E+03 -0.28141916552E+03 -0.20878827263E+03  0.42115371571E+03  0.81748459151E+02 0.  0.
         12    1    6    6    0    0  0.17606266989E+03 -0.26371694002E+03 -0.16513341749E+03  0.35751046663E+03  0.00000000000E+00 0. -1.
        -11    1    6    6    0    0  0.42794251815E+02 -0.17702225498E+02 -0.43654855140E+02  0.63643249079E+02  0.00000000000E+00 0.  1.
          5    1    5    5  501    0  0.72649942832E+02 -0.93156003035E+01 -0.92706358012E+02  0.11824277322E+03  0.47000000000E+01 0. -1.
         13    1    4    4    0    0 -0.84570822743E+02  0.96923752097E+02 -0.98536692864E+02  0.16203677860E+03  0.00000000000E+00 0. -1.
        -14    1    4    4    0    0 -0.11201817006E+03  0.20164183074E+02 -0.75303010483E+02  0.13647420303E+03  0.00000000000E+00 0.  1.
         -5    1    3    3    0  503 -0.94917871727E+02  0.17364683065E+03 -0.23567282576E+03  0.30777653414E+03  0.47000000000E+01 0.  1.
</event>
<event>
12    1  0.9749377E-001  0.2970523E+03  0.7818608E-02  0.1086723E+00
         21   -1    0    0  501  502  0.00000000000E+00  0.00000000000E+00  0.43610235949E+02  0.43610235949E+02  0.00000000000E+00 0.  1.
         21   -1    0    0  502  503 -0.00000000000E+00 -0.00000000000E+00 -0.24199204752E+04  0.24199204752E+04  0.00000000000E+00 0. -1.
         -6    2    1    2    0  503 -0.84138983738E+02 -0.26058004094E+03 -0.12287865035E+04  0.12707221149E+04  0.17273417669E+03 0.  0.
        -24    2    3    3    0    0 -0.42238720851E+02 -0.18399214941E+03 -0.56547530728E+03  0.60167415684E+03  0.81315725896E+02 0.  0.
          6    2    1    2  501    0  0.84138983738E+02  0.26058004094E+03 -0.11475237357E+04  0.11928085962E+04  0.17606901161E+03 0.  0.
         24    2    5    5    0    0  0.24861293089E+02  0.24988295541E+03 -0.88308730356E+03  0.92155781023E+03  0.79787446280E+02 0.  0.
         14    1    6    6    0    0  0.22184959700E+01  0.21834109605E+03 -0.66182885434E+03  0.69691835130E+03  0.00000000000E+00 0. -1.
        -13    1    6    6    0    0  0.22642797119E+02  0.31541859353E+02 -0.22125844922E+03  0.22463945892E+03  0.00000000000E+00 0.  1.
          5    1    5    5  501    0  0.59277690649E+02  0.10697085533E+02 -0.26443643217E+03  0.27125078600E+03  0.47000000000E+01 0. -1.
         11    1    4    4    0    0 -0.33040237443E+02 -0.12142091871E+03 -0.47431831746E+03  0.49072656650E+03  0.00000000000E+00 0. -1.
        -12    1    4    4    0    0 -0.91984834085E+01 -0.62571230702E+02 -0.91156989820E+02  0.11094759034E+03  0.00000000000E+00 0.  1.
         -5    1    3    3    0  503 -0.41900262887E+02 -0.76587891529E+02 -0.66331119625E+03  0.66904795810E+03  0.47000000000E+01 0.  1.
</event>
<event>
12    1  0.9749377E-001  0.1274833E+04  0.7818608E-02  0.9049764E-01
         21   -1    0    0  503  502  0.00000000000E+00  0.00000000000E+00  0.15712759136E+04  0.15712759136E+04  0.00000000000E+00 0.  1.
         21   -1    0    0  501  503 -0.00000000000E+00 -0.00000000000E+00 -0.21639966301E+04  0.21639966301E+04  0.00000000000E+00 0. -1.
          6    2    1    2  501    0  0.10756973728E+04  0.67365732169E+03 -0.16401121518E+04  0.20809760501E+04  0.17191400650E+03 0.  0.
         24    2    3    3    0    0  0.49355887052E+03  0.38438596552E+03 -0.81354923604E+03  0.10294098386E+04  0.80432128379E+02 0.  0.
         -6    2    1    2    0  502 -0.10756973728E+04 -0.67365732169E+03  0.10473914353E+04  0.16542964936E+04  0.16949644619E+03 0.  0.
        -24    2    5    5    0    0 -0.93316382435E+03 -0.55533738318E+03  0.83360785379E+03  0.13713814357E+04  0.81182856119E+02 0.  0.
         14    1    4    4    0    0  0.49821738281E+02  0.58463673061E+02 -0.13782246669E+03  0.15778225184E+03  0.00000000000E+00 0. -1.
        -13    1    4    4    0    0  0.44373713224E+03  0.32592229246E+03 -0.67572676936E+03  0.87162758681E+03  0.00000000000E+00 0.  1.
          5    1    3    3  501    0  0.58213850228E+03  0.28927135616E+03 -0.82656291572E+03  0.10515662114E+04  0.47000000000E+01 0. -1.
         11    1    6    6    0    0 -0.68729492549E+03 -0.43266804653E+03  0.58576761498E+03  0.10013489161E+04  0.00000000000E+00 0. -1.
        -12    1    6    6    0    0 -0.24586889885E+03 -0.12266933665E+03  0.24784023880E+03  0.37003251958E+03  0.00000000000E+00 0.  1.
         -5    1    5    5    0  502 -0.14253354845E+03 -0.11831993851E+03  0.21378358146E+03  0.28291505790E+03  0.47000000000E+01 0.  1.
</event>
<event>
12    1  0.9749377E-001  0.1784075E+03  0.7818608E-02  0.1169353E+00
         21   -1    0    0  503  502  0.00000000000E+00  0.00000000000E+00  0.16339298346E+03  0.16339298346E+03  0.00000000000E+00 0.  1.
         21   -1    0    0  501  503 -0.00000000000E+00 -0.00000000000E+00 -0.28298076481E+03  0.28298076481E+03  0.00000000000E+00 0.  1.
          6    2    1    2  501    0  0.82701490531E+02  0.53278371511E+02  0.28727395265E+02  0.19870374946E+03  0.17023453059E+03 0.  0.
         24    2    3    3    0    0 -0.12680269274E+01 -0.81239356745E+01 -0.33532981082E+01  0.89743279213E+02  0.89302885354E+02 0.  0.
         -6    2    1    2    0  502 -0.82701490531E+02 -0.53278371511E+02 -0.14831517662E+03  0.24766999881E+03  0.17223505825E+03 0.  0.
        -24    2    5    5    0    0 -0.10621330437E+03 -0.38361804846E+02 -0.16423430507E+03  0.21525367573E+03  0.81291720723E+02 0.  0.
         12    1    4    4    0    0  0.39683248338E+02  0.94750091876E+01 -0.15339376173E+02  0.43587067567E+02  0.00000000000E+00 0. -1.
        -11    1    4    4    0    0 -0.40951275265E+02 -0.17598944862E+02  0.11986078065E+02  0.46156211646E+02  0.00000000000E+00 0.  1.
          5    1    3    3  501    0  0.83969517458E+02  0.61402307186E+02  0.32080693373E+02  0.10896047025E+03  0.47000000000E+01 0. -1.
         13    1    6    6    0    0 -0.73971388993E+02  0.16175588636E+02 -0.86004415222E+02  0.11458697786E+03  0.00000000000E+00 0. -1.
        -14    1    6    6    0    0 -0.32241915378E+02 -0.54537393481E+02 -0.78229889850E+02  0.10066669787E+03  0.00000000000E+00 0.  1.
         -5    1    5    5    0  502  0.23511813840E+02 -0.14916566665E+02  0.15919128455E+02  0.32416323078E+02  0.47000000000E+01 0.  1.
</event>
<event>
12    1  0.9749377E-001  0.5767462E+03  0.7818608E-02  0.9954860E-01
         21   -1    0    0  503  502  0.00000000000E+00  0.00000000000E+00  0.43538895690E+03  0.43538895690E+03  0.00000000000E+00 0. -1.
         21   -1    0    0  501  503 -0.00000000000E+00 -0.00000000000E+00 -0.92965106143E+03  0.92965106143E+03  0.00000000000E+00 0.  1.
          6    2    1    2  501    0  0.56101851368E+03  0.98452986735E+02 -0.48815177569E+03  0.76986806829E+03  0.17311823469E+03 0.  0.
         24    2    3    3    0    0  0.14585127929E+03  0.51183231084E+02 -0.18752802625E+03  0.25509142640E+03  0.77540675647E+02 0.  0.
         -6    2    1    2    0  502 -0.56101851368E+03 -0.98452986735E+02 -0.61103288386E+01  0.59517195004E+03  0.17250377013E+03 0.  0.
        -24    2    5    5    0    0 -0.46028838543E+03 -0.46509713436E+02 -0.52956611145E+02  0.47244735371E+03  0.79834504813E+02 0.  0.
         12    1    4    4    0    0  0.13335021108E+03  0.56902822941E+02 -0.19203932710E+03  0.24062276120E+03  0.00000000000E+00 0. -1.
        -11    1    4    4    0    0  0.12501068207E+02 -0.57195918570E+01  0.45113008512E+01  0.14468665201E+02  0.00000000000E+00 0.  1.
          5    1    3    3  501    0  0.41516723439E+03  0.47269755651E+02 -0.30062374944E+03  0.51477664189E+03  0.47000000000E+01 0. -1.
         11    1    6    6    0    0 -0.93719156877E+02  0.16563218608E+01 -0.41606561547E+02  0.10255305813E+03  0.00000000000E+00 0. -1.
        -12    1    6    6    0    0 -0.36656922855E+03 -0.48166035297E+02 -0.11350049598E+02  0.36989429558E+03  0.00000000000E+00 0.  1.
         -5    1    5    5    0  502 -0.10073012825E+03 -0.51943273299E+02  0.46846282307E+02  0.12272459633E+03  0.47000000000E+01 0.  1.
</event>
<event>
12    1  0.9749377E-001  0.5917014E+03  0.7818608E-02  0.9922774E-01
         21   -1    0    0  501  502  0.00000000000E+00  0.00000000000E+00  0.56905913126E+03  0.56905913126E+03  0.00000000000E+00 0.  1.
         21   -1    0    0  502  503 -0.00000000000E+00 -0.00000000000E+00 -0.83033102094E+03  0.83033102094E+03  0.00000000000E+00 0. -1.
         -6    2    1    2    0  503  0.52673340816E+03  0.23258059144E+03  0.20907977114E+03  0.63664637031E+03  0.17338522238E+03 0.  0.
        -24    2    3    3    0    0  0.35255878126E+03  0.12133137459E+03  0.71233592043E+02  0.38817736218E+03  0.81169225535E+02 0.  0.
          6    2    1    2  501    0 -0.52673340816E+03 -0.23258059144E+03 -0.47035166083E+03  0.76274378189E+03  0.17031023805E+03 0.  0.
         24    2    5    5    0    0 -0.10702220844E+03 -0.76827835208E+02 -0.14276844548E+03  0.20799224722E+03  0.74307984202E+02 0.  0.
         14    1    6    6    0    0  0.49357762451E+01 -0.28812554701E+02 -0.32000565685E+02  0.43342374181E+02  0.00000000000E+00 0. -1.
        -13    1    6    6    0    0 -0.11195798469E+03 -0.48015280507E+02 -0.11076787980E+03  0.16464987304E+03  0.00000000000E+00 0.  1.
          5    1    5    5  501    0 -0.41971119972E+03 -0.15575275624E+03 -0.32758321535E+03  0.55475153467E+03  0.47000000000E+01 0. -1.
         11    1    4    4    0    0  0.23404069714E+03  0.49125478838E+02  0.70779256052E+02  0.24939539626E+03  0.00000000000E+00 0. -1.
        -12    1    4    4    0    0  0.11851808412E+03  0.72205895748E+02  0.45433599119E+00  0.13878196593E+03  0.00000000000E+00 0.  1.
         -5    1    3    3    0  503  0.17417462690E+03  0.11124921686E+03  0.13784617910E+03  0.24846900812E+03  0.47000000000E+01 0.  1.
</event>
<event>
12    1  0.9749377E-001  0.8154586E+03  0.7818608E-02  0.9537907E-01
         21   -1    0    0  503  502  0.00000000000E+00  0.00000000000E+00  0.37721696322E+03  0.37721696322E+03  0.00000000000E+00 0. -1.
         21   -1    0    0  501  503 -0.00000000000E+00 -0.00000000000E+00 -0.18395923128E+04  0.18395923128E+04  0.00000000000E+00 0.  1.
          6    2    1    2  501    0 -0.79802648173E+03  0.12651856912E+03 -0.86846878635E+03  0.11986983858E+04  0.17258787170E+03 0.  0.
         24    2    3    3    0    0 -0.22236388826E+03  0.69807088334E+02 -0.22067494758E+03  0.33021547804E+03  0.77627965744E+02 0.  0.
         -6    2    1    2    0  502  0.79802648173E+03 -0.12651856912E+03 -0.59390656327E+03  0.10181108902E+04  0.17598740021E+03 0.  0.
        -24    2    5    5    0    0  0.51263498385E+03 -0.14314511850E+03 -0.34182203806E+03  0.63693711483E+03  0.74575001968E+02 0.  0.
         12    1    4    4    0    0 -0.25131183964E+02  0.16096507605E+02 -0.59823319366E+00  0.29850156573E+02  0.00000000000E+00 0. -1.
        -11    1    4    4    0    0 -0.19723270430E+03  0.53710580728E+02 -0.22007671438E+03  0.30036532147E+03  0.00000000000E+00 0.  1.
          5    1    3    3  501    0 -0.57566259347E+03  0.56711480784E+02 -0.64779383877E+03  0.86848290779E+03  0.47000000000E+01 0. -1.
         13    1    6    6    0    0  0.14778332236E+03 -0.38610467521E+02 -0.59536737361E+02  0.16393688318E+03  0.00000000000E+00 0. -1.
        -14    1    6    6    0    0  0.36485166149E+03 -0.10453465098E+03 -0.28228530070E+03  0.47300023165E+03  0.00000000000E+00 0.  1.
         -5    1    5    5    0  502  0.28539149788E+03  0.16626549382E+02 -0.25208452521E+03  0.38117377540E+03  0.47000000000E+01 0.  1.
</event>
<event>
12    1  0.9749377E-001  0.2454018E+03  0.7818608E-02  0.1116246E+00
         21   -1    0    0  503  502  0.00000000000E+00  0.00000000000E+00  0.37238188699E+03  0.37238188699E+03  0.00000000000E+00 0.  1.
         21   -1    0    0  501  503 -0.00000000000E+00 -0.00000000000E+00 -0.21383053208E+03  0.21383053208E+03  0.00000000000E+00 0. -1.
          6    2    1    2  501    0 -0.11931769736E+03 -0.15213244037E+03 -0.36295702080E+02  0.26241923195E+03  0.17368213205E+03 0.  0.
         24    2    3    3    0    0 -0.49408503176E+02 -0.10779373308E+01 -0.13489727064E+02  0.94350910079E+02  0.79232312610E+02 0.  0.
         -6    2    1    2    0  502  0.11931769736E+03  0.15213244037E+03  0.19484705699E+03  0.32379318712E+03  0.17174300595E+03 0.  0.
        -24    2    5    5    0    0  0.88432766233E+02  0.17466572604E+03  0.13145782371E+03  0.24961830708E+03  0.81851510779E+02 0.  0.
         12    1    4    4    0    0  0.10189860214E+02 -0.24010290702E+02 -0.15719774237E+02  0.30453876812E+02  0.00000000000E+00 0. -1.
        -11    1    4    4    0    0 -0.59598363391E+02  0.22932353371E+02  0.22300471729E+01  0.63897033268E+02  0.00000000000E+00 0.  1.
          5    1    3    3  501    0 -0.69909194181E+02 -0.15105450304E+03 -0.22805975016E+02  0.16806832187E+03  0.47000000000E+01 0. -1.
         13    1    6    6    0    0  0.51997188557E+02  0.10761401906E+03  0.31018318215E+02  0.12347720754E+03  0.00000000000E+00 0. -1.
        -14    1    6    6    0    0  0.36435577677E+02  0.67051706982E+02  0.10043950549E+03  0.12614109954E+03  0.00000000000E+00 0.  1.
         -5    1    5    5    0  502  0.30884931124E+02 -0.22533285671E+02  0.63389233279E+02  0.74174880043E+02  0.47000000000E+01 0.  1.
</event>
<event>
12    1  0.9749377E-001  0.4221351E+03  0.7818608E-02  0.1036374E+00
         21   -1    0    0  503  502  0.00000000000E+00  0.00000000000E+00  0.73523348601E+03  0.73523348601E+03  0.00000000000E+00 0. -1.
         21   -1    0    0  501  503 -0.00000000000E+00 -0.00000000000E+00 -0.45935548028E+03  0.45935548028E+03  0.00000000000E+00 0.  1.
          6    2    1    2  501    0  0.39160205674E+03 -0.12179459015E+03  0.52174813049E+03  0.68568971321E+03  0.17252008030E+03 0.  0.
         24    2    3    3    0    0  0.16468297249E+03 -0.47680960019E+02  0.13952045994E+03  0.23501778919E+03  0.79833871999E+02 0.  0.
         -6    2    1    2    0  502 -0.39160205674E+03  0.12179459015E+03 -0.24587012476E+03  0.50889925307E+03  0.17418449557E+03 0.  0.
        -24    2    5    5    0    0 -0.23962425765E+03  0.37948288806E+02 -0.21056905785E+03  0.33171090981E+03  0.82661611906E+02 0.  0.
         12    1    4    4    0    0  0.16450895080E+03 -0.60243967558E+02  0.13650992706E+03  0.22209793044E+03  0.00000000000E+00 0. -1.
        -11    1    4    4    0    0  0.17402169687E+00  0.12563007539E+02  0.30105328726E+01  0.12919858751E+02  0.00000000000E+00 0.  1.
          5    1    3    3  501    0  0.22691908424E+03 -0.74113630126E+02  0.38222767055E+03  0.45067192402E+03  0.47000000000E+01 0. -1.
         11    1    6    6    0    0 -0.77853541291E+02 -0.42827646561E+00 -0.23256005516E+02  0.81253917473E+02  0.00000000000E+00 0. -1.
        -12    1    6    6    0    0 -0.16177071636E+03  0.38376565271E+02 -0.18731305234E+03  0.25045699233E+03  0.00000000000E+00 0.  1.
         -5    1    5    5    0  502 -0.15197779909E+03  0.83846301340E+02 -0.35301066905E+02  0.17718834326E+03  0.47000000000E+01 0.  1.
</event>
<event>
12    1  0.9749377E-001  0.2448914E+03  0.7818608E-02  0.1116577E+00
         21   -1    0    0  501  502  0.00000000000E+00  0.00000000000E+00  0.25747442395E+03  0.25747442395E+03  0.00000000000E+00 0. -1.
         21   -1    0    0  502  503 -0.00000000000E+00 -0.00000000000E+00 -0.32683850681E+03  0.32683850681E+03  0.00000000000E+00 0.  1.
         -6    2    1    2    0  503 -0.21898250291E+03  0.14940208705E+02 -0.11657029599E+03  0.30096493579E+03  0.16974896834E+03 0.  0.
        -24    2    3    3    0    0 -0.23548892973E+03 -0.82685666863E+00 -0.87837478325E+02  0.26396862127E+03  0.80673977846E+02 0.  0.
          6    2    1    2  501    0  0.21898250291E+03 -0.14940208705E+02  0.47206213121E+02  0.28334799497E+03  0.17286154367E+03 0.  0.
         24    2    5    5    0    0  0.12030037543E+03  0.15761254701E+02 -0.37538627899E+02  0.14961497654E+03  0.79087895047E+02 0.  0.
         14    1    6    6    0    0  0.10314744279E+03  0.86267802190E+01  0.45512397727E+01  0.10360757730E+03  0.00000000000E+00 0. -1.
        -13    1    6    6    0    0  0.17152932640E+02  0.71344744817E+01 -0.42089867672E+02  0.46007399241E+02  0.00000000000E+00 0.  1.
          5    1    5    5  501    0  0.98682127481E+02 -0.30701463405E+02  0.84744841020E+02  0.13373301843E+03  0.47000000000E+01 0. -1.
         13    1    4    4    0    0 -0.34401808721E+02  0.18258258142E+02  0.89871837601E+01  0.39970212728E+02  0.00000000000E+00 0. -1.
        -14    1    4    4    0    0 -0.20108712101E+03 -0.19085114810E+02 -0.96824662085E+02  0.22399840854E+03  0.00000000000E+00 0.  1.
         -5    1    3    3    0  503  0.16506426822E+02  0.15767065373E+02 -0.28732817664E+02  0.36996314517E+02  0.47000000000E+01 0.  1.
</event>
<event>
12    1  0.9749377E-001  0.1660170E+03  0.7818608E-02  0.1182066E+00
         21   -1    0    0  501  502  0.00000000000E+00  0.00000000000E+00  0.10921458650E+03  0.10921458650E+03  0.00000000000E+00 0.  1.
         21   -1    0    0  502  503 -0.00000000000E+00 -0.00000000000E+00 -0.40340487337E+03  0.40340487337E+03  0.00000000000E+00 0.  1.
         -6    2    1    2    0  503 -0.79997641094E+02 -0.77952847393E+02 -0.20223892227E+03  0.28789646712E+03  0.17177754539E+03 0.  0.
        -24    2    3    3    0    0 -0.30250731783E+02 -0.10848783499E+03 -0.17532051338E+03  0.22344624454E+03  0.80661172017E+02 0.  0.
          6    2    1    2  501    0  0.79997641094E+02  0.77952847393E+02 -0.91951364604E+02  0.22472299275E+03  0.17195668357E+03 0.  0.
         24    2    5    5    0    0  0.41733537254E+02  0.47423093928E+02 -0.12853324716E+03  0.16343244193E+03  0.78732010507E+02 0.  0.
         12    1    6    6    0    0 -0.12657757533E+02  0.23212453870E+02 -0.86770082640E+02  0.90708787236E+02  0.00000000000E+00 0. -1.
        -11    1    6    6    0    0  0.54391294787E+02  0.24210640057E+02 -0.41763164522E+02  0.72723654690E+02  0.00000000000E+00 0.  1.
          5    1    5    5  501    0  0.38264103840E+02  0.30529753465E+02  0.36581882558E+02  0.61290550829E+02  0.47000000000E+01 0. -1.
         13    1    4    4    0    0  0.27376977586E+02 -0.44153367572E+02 -0.59975335436E+02  0.79347713454E+02  0.00000000000E+00 0. -1.
        -14    1    4    4    0    0 -0.57627709369E+02 -0.64334467417E+02 -0.11534517794E+03  0.14409853108E+03  0.00000000000E+00 0.  1.
         -5    1    3    3    0  503 -0.49746909311E+02  0.30534987596E+02 -0.26918408892E+02  0.64450222581E+02  0.47000000000E+01 0.  1.
</event>
<event>
12    1  0.9749377E-001  0.5491016E+03  0.7818608E-02  0.1001702E+00
         21   -1    0    0  501  502  0.00000000000E+00  0.00000000000E+00  0.73851501550E+03  0.73851501550E+03  0.00000000000E+00 0.  1.
         21   -1    0    0  502  503 -0.00000000000E+00 -0.00000000000E+00 -0.56346966895E+03  0.56346966895E+03  0.00000000000E+00 0. -1.
         -6    2    1    2    0  503  0.50270174822E+03  0.18361005780E+03 -0.22949965860E+03  0.60954239947E+03  0.18013923076E+03 0.  0.
        -24    2    3    3    0    0  0.26910698797E+03  0.46627543002E+02 -0.62757703117E+02  0.29149257460E+03  0.80229003530E+02 0.  0.
          6    2    1    2  501    0 -0.50270174822E+03 -0.18361005780E+03  0.40454500514E+03  0.69244228498E+03  0.17145832104E+03 0.  0.
         24    2    5    5    0    0 -0.96571757748E+02 -0.39333024586E+02  0.89451364038E+02  0.15852887989E+03  0.79099102476E+02 0.  0.
         14    1    6    6    0    0 -0.31647791701E+02 -0.35463815489E+02 -0.49146290485E+00  0.47534266212E+02  0.00000000000E+00 0. -1.
        -13    1    6    6    0    0 -0.64923966048E+02 -0.38692090966E+01  0.89942826943E+02  0.11099461368E+03  0.00000000000E+00 0.  1.
          5    1    5    5  501    0 -0.40612999047E+03 -0.14427703322E+03  0.31509364110E+03  0.53391340509E+03  0.47000000000E+01 0. -1.
         13    1    4    4    0    0  0.11715499770E+03 -0.18219135992E+02 -0.14937168619E+02  0.11950041593E+03  0.00000000000E+00 0. -1.
        -14    1    4    4    0    0  0.15195199027E+03  0.64846678994E+02 -0.47820534497E+02  0.17199215867E+03  0.00000000000E+00 0.  1.
         -5    1    3    3    0  503  0.23359476025E+03  0.13698251480E+03 -0.16674195548E+03  0.31804982487E+03  0.47000000000E+01 0.  1.
</event>
<event>
12    1  0.1071993E+000  0.1856962E+04  0.7818608E-02  0.8676581E-01
         21   -1    0    0  503  502  0.00000000000E+00  0.00000000000E+00  0.17793329793E+04  0.17793329793E+04  0.00000000000E+00 0. -1.
         21   -1    0    0  501  503 -0.00000000000E+00 -0.00000000000E+00 -0.19522111775E+04  0.19522111775E+04  0.00000000000E+00 0.  1.
          6    2    1    2  501    0  0.18535698520E+04 -0.69471153164E+02 -0.14660269771E+03  0.18685451306E+04  0.17152584800E+03 0.  0.
         24    2    3    3    0    0  0.17273716676E+04 -0.59610152341E+02 -0.98477442334E+02  0.17330410668E+04  0.79795265014E+02 0.  0.
         -6    2    1    2    0  502 -0.18535698520E+04  0.69471153164E+02 -0.26275500485E+02  0.18629990263E+04  0.17183577253E+03 0.  0.
        -24    2    5    5    0    0 -0.14983802059E+04  0.10125286770E+03 -0.57266551672E+02  0.15050153712E+04  0.79977652678E+02 0.  0.
         14    1    4    4    0    0  0.11983418427E+04 -0.54862605425E+02 -0.34036836963E+02  0.12000798239E+04  0.00000000000E+00 0. -1.
        -13    1    4    4    0    0  0.52902982492E+03 -0.47475469160E+01 -0.64440605371E+02  0.53296124294E+03  0.00000000000E+00 0.  1.
          5    1    3    3  501    0  0.12619818443E+03 -0.98610008231E+01 -0.48125255374E+02  0.13550406376E+03  0.47000000000E+01 0. -1.
         11    1    6    6    0    0 -0.10439579015E+04  0.80882590316E+02 -0.45874442918E+01  0.10470965277E+04  0.00000000000E+00 0. -1.
        -12    1    6    6    0    0 -0.45442230435E+03  0.20370277385E+02 -0.52679107381E+02  0.45791884351E+03  0.00000000000E+00 0.  1.
         -5    1    5    5    0  502 -0.35518964612E+03 -0.31781714537E+02  0.30991051188E+02  0.35798365514E+03  0.47000000000E+01 0.  1.
</event>
<event>
12    1  0.9749377E-001  0.8296243E+03  0.7818608E-02  0.9518100E-01
         21   -1    0    0  501  502  0.00000000000E+00  0.00000000000E+00  0.14878885659E+04  0.14878885659E+04  0.00000000000E+00 0. -1.
         21   -1    0    0  502  503 -0.00000000000E+00 -0.00000000000E+00 -0.53363412826E+03  0.53363412826E+03  0.00000000000E+00 0.  1.
         -6    2    1    2    0  503 -0.22918538160E+03 -0.78966763227E+03  0.13561787769E+03  0.84983726798E+03  0.16652406648E+03 0.  0.
        -24    2    3    3    0    0 -0.17292653339E+03 -0.57711497082E+03  0.16086980163E+03  0.62847005824E+03  0.78295884472E+02 0.  0.
          6    2    1    2  501    0  0.22918538160E+03  0.78966763227E+03  0.81863655993E+03  0.11716854262E+04  0.16303377572E+03 0.  0.
         24    2    5    5    0    0  0.70566447375E+02  0.22532689002E+03  0.29418443709E+03  0.38510258958E+03  0.77509293698E+02 0.  0.
         14    1    6    6    0    0  0.49332436106E+02  0.46378338842E+02  0.68738994133E+02  0.96486729038E+02  0.00000000000E+00 0. -1.
        -13    1    6    6    0    0  0.21234011269E+02  0.17894855118E+03  0.22544544296E+03  0.28861586054E+03  0.00000000000E+00 0.  1.
          5    1    5    5  501    0  0.15861893422E+03  0.56434074225E+03  0.52445212283E+03  0.78658283658E+03  0.47000000000E+01 0. -1.
         11    1    4    4    0    0 -0.67932128663E+02 -0.13964064307E+03  0.65714511583E+02  0.16861992864E+03  0.00000000000E+00 0. -1.
        -12    1    4    4    0    0 -0.10499440473E+03 -0.43747432776E+03  0.95155290049E+02  0.45985012960E+03  0.00000000000E+00 0.  1.
         -5    1    3    3    0  503 -0.56258848205E+02 -0.21255266144E+03 -0.25251923941E+02  0.22136720974E+03  0.47000000000E+01 0.  1.
</event>
<event>
12    1  0.9749377E-001  0.1639675E+03  0.7818608E-02  0.1184289E+00
         21   -1    0    0  501  502  0.00000000000E+00  0.00000000000E+00  0.10953189997E+03  0.10953189997E+03  0.00000000000E+00 0. -1.
         21   -1    0    0  502  503 -0.00000000000E+00 -0.00000000000E+00 -0.38085208439E+03  0.38085208439E+03  0.00000000000E+00 0. -1.
         -6    2    1    2    0  503  0.89873312147E+02 -0.34424226286E+02 -0.71011766843E+02  0.20971393276E+03  0.17226439845E+03 0.  0.
        -24    2    3    3    0    0  0.26287133259E+02 -0.82030889488E+02 -0.64068215481E+02  0.12983966011E+03  0.73030958479E+02 0.  0.
          6    2    1    2  501    0 -0.89873312147E+02  0.34424226286E+02 -0.20030841759E+03  0.28067005160E+03  0.17143504926E+03 0.  0.
         24    2    5    5    0    0 -0.95832490110E+02  0.34234300860E+01 -0.21145043760E+03  0.24686478903E+03  0.83876996064E+02 0.  0.
         14    1    6    6    0    0 -0.47434007264E+02 -0.34083356184E+02 -0.14593865632E+03  0.15719335743E+03  0.00000000000E+00 0. -1.
        -13    1    6    6    0    0 -0.48398482846E+02  0.37506786270E+02 -0.65511781284E+02  0.89671431600E+02  0.00000000000E+00 0.  1.
          5    1    5    5  501    0  0.59591779630E+01  0.31000796200E+02  0.11142020015E+02  0.33805262564E+02  0.47000000000E+01 0. -1.
         11    1    4    4    0    0  0.37579436889E+02 -0.73853678063E+02 -0.22310213637E+02  0.85815648181E+02  0.00000000000E+00 0. -1.
        -12    1    4    4    0    0 -0.11292303629E+02 -0.81772114250E+01 -0.41758001844E+02  0.44024011925E+02  0.00000000000E+00 0.  1.
         -5    1    3    3    0  503  0.63586178888E+02  0.47606663201E+02 -0.69435513612E+01  0.79874272655E+02  0.47000000000E+01 0.  1.
</event>
<event>
12    1  0.9749377E-001  0.3305261E+03  0.7818608E-02  0.1070904E+00
         21   -1    0    0  501  502  0.00000000000E+00  0.00000000000E+00  0.12131299434E+04  0.12131299434E+04  0.00000000000E+00 0. -1.
         21   -1    0    0  502  503 -0.00000000000E+00 -0.00000000000E+00 -0.12528565322E+03  0.12528565322E+03  0.00000000000E+00 0.  1.
         -6    2    1    2    0  503  0.95598925100E+02 -0.29636332464E+03  0.26613534070E+03  0.44308301732E+03  0.16889098849E+03 0.  0.
        -24    2    3    3    0    0 -0.12822870248E+02 -0.16421335306E+03  0.14168743360E+03  0.23159242113E+03  0.80182724812E+02 0.  0.
          6    2    1    2  501    0 -0.95598925100E+02  0.29636332464E+03  0.82170894949E+03  0.89533257932E+03  0.17159386717E+03 0.  0.
         24    2    5    5    0    0 -0.10831461233E+03  0.27703676433E+03  0.62715422553E+03  0.69935085760E+03  0.85368468342E+02 0.  0.
         12    1    6    6    0    0 -0.72010425574E+02  0.13847012259E+03  0.41488576690E+03  0.44327155990E+03  0.00000000000E+00 0. -1.
        -11    1    6    6    0    0 -0.36304186758E+02  0.13856664174E+03  0.21226845863E+03  0.25607929769E+03  0.00000000000E+00 0.  1.
          5    1    5    5  501    0  0.12715687232E+02  0.19326560311E+02  0.19455472396E+03  0.19598172172E+03  0.47000000000E+01 0. -1.
         13    1    4    4    0    0 -0.20980098476E+02 -0.87482492447E+02  0.28053102642E+02  0.94235490048E+02  0.00000000000E+00 0. -1.
        -14    1    4    4    0    0  0.81572282284E+01 -0.76730860618E+02  0.11363433096E+03  0.13735693108E+03  0.00000000000E+00 0.  1.
         -5    1    3    3    0  503  0.10842179535E+03 -0.13214997158E+03  0.12444790710E+03  0.21149059619E+03  0.47000000000E+01 0.  1.
</event>
<event>
12    1  0.9749377E-001  0.4672545E+03  0.7818608E-02  0.1022698E+00
         21   -1    0    0  501  502  0.00000000000E+00  0.00000000000E+00  0.10547360639E+04  0.10547360639E+04  0.00000000000E+00 0. -1.
         21   -1    0    0  502  503 -0.00000000000E+00 -0.00000000000E+00 -0.27169489836E+03  0.27169489836E+03  0.00000000000E+00 0.  1.
         -6    2    1    2    0  503 -0.27199025084E+03 -0.34470754472E+03  0.82247552084E+02  0.48202339865E+03  0.18105222751E+03 0.  0.
        -24    2    3    3    0    0 -0.94419889108E+02 -0.59105106396E+02  0.42662170839E+01  0.13676528542E+03  0.79233917150E+02 0.  0.
          6    2    1    2  501    0  0.27199025084E+03  0.34470754472E+03  0.70079361346E+03  0.84440756360E+03  0.17061786794E+03 0.  0.
         24    2    5    5    0    0  0.26426974720E+03  0.25406895228E+03  0.61188882611E+03  0.71712397539E+03  0.73954910242E+02 0.  0.
         14    1    6    6    0    0  0.17071444823E+03  0.11539350037E+03  0.31678024110E+03  0.37790052119E+03  0.00000000000E+00 0. -1.
        -13    1    6    6    0    0  0.93555298971E+02  0.13867545191E+03  0.29510858501E+03  0.33922345420E+03  0.00000000000E+00 0.  1.
          5    1    5    5  501    0  0.77205036374E+01  0.90638592439E+02  0.88904787344E+02  0.12728358821E+03  0.47000000000E+01 0. -1.
         13    1    4    4    0    0 -0.10306562234E+03 -0.66256900796E+02 -0.43742426532E+01  0.12260356198E+03  0.00000000000E+00 0. -1.
        -14    1    4    4    0    0  0.86457332341E+01  0.71517944008E+01  0.86404597371E+01  0.14161723439E+02  0.00000000000E+00 0.  1.
         -5    1    3    3    0  503 -0.17757036173E+03 -0.28560243833E+03  0.77981335000E+02  0.34525811323E+03  0.47000000000E+01 0.  1.
</event>
<event>
12    1  0.9749377E-001  0.1432138E+04  0.7818608E-02  0.8930878E-01
         21   -1    0    0  503  502  0.00000000000E+00  0.00000000000E+00  0.17563940630E+04  0.17563940630E+04  0.00000000000E+00 0. -1.
         21   -1    0    0  501  503 -0.00000000000E+00 -0.00000000000E+00 -0.11804327274E+04  0.11804327274E+04  0.00000000000E+00 0.  1.
          6    2    1    2  501    0 -0.32939315419E+03  0.13893194915E+04  0.23048377210E+03  0.14572509252E+04  0.17818246407E+03 0.  0.
         24    2    3    3    0    0 -0.33587808135E+03  0.12976621184E+04  0.24240658250E+03  0.13644750031E+04  0.79309670389E+02 0.  0.
         -6    2    1    2    0  502  0.32939315419E+03 -0.13893194915E+04  0.34547756359E+03  0.14795758652E+04  0.17629944542E+03 0.  0.
        -24    2    5    5    0    0  0.51773269808E+02 -0.32176132051E+03  0.79165537967E+02  0.34480829709E+03  0.80092199973E+02 0.  0.
         14    1    4    4    0    0 -0.48823343195E+02  0.32345255056E+03  0.54953247615E+02  0.33170036287E+03  0.00000000000E+00 0. -1.
        -13    1    4    4    0    0 -0.28705473816E+03  0.97420956782E+03  0.18745333489E+03  0.10327746402E+04  0.00000000000E+00 0.  1.
          5    1    3    3  501    0  0.64849271646E+01  0.91657373084E+02 -0.11922810399E+02  0.92775922139E+02  0.47000000000E+01 0. -1.
         11    1    6    6    0    0  0.40843409125E+01 -0.76157902574E+02  0.53803657063E+02  0.93335638845E+02  0.00000000000E+00 0. -1.
        -12    1    6    6    0    0  0.47688928895E+02 -0.24560341794E+03  0.25361880903E+02  0.25147265825E+03  0.00000000000E+00 0.  1.
         -5    1    5    5    0  502  0.27761988438E+03 -0.10675581709E+04  0.26631202562E+03  0.11347675681E+04  0.47000000000E+01 0.  1.
</event>
<event>
12    1  0.9749377E-001  0.2336380E+03  0.7818608E-02  0.1124105E+00
         21   -1    0    0  503  502  0.00000000000E+00  0.00000000000E+00  0.12057324952E+03  0.12057324952E+03  0.00000000000E+00 0. -1.
         21   -1    0    0  501  503 -0.00000000000E+00 -0.00000000000E+00 -0.13453773532E+04  0.13453773532E+04  0.00000000000E+00 0. -1.
          6    2    1    2  501    0 -0.54909657557E+02 -0.18590883555E+03 -0.11737631632E+04  0.12023927836E+04  0.17450294324E+03 0.  0.
         24    2    3    3    0    0  0.18452204013E+02 -0.14401531013E+03 -0.59892858091E+03  0.62136445626E+03  0.79356468453E+02 0.  0.
         -6    2    1    2    0  502  0.54909657557E+02  0.18590883555E+03 -0.51040940457E+02  0.26355781907E+03  0.17111510969E+03 0.  0.
        -24    2    5    5    0    0 -0.69270790336E+01  0.32321412575E+02  0.10723244302E+02  0.86781737525E+02  0.79519958908E+02 0.  0.
         14    1    4    4    0    0  0.41598171564E+02 -0.36227613970E+02 -0.19210658904E+03  0.19986943099E+03  0.00000000000E+00 0. -1.
        -13    1    4    4    0    0 -0.23145967550E+02 -0.10778769616E+03 -0.40682199187E+03  0.42149502527E+03  0.00000000000E+00 0.  1.
          5    1    3    3  501    0 -0.73361861570E+02 -0.41893525419E+02 -0.57483458231E+03  0.58102832739E+03  0.47000000000E+01 0. -1.
         13    1    6    6    0    0  0.16661983920E+02  0.13223399334E+02 -0.29514305454E+02  0.36380959643E+02  0.00000000000E+00 0. -1.
        -14    1    6    6    0    0 -0.23589062953E+02  0.19098013240E+02  0.40237549756E+02  0.50400777882E+02  0.00000000000E+00 0.  1.
         -5    1    5    5    0  502  0.61836736590E+02  0.15358742298E+03 -0.61764184759E+02  0.17677608155E+03  0.47000000000E+01 0.  1.
</event>
<event>
12    1  0.9749377E-001  0.8448428E+03  0.7818608E-02  0.9497285E-01
         21   -1    0    0  501  502  0.00000000000E+00  0.00000000000E+00  0.52875089434E+03  0.52875089434E+03  0.00000000000E+00 0.  1.
         21   -1    0    0  502  503 -0.00000000000E+00 -0.00000000000E+00 -0.15702376138E+04  0.15702376138E+04  0.00000000000E+00 0. -1.
         -6    2    1    2    0  503  0.49763010021E+03  0.67066335536E+03 -0.89110466219E+03  0.12332571700E+04  0.17155371050E+03 0.  0.
        -24    2    3    3    0    0  0.34953175067E+03  0.55883254905E+03 -0.73706683760E+03  0.99203322474E+03  0.79975829396E+02 0.  0.
          6    2    1    2  501    0 -0.49763010021E+03 -0.67066335536E+03 -0.15038205726E+03  0.86573133810E+03  0.17161274361E+03 0.  0.
         24    2    5    5    0    0 -0.30841779526E+03 -0.31334857568E+03 -0.99285123920E+02  0.45816768084E+03  0.82165817854E+02 0.  0.
         12    1    6    6    0    0 -0.24952645862E+03 -0.24505707093E+03 -0.11169514478E+03  0.36714060921E+03  0.00000000000E+00 0. -1.
        -11    1    6    6    0    0 -0.58891336642E+02 -0.68291504750E+02  0.12410020860E+02  0.91027071634E+02  0.00000000000E+00 0.  1.
          5    1    5    5  501    0 -0.18921230495E+03 -0.35731477968E+03 -0.51096933339E+02  0.40756365726E+03  0.47000000000E+01 0. -1.
         11    1    4    4    0    0  0.11455880309E+03  0.15806346738E+03 -0.16912124132E+03  0.25828235199E+03  0.00000000000E+00 0. -1.
        -12    1    4    4    0    0  0.23497294758E+03  0.40076908168E+03 -0.56794559628E+03  0.73375087275E+03  0.00000000000E+00 0.  1.
         -5    1    3    3    0  503  0.14809834954E+03  0.11183080630E+03 -0.15403782458E+03  0.24122394528E+03  0.47000000000E+01 0.  1.
</event>
<event>
12    1  0.9749377E-001  0.3093298E+03  0.7818608E-02  0.1080668E+00
         21   -1    0    0  501  502  0.00000000000E+00  0.00000000000E+00  0.12558114909E+03  0.12558114909E+03  0.00000000000E+00 0. -1.
         21   -1    0    0  502  503 -0.00000000000E+00 -0.00000000000E+00 -0.13456274287E+04  0.13456274287E+04  0.00000000000E+00 0.  1.
         -6    2    1    2    0  503  0.19759886158E+02  0.29548091641E+03 -0.20685316944E+03  0.40166929334E+03  0.17564328180E+03 0.  0.
        -24    2    3    3    0    0  0.56592245261E+01  0.24977692423E+03 -0.93260673517E+02  0.27832818628E+03  0.79677395518E+02 0.  0.
          6    2    1    2  501    0 -0.19759886158E+02 -0.29548091641E+03 -0.10131931101E+04  0.10695392844E+04  0.17220504468E+03 0.  0.
         24    2    5    5    0    0 -0.46833918443E+02 -0.12494803954E+03 -0.63491748129E+03  0.65369194861E+03  0.79922006519E+02 0.  0.
         12    1    6    6    0    0 -0.39116378602E+02 -0.49336233360E+02 -0.14737714327E+03  0.16026283835E+03  0.00000000000E+00 0. -1.
        -11    1    6    6    0    0 -0.77175398405E+01 -0.75611806179E+02 -0.48754033802E+03  0.49342911026E+03  0.00000000000E+00 0.  1.
          5    1    5    5  501    0  0.27074032284E+02 -0.17053287687E+03 -0.37827562884E+03  0.41584733580E+03  0.47000000000E+01 0. -1.
         13    1    4    4    0    0 -0.27902667233E+02  0.59893595838E+02 -0.43754079180E+02  0.79247846065E+02  0.00000000000E+00 0. -1.
        -14    1    4    4    0    0  0.33561891759E+02  0.18988332839E+03 -0.49506594337E+02  0.19908034022E+03  0.00000000000E+00 0.  1.
         -5    1    3    3    0  503  0.14100661632E+02  0.45703992180E+02 -0.11359249592E+03  0.12334110706E+03  0.47000000000E+01 0.  1.
</event>
<event>
12    1  0.9749377E-001  0.1871746E+03  0.7818608E-02  0.1161035E+00
         21   -1    0    0  501  502  0.00000000000E+00  0.00000000000E+00  0.73671980730E+03  0.73671980730E+03  0.00000000000E+00 0.  1.
         21   -1    0    0  502  503 -0.00000000000E+00 -0.00000000000E+00 -0.69295624956E+02  0.69295624956E+02  0.00000000000E+00 0. -1.
         -6    2    1    2    0  503  0.49860384555E+02  0.11263526115E+03  0.47058674530E+03  0.51645419853E+03  0.17349436396E+03 0.  0.
        -24    2    3    3    0    0  0.69317750335E+02  0.13950956482E+03  0.34639020052E+03  0.38781637744E+03  0.78406010004E+02 0.  0.
          6    2    1    2  501    0 -0.49860384555E+02 -0.11263526115E+03  0.19683743704E+03  0.28956123372E+03  0.17299702729E+03 0.  0.
         24    2    5    5    0    0  0.26709657183E+02 -0.86704473287E+02  0.73235559347E+02  0.14179489378E+03  0.80692461069E+02 0.  0.
         14    1    6    6    0    0  0.39370369368E+02 -0.45785800744E+02  0.41741767694E+01  0.60529243227E+02  0.00000000000E+00 0. -1.
        -13    1    6    6    0    0 -0.12660712185E+02 -0.40918672543E+02  0.69061382578E+02  0.81265650549E+02  0.00000000000E+00 0.  1.
          5    1    5    5  501    0 -0.76570041738E+02 -0.25930787865E+02  0.12360187770E+03  0.14776633995E+03  0.47000000000E+01 0. -1.
         11    1    4    4    0    0  0.25686805600E+02  0.35194722937E+02  0.33018085856E+02  0.54668770776E+02  0.00000000000E+00 0. -1.
        -12    1    4    4    0    0  0.43630944735E+02  0.10431484188E+03  0.31337211466E+03  0.33314760666E+03  0.00000000000E+00 0.  1.
         -5    1    3    3    0  503 -0.19457365780E+02 -0.26874303669E+02  0.12419654478E+03  0.12863782110E+03  0.47000000000E+01 0.  1.
</event>
<event>
12    1  0.9749377E-001  0.2405940E+03  0.7818608E-02  0.1119398E+00
         21   -1    0    0  501  502  0.00000000000E+00  0.00000000000E+00  0.72990170837E+02  0.72990170837E+02  0.00000000000E+00 0. -1.
         21   -1    0    0  502  503 -0.00000000000E+00 -0.00000000000E+00 -0.10629187720E+04  0.10629187720E+04  0.00000000000E+00 0.  1.
         -6    2    1    2    0  503  0.68704379485E+02  0.20925803658E+03 -0.51475055009E+03  0.58500113309E+03  0.16955523956E+03 0.  0.
        -24    2    3    3    0    0  0.47112899619E+02  0.50064673136E+02 -0.12424418158E+03  0.16271446173E+03  0.79456167731E+02 0.  0.
          6    2    1    2  501    0 -0.68704379485E+02 -0.20925803658E+03 -0.47517805104E+03  0.55090780971E+03  0.17086842007E+03 0.  0.
         24    2    5    5    0    0 -0.88847815997E+02 -0.19635091565E+03 -0.47370652338E+03  0.52648226573E+03  0.79612118111E+02 0.  0.
         14    1    6    6    0    0 -0.45784418911E+02 -0.94628117745E+02 -0.14070564670E+03  0.17563818690E+03  0.00000000000E+00 0. -1.
        -13    1    6    6    0    0 -0.43063397085E+02 -0.10172279791E+03 -0.33300087668E+03  0.35084407883E+03  0.00000000000E+00 0.  1.
          5    1    5    5  501    0  0.20143436512E+02 -0.12907120930E+02 -0.14715276582E+01  0.24425543983E+02  0.47000000000E+01 0. -1.
         13    1    4    4    0    0  0.40673039881E+02  0.57648890707E+02 -0.13228410832E+03  0.14992256697E+03  0.00000000000E+00 0. -1.
        -14    1    4    4    0    0  0.64398597386E+01 -0.75842175708E+01  0.80399267335E+01  0.12791894758E+02  0.00000000000E+00 0.  1.
         -5    1    3    3    0  503  0.21591479865E+02  0.15919336345E+03 -0.39050636851E+03  0.42228667137E+03  0.47000000000E+01 0.  1.
</event>
<event>
12    1  0.9749377E-001  0.2749812E+03  0.7818608E-02  0.1098462E+00
         21   -1    0    0  503  502  0.00000000000E+00  0.00000000000E+00  0.24577811901E+03  0.24577811901E+03  0.00000000000E+00 0. -1.
         21   -1    0    0  501  503 -0.00000000000E+00 -0.00000000000E+00 -0.50522388376E+03  0.50522388376E+03  0.00000000000E+00 0.  1.
          6    2    1    2  501    0  0.25127297601E+03  0.58099626677E+02  0.48532781043E+02  0.31413200281E+03  0.17265517443E+03 0.  0.
         24    2    3    3    0    0  0.18154276340E+03  0.73572805551E+02 -0.22533690205E+02  0.21326448995E+03  0.81260339762E+02 0.  0.
         -6    2    1    2    0  502 -0.25127297601E+03 -0.58099626677E+02 -0.30797854579E+03  0.43686999995E+03  0.17172925521E+03 0.  0.
        -24    2    5    5    0    0 -0.16587176784E+03 -0.23534210330E+02 -0.28787785253E+03  0.34245462920E+03  0.79587767022E+02 0.  0.
         12    1    4    4    0    0  0.15162824842E+03  0.24422700644E+02 -0.73568704333E+01  0.15375863412E+03  0.00000000000E+00 0. -1.
        -11    1    4    4    0    0  0.29914514985E+02  0.49150104906E+02 -0.15176819771E+02  0.59505855825E+02  0.00000000000E+00 0.  1.
          5    1    3    3  501    0  0.69730212610E+02 -0.15473178873E+02  0.71066471248E+02  0.10086751286E+03  0.47000000000E+01 0. -1.
         11    1    6    6    0    0 -0.11017321556E+03 -0.39546612083E+02 -0.13346722237E+03  0.17752625553E+03  0.00000000000E+00 0. -1.
        -12    1    6    6    0    0 -0.55698552282E+02  0.16012401752E+02 -0.15441063016E+03  0.16492837367E+03  0.00000000000E+00 0.  1.
         -5    1    5    5    0  502 -0.85401208175E+02 -0.34565416347E+02 -0.20100693258E+02  0.94415370753E+02  0.47000000000E+01 0.  1.
</event>
<event>
12    1  0.9749377E-001  0.3297401E+03  0.7818608E-02  0.1071252E+00
         21   -1    0    0  501  502  0.00000000000E+00  0.00000000000E+00  0.38593298616E+03  0.38593298616E+03  0.00000000000E+00 0.  1.
         21   -1    0    0  502  503 -0.00000000000E+00 -0.00000000000E+00 -0.32972994033E+03  0.32972994033E+03  0.00000000000E+00 0. -1.
         -6    2    1    2    0  503 -0.99831439216E+02 -0.27788378057E+03 -0.76055101258E+02  0.34988447370E+03  0.17160726892E+03 0.  0.
        -24    2    3    3    0    0 -0.38756948597E+02 -0.25382328142E+03 -0.88014040166E+02  0.28299570600E+03  0.80073335716E+02 0.  0.
          6    2    1    2  501    0  0.99831439216E+02  0.27788378057E+03  0.13225814709E+03  0.36577845279E+03  0.17063395702E+03 0.  0.
         24    2    5    5    0    0  0.12995180664E+03  0.23828879681E+03  0.77363657854E+02  0.29154574961E+03  0.73107905336E+02 0.  0.
         14    1    6    6    0    0  0.13471511715E+03  0.22949415279E+03  0.62042531418E+02  0.27324897924E+03  0.00000000000E+00 0. -1.
        -13    1    6    6    0    0 -0.47633105076E+01  0.87946440197E+01  0.15321126436E+02  0.18296770362E+02  0.00000000000E+00 0.  1.
          5    1    5    5  501    0 -0.30120367425E+02  0.39594983764E+02  0.54894489234E+02  0.74232703180E+02  0.47000000000E+01 0. -1.
         11    1    4    4    0    0  0.22755344480E+02 -0.57053729596E+02 -0.32498474001E+02  0.69491615147E+02  0.00000000000E+00 0. -1.
        -12    1    4    4    0    0 -0.61512293077E+02 -0.19676955183E+03 -0.55515566164E+02  0.21350409086E+03  0.00000000000E+00 0.  1.
         -5    1    3    3    0  503 -0.61074490620E+02 -0.24060499152E+02  0.11958938908E+02  0.66888767694E+02  0.47000000000E+01 0.  1.
</event>
<event>
12    1  0.9749377E-001  0.3298248E+03  0.7818608E-02  0.1071214E+00
         21   -1    0    0  503  502  0.00000000000E+00  0.00000000000E+00  0.11213054112E+03  0.11213054112E+03  0.00000000000E+00 0. -1.
         21   -1    0    0  501  503 -0.00000000000E+00 -0.00000000000E+00 -0.15554926180E+04  0.15554926180E+04  0.00000000000E+00 0.  1.
          6    2    1    2  501    0  0.28676502407E+03 -0.47671843559E+02 -0.23283696828E+03  0.41083833436E+03  0.17340213229E+03 0.  0.
         24    2    3    3    0    0  0.19655208072E+03  0.35828330316E+02 -0.14634171568E+03  0.26045823958E+03  0.80661063258E+02 0.  0.
         -6    2    1    2    0  502 -0.28676502407E+03  0.47671843559E+02 -0.12105251086E+04  0.12567848247E+04  0.17213446338E+03 0.  0.
        -24    2    5    5    0    0 -0.52438249747E+02  0.51143746896E+01 -0.44879942361E+03  0.45868189625E+03  0.78690739261E+02 0.  0.
         12    1    4    4    0    0  0.14342384393E+03  0.44479181930E+02 -0.66647268262E+02  0.16428832886E+03  0.00000000000E+00 0. -1.
        -11    1    4    4    0    0  0.53128236796E+02 -0.86508516145E+01 -0.79694447418E+02  0.96169910720E+02  0.00000000000E+00 0.  1.
          5    1    3    3  501    0  0.90212943351E+02 -0.83500173874E+02 -0.86495252602E+02  0.15038009479E+03  0.47000000000E+01 0. -1.
         13    1    6    6    0    0 -0.73204464933E+02  0.72459202477E+01 -0.36308736348E+03  0.37046434452E+03  0.00000000000E+00 0. -1.
        -14    1    6    6    0    0  0.20766215185E+02 -0.21315455580E+01 -0.85712060137E+02  0.88217551726E+02  0.00000000000E+00 0.  1.
         -5    1    5    5    0  502 -0.23432677433E+03  0.42557468869E+02 -0.76172568496E+03  0.79810292848E+03  0.47000000000E+01 0.  1.
</event>
<event>
12    1  0.9749377E-001  0.2806399E+03  0.7818608E-02  0.1095340E+00
         21   -1    0    0  501  502  0.00000000000E+00  0.00000000000E+00  0.31741407906E+03  0.31741407906E+03  0.00000000000E+00 0.  1.
         21   -1    0    0  502  503 -0.00000000000E+00 -0.00000000000E+00 -0.37153364106E+03  0.37153364106E+03  0.00000000000E+00 0. -1.
         -6    2    1    2    0  503  0.16782838050E+03  0.19269954049E+03 -0.17914865256E+03  0.35691054569E+03  0.17318030981E+03 0.  0.
        -24    2    3    3    0    0  0.14612514297E+03  0.67182925092E+02 -0.12226610108E+03  0.21732843393E+03  0.80103345058E+02 0.  0.
          6    2    1    2  501    0 -0.16782838050E+03 -0.19269954049E+03  0.12502909056E+03  0.33203717442E+03  0.17122188384E+03 0.  0.
         24    2    5    5    0    0 -0.52398222816E+02 -0.10631594029E+03  0.12682788409E+01  0.14197119587E+03  0.78138076572E+02 0.  0.
         14    1    6    6    0    0 -0.11016242814E+02 -0.72080089910E+02  0.32511483674E+02  0.79836667878E+02  0.00000000000E+00 0. -1.
        -13    1    6    6    0    0 -0.41381980002E+02 -0.34235850384E+02 -0.31243204833E+02  0.62134527991E+02  0.00000000000E+00 0.  1.
          5    1    5    5  501    0 -0.11543015768E+03 -0.86383600197E+02  0.12376081172E+03  0.19006597855E+03  0.47000000000E+01 0. -1.
         11    1    4    4    0    0  0.12060645027E+02  0.14582122707E+02 -0.55410032659E+02  0.58552277329E+02  0.00000000000E+00 0. -1.
        -12    1    4    4    0    0  0.13406449795E+03  0.52600802386E+02 -0.66856068420E+02  0.15877615660E+03  0.00000000000E+00 0.  1.
         -5    1    3    3    0  503  0.21703237527E+02  0.12551661540E+03 -0.56882551482E+02  0.13958211176E+03  0.47000000000E+01 0.  1.
</event>
<event>
12    1  0.9749377E-001  0.2571363E+03  0.7818608E-02  0.1108876E+00
         21   -1    0    0  503  502  0.00000000000E+00  0.00000000000E+00  0.20420771231E+03  0.20420771231E+03  0.00000000000E+00 0. -1.
         21   -1    0    0  501  503 -0.00000000000E+00 -0.00000000000E+00 -0.70625201352E+03  0.70625201352E+03  0.00000000000E+00 0.  1.
          6    2    1    2  501    0  0.29440825896E+02 -0.21642133505E+03  0.58255907294E+02  0.28503893731E+03  0.17363320118E+03 0.  0.
         24    2    3    3    0    0 -0.23908706029E+02 -0.70403838133E+02  0.68935595569E+02  0.12914337065E+03  0.79984793542E+02 0.  0.
         -6    2    1    2    0  502 -0.29440825896E+02  0.21642133505E+03 -0.56030020851E+03  0.62542078852E+03  0.17178440720E+03 0.  0.
        -24    2    5    5    0    0  0.22452804625E+01  0.63928616864E+02 -0.34279000434E+03  0.35785618444E+03  0.80399952285E+02 0.  0.
         14    1    4    4    0    0 -0.46083930132E+02 -0.72622186313E+02  0.61168038950E+02  0.10554259590E+03  0.00000000000E+00 0. -1.
        -13    1    4    4    0    0  0.22175224103E+02  0.22183481803E+01  0.77675566190E+01  0.23600774743E+02  0.00000000000E+00 0.  1.
          5    1    3    3  501    0  0.53349531925E+02 -0.14601749692E+03 -0.10679688274E+02  0.15589556666E+03  0.47000000000E+01 0. -1.
         13    1    6    6    0    0 -0.22654935557E+02 -0.33376168320E+01 -0.35048079958E+02  0.41865901399E+02  0.00000000000E+00 0. -1.
        -14    1    6    6    0    0  0.24900216019E+02  0.67266233696E+02 -0.30774192438E+03  0.31599028304E+03  0.00000000000E+00 0.  1.
         -5    1    5    5    0  502 -0.31686106358E+02  0.15249271819E+03 -0.21751020417E+03  0.26756460407E+03  0.47000000000E+01 0.  1.
</event>
<event>
12    1  0.9749377E-001  0.4338103E+03  0.7818608E-02  0.1032663E+00
         21   -1    0    0  501  502  0.00000000000E+00  0.00000000000E+00  0.17562509733E+03  0.17562509733E+03  0.00000000000E+00 0.  1.
         21   -1    0    0  502  503 -0.00000000000E+00 -0.00000000000E+00 -0.13080624460E+04  0.13080624460E+04  0.00000000000E+00 0. -1.
         -6    2    1    2    0  503 -0.71700230054E+02  0.42023223826E+03 -0.35368091420E+03  0.57976600125E+03  0.17117935060E+03 0.  0.
        -24    2    3    3    0    0 -0.56717673649E+02  0.34729482376E+03 -0.20793581701E+03  0.41603430980E+03  0.77567092379E+02 0.  0.
          6    2    1    2  501    0  0.71700230054E+02 -0.42023223826E+03 -0.77875643443E+03  0.90392154205E+03  0.16993090640E+03 0.  0.
         24    2    5    5    0    0  0.54811260800E+02 -0.12838333437E+03 -0.35335287940E+03  0.38773233777E+03  0.77405125901E+02 0.  0.
         12    1    6    6    0    0  0.36226557972E+02 -0.11639771737E+03 -0.34157619963E+03  0.36267766993E+03  0.00000000000E+00 0. -1.
        -11    1    6    6    0    0  0.18584702828E+02 -0.11985616994E+02 -0.11776679768E+02  0.25054667834E+02  0.00000000000E+00 0.  1.
          5    1    5    5  501    0  0.16888969254E+02 -0.29184890389E+03 -0.42540355503E+03  0.51618920428E+03  0.47000000000E+01 0. -1.
         13    1    4    4    0    0 -0.92401173762E+01  0.22850251330E+03 -0.16138336466E+03  0.27989885448E+03  0.00000000000E+00 0. -1.
        -14    1    4    4    0    0 -0.47477556272E+02  0.11879231046E+03 -0.46552452357E+02  0.13613545532E+03  0.00000000000E+00 0.  1.
         -5    1    3    3    0  503 -0.14982556405E+02  0.72937414505E+02 -0.14574509719E+03  0.16373169145E+03  0.47000000000E+01 0.  1.
</event>
<event>
12    1  0.9749377E-001  0.5662085E+03  0.7818608E-02  0.9978104E-01
         21   -1    0    0  501  502  0.00000000000E+00  0.00000000000E+00  0.10201819523E+04  0.10201819523E+04  0.00000000000E+00 0.  1.
         21   -1    0    0  502  503 -0.00000000000E+00 -0.00000000000E+00 -0.34659942265E+03  0.34659942265E+03  0.00000000000E+00 0. -1.
         -6    2    1    2    0  503 -0.50047115433E+03  0.25146471641E+03  0.21657302423E+03  0.62442035152E+03  0.17114619671E+03 0.  0.
        -24    2    3    3    0    0 -0.24615007066E+03  0.97621492140E+02  0.43087347115E+02  0.28023098298E+03  0.80951042758E+02 0.  0.
          6    2    1    2  501    0  0.50047115433E+03 -0.25146471641E+03  0.45700950545E+03  0.74236102347E+03  0.16892696994E+03 0.  0.
         24    2    5    5    0    0  0.16988630112E+03 -0.45997108500E+02  0.18116502413E+03  0.26527030783E+03  0.81058503245E+02 0.  0.
         14    1    6    6    0    0  0.64323635349E+01 -0.15927058272E+00  0.50862488855E+02  0.51267859720E+02  0.00000000000E+00 0. -1.
        -13    1    6    6    0    0  0.16345393758E+03 -0.45837837917E+02  0.13030253528E+03  0.21400244811E+03  0.00000000000E+00 0.  1.
          5    1    5    5  501    0  0.33058485322E+03 -0.20546760791E+03  0.27584448132E+03  0.47709071564E+03  0.47000000000E+01 0. -1.
         13    1    4    4    0    0 -0.20332697093E+03  0.58216614213E+02  0.59609274661E+02  0.21973688108E+03  0.00000000000E+00 0. -1.
        -14    1    4    4    0    0 -0.42823099728E+02  0.39404877927E+02 -0.16521927546E+02  0.60494101899E+02  0.00000000000E+00 0.  1.
         -5    1    3    3    0  503 -0.25432108367E+03  0.15384322427E+03  0.17348567712E+03  0.34418936854E+03  0.47000000000E+01 0.  1.
</event>
<event>
12    1  0.9749377E-001  0.5404114E+03  0.7818608E-02  0.1003738E+00
         21   -1    0    0  501  502  0.00000000000E+00  0.00000000000E+00  0.65559146422E+03  0.65559146422E+03  0.00000000000E+00 0. -1.
         21   -1    0    0  502  503 -0.00000000000E+00 -0.00000000000E+00 -0.49186794145E+03  0.49186794145E+03  0.00000000000E+00 0.  1.
         -6    2    1    2    0  503 -0.39344254349E+02 -0.51511992259E+03 -0.79444044401E+02  0.55112744064E+03  0.17473864666E+03 0.  0.
        -24    2    3    3    0    0 -0.91455398966E+02 -0.30950792263E+03 -0.56389099949E+02  0.33771355547E+03  0.81923566711E+02 0.  0.
          6    2    1    2  501    0  0.39344254349E+02  0.51511992259E+03  0.24316756717E+03  0.59633196503E+03  0.17200244705E+03 0.  0.
         24    2    5    5    0    0 -0.45321609115E+02  0.26835532379E+03  0.11199783739E+03  0.30428973578E+03  0.77331104081E+02 0.  0.
         14    1    6    6    0    0 -0.43659424697E+02  0.59974530534E+02  0.36211498451E+02  0.82549150799E+02  0.00000000000E+00 0. -1.
        -13    1    6    6    0    0 -0.16621844183E+01  0.20838079326E+03  0.75786338934E+02  0.22174058498E+03  0.00000000000E+00 0.  1.
          5    1    5    5  501    0  0.84665863464E+02  0.24676459880E+03  0.13116972978E+03  0.29204222926E+03  0.47000000000E+01 0. -1.
         13    1    4    4    0    0 -0.23450136079E+02 -0.14908719429E+03  0.10007637406E+02  0.15125162210E+03  0.00000000000E+00 0. -1.
        -14    1    4    4    0    0 -0.68005262887E+02 -0.16042072834E+03 -0.66396737354E+02  0.18646193336E+03  0.00000000000E+00 0.  1.
         -5    1    3    3    0  503  0.52111144617E+02 -0.20561199996E+03 -0.23054944452E+02  0.21341388518E+03  0.47000000000E+01 0.  1.
</event>
<event>
12    1  0.9749377E-001  0.1059944E+04  0.7818608E-02  0.9245138E-01
         21   -1    0    0  503  502  0.00000000000E+00  0.00000000000E+00  0.12021983387E+04  0.12021983387E+04  0.00000000000E+00 0. -1.
         21   -1    0    0  501  503 -0.00000000000E+00 -0.00000000000E+00 -0.10144545431E+04  0.10144545431E+04  0.00000000000E+00 0.  1.
          6    2    1    2  501    0 -0.44843364722E+03 -0.95621577794E+03 -0.17983552132E+03  0.10850873816E+04  0.17214081742E+03 0.  0.
         24    2    3    3    0    0 -0.19967835956E+03 -0.44352481222E+03 -0.22267663148E+02  0.49383368021E+03  0.82402357707E+02 0.  0.
         -6    2    1    2    0  502  0.44843364722E+03  0.95621577794E+03  0.36757931689E+03  0.11315655002E+04  0.17287156242E+03 0.  0.
        -24    2    5    5    0    0  0.23044696375E+03  0.48823231253E+03  0.25866033455E+03  0.60391774574E+03  0.79591964766E+02 0.  0.
         14    1    4    4    0    0 -0.14568166026E+03 -0.22616755214E+03 -0.30007284836E+01  0.26904258427E+03  0.00000000000E+00 0. -1.
        -13    1    4    4    0    0 -0.53996699306E+02 -0.21735726008E+03 -0.19266934665E+02  0.22479109594E+03  0.00000000000E+00 0.  1.
          5    1    3    3  501    0 -0.24875528765E+03 -0.51269096572E+03 -0.15756785817E+03  0.59125370138E+03  0.47000000000E+01 0. -1.
         13    1    6    6    0    0  0.33375381676E+02  0.98808615040E+02  0.19042207746E+02  0.10601728248E+03  0.00000000000E+00 0. -1.
        -14    1    6    6    0    0  0.19707158208E+03  0.38942369749E+03  0.23961812680E+03  0.49790046326E+03  0.00000000000E+00 0.  1.
         -5    1    5    5    0  502  0.21798668346E+03  0.46798346541E+03  0.10891898234E+03  0.52764775445E+03  0.47000000000E+01 0.  1.
</event>
<event>
12    1  0.9749377E-001  0.1928152E+03  0.7818608E-02  0.1155946E+00
         21   -1    0    0  503  502  0.00000000000E+00  0.00000000000E+00  0.45397765649E+03  0.45397765649E+03  0.00000000000E+00 0.  1.
         21   -1    0    0  501  503 -0.00000000000E+00 -0.00000000000E+00 -0.12605112985E+03  0.12605112985E+03  0.00000000000E+00 0. -1.
          6    2    1    2  501    0 -0.10828710059E+03  0.12297449790E+03  0.20046096221E+03  0.31041299766E+03  0.17123903894E+03 0.  0.
         24    2    3    3    0    0 -0.68359468922E+02  0.40253229962E+02  0.29084401785E+02  0.11591610976E+03  0.79355545239E+02 0.  0.
         -6    2    1    2    0  502  0.10828710059E+03 -0.12297449790E+03  0.12746556443E+03  0.26961578868E+03  0.17203598492E+03 0.  0.
        -24    2    5    5    0    0  0.45365192339E+02 -0.99895630476E+02  0.12258420777E+02  0.13624946382E+03  0.79853051588E+02 0.  0.
         12    1    4    4    0    0 -0.27073649302E+02  0.41859666461E+02 -0.18248521471E+02  0.53086935292E+02  0.00000000000E+00 0. -1.
        -11    1    4    4    0    0 -0.41285819620E+02 -0.16064364993E+01  0.47332923256E+02  0.62829174465E+02  0.00000000000E+00 0.  1.
          5    1    3    3  501    0 -0.39927631665E+02  0.82721267936E+02  0.17137656043E+03  0.19449688790E+03  0.47000000000E+01 0. -1.
         13    1    6    6    0    0  0.65896714492E+02 -0.54624832277E+02  0.12750464539E+02  0.86537989508E+02  0.00000000000E+00 0. -1.
        -14    1    6    6    0    0 -0.20531522153E+02 -0.45270798200E+02 -0.49204376231E+00  0.49711474315E+02  0.00000000000E+00 0.  1.
         -5    1    5    5    0  502  0.62921908248E+02 -0.23078867421E+02  0.11520714365E+03  0.13336632486E+03  0.47000000000E+01 0.  1.
</event>
<event>
12    1  0.1240102E+000  0.8050722E+03  0.7818608E-02  0.9552704E-01
         21   -1    0    0  501  502  0.00000000000E+00  0.00000000000E+00  0.95765207388E+03  0.95765207388E+03  0.00000000000E+00 0. -1.
         21   -1    0    0  502  503 -0.00000000000E+00 -0.00000000000E+00 -0.70009243544E+03  0.70009243544E+03  0.00000000000E+00 0.  1.
         -6    2    1    2    0  503 -0.31754656344E+03 -0.72963352160E+03  0.21786621889E+03  0.84266320274E+03  0.17150710807E+03 0.  0.
        -24    2    3    3    0    0 -0.24841288923E+03 -0.48465763427E+03  0.20450651724E+03  0.58772552033E+03  0.83644400062E+02 0.  0.
          6    2    1    2  501    0  0.31754656344E+03  0.72963352160E+03  0.39693419549E+02  0.81508130658E+03  0.17199149100E+03 0.  0.
         24    2    5    5    0    0  0.26564737290E+03  0.47385762983E+03  0.63406319905E+02  0.55297593762E+03  0.81562528830E+02 0.  0.
         12    1    6    6    0    0  0.16558430883E+03  0.21586577798E+03  0.43829561657E+02  0.27556710237E+03  0.00000000000E+00 0. -1.
        -11    1    6    6    0    0  0.10006306407E+03  0.25799185185E+03  0.19576758248E+02  0.27740883525E+03  0.00000000000E+00 0.  1.
          5    1    5    5  501    0  0.51899190539E+02  0.25577589177E+03 -0.23712900356E+02  0.26210536895E+03  0.47000000000E+01 0. -1.
         13    1    4    4    0    0 -0.10067837437E+03 -0.23496561700E+03  0.55531594138E+02  0.26158886479E+03  0.00000000000E+00 0. -1.
        -14    1    4    4    0    0 -0.14773451486E+03 -0.24969201727E+03  0.14897492310E+03  0.32613665554E+03  0.00000000000E+00 0.  1.
         -5    1    3    3    0  503 -0.69133674213E+02 -0.24497588733E+03  0.13359701652E+02  0.25493768241E+03  0.47000000000E+01 0.  1.
</event>
<event>
12    1  0.9749377E-001  0.1272718E+04  0.7818608E-02  0.9051485E-01
         21   -1    0    0  503  502  0.00000000000E+00  0.00000000000E+00  0.95769659247E+03  0.95769659247E+03  0.00000000000E+00 0. -1.
         21   -1    0    0  501  503 -0.00000000000E+00 -0.00000000000E+00 -0.19787012166E+04  0.19787012166E+04  0.00000000000E+00 0.  1.
          6    2    1    2  501    0  0.83319445543E+03 -0.95860159578E+03 -0.10469098205E+04  0.16548547818E+04  0.17144724207E+03 0.  0.
         24    2    3    3    0    0  0.27792624567E+03 -0.38620848630E+03 -0.43384208206E+03  0.64895677587E+03  0.80783363747E+02 0.  0.
         -6    2    1    2    0  502 -0.83319445543E+03  0.95860159578E+03  0.25905196377E+02  0.12815430272E+04  0.16897168805E+03 0.  0.
        -24    2    5    5    0    0 -0.32031396316E+03  0.31978401700E+03  0.48557234503E+02  0.46198857315E+03  0.78821216541E+02 0.  0.
         14    1    4    4    0    0  0.45769317634E+02 -0.60787598815E+02 -0.11372484151E+03  0.13683311801E+03  0.00000000000E+00 0. -1.
        -13    1    4    4    0    0  0.23215692803E+03 -0.32542088748E+03 -0.32011724054E+03  0.51212365786E+03  0.00000000000E+00 0.  1.
          5    1    3    3  501    0  0.55526820976E+03 -0.57239310948E+03 -0.61306773841E+03  0.10058980060E+04  0.47000000000E+01 0. -1.
         11    1    6    6    0    0 -0.21800123297E+03  0.22756096727E+03 -0.23459854041E+01  0.31514129379E+03  0.00000000000E+00 0. -1.
        -12    1    6    6    0    0 -0.10231273018E+03  0.92223049726E+02  0.50903219907E+02  0.14684727936E+03  0.00000000000E+00 0.  1.
         -5    1    5    5    0  502 -0.51288049227E+03  0.63881757878E+03 -0.22652038126E+02  0.81955445404E+03  0.47000000000E+01 0.  1.
</event>
<event>
12    1  0.9749377E-001  0.5420987E+03  0.7818608E-02  0.1003339E+00
         21   -1    0    0  503  502  0.00000000000E+00  0.00000000000E+00  0.28739231443E+03  0.28739231443E+03  0.00000000000E+00 0. -1.
         21   -1    0    0  501  503 -0.00000000000E+00 -0.00000000000E+00 -0.11294672326E+04  0.11294672326E+04  0.00000000000E+00 0.  1.
          6    2    1    2  501    0 -0.70228144811E+01 -0.53063598009E+03 -0.27834692815E+03  0.62357184715E+03  0.17245571273E+03 0.  0.
         24    2    3    3    0    0 -0.14727279443E+02 -0.53173909928E+03 -0.24878099657E+03  0.59263950222E+03  0.79788676405E+02 0.  0.
         -6    2    1    2    0  502  0.70228144811E+01  0.53063598009E+03 -0.56372799003E+03  0.79328769990E+03  0.17289379625E+03 0.  0.
        -24    2    5    5    0    0 -0.93205672557E+01  0.36827221920E+03 -0.29322060305E+03  0.47733606849E+03  0.78486303423E+02 0.  0.
         14    1    4    4    0    0 -0.41934417827E+02 -0.26863575815E+03 -0.10399371737E+03  0.29109853866E+03  0.00000000000E+00 0. -1.
        -13    1    4    4    0    0  0.27207138384E+02 -0.26310334112E+03 -0.14478727920E+03  0.30154096357E+03  0.00000000000E+00 0.  1.
          5    1    3    3  501    0  0.77044649615E+01  0.11031191831E+01 -0.29565931583E+02  0.30932344926E+02  0.47000000000E+01 0. -1.
         13    1    6    6    0    0  0.29295447544E+02  0.23125512479E+03 -0.20029698714E+03  0.30733701217E+03  0.00000000000E+00 0. -1.
        -14    1    6    6    0    0 -0.38616014799E+02  0.13701709441E+03 -0.92923615902E+02  0.16999905632E+03  0.00000000000E+00 0.  1.
         -5    1    5    5    0  502  0.16343381737E+02  0.16236376090E+03 -0.27050738699E+03  0.31595163141E+03  0.47000000000E+01 0.  1.
</event>
<event>
12    1  0.9749377E-001  0.3595127E+03  0.7818608E-02  0.1058777E+00
         21   -1    0    0  501  502  0.00000000000E+00  0.00000000000E+00  0.27255450030E+03  0.27255450030E+03  0.00000000000E+00 0. -1.
         21   -1    0    0  502  503 -0.00000000000E+00 -0.00000000000E+00 -0.58640713686E+03  0.58640713686E+03  0.00000000000E+00 0.  1.
         -6    2    1    2    0  503 -0.74069657849E+02  0.32113284304E+03 -0.31460632649E+03  0.48714861075E+03  0.17240652886E+03 0.  0.
        -24    2    3    3    0    0 -0.38860955023E+02  0.30388447085E+03 -0.31650521610E+03  0.44761565134E+03  0.79550449764E+02 0.  0.
          6    2    1    2  501    0  0.74069657849E+02 -0.32113284304E+03  0.75368993243E+00  0.37181302641E+03  0.17213872740E+03 0.  0.
         24    2    5    5    0    0  0.40381036525E+02 -0.73631036924E+02  0.31355494024E+02  0.12011752059E+03  0.79955575406E+02 0.  0.
         12    1    6    6    0    0 -0.22961914905E+02 -0.27504692148E+02  0.30271717682E+00  0.35830842356E+02  0.00000000000E+00 0. -1.
        -11    1    6    6    0    0  0.63342951430E+02 -0.46126344776E+02  0.31052776847E+02  0.84286678237E+02  0.00000000000E+00 0.  1.
          5    1    5    5  501    0  0.33688621324E+02 -0.24750180611E+03 -0.30601804092E+02  0.25169550582E+03  0.47000000000E+01 0. -1.
         13    1    4    4    0    0 -0.61873805590E+02  0.22427067548E+03 -0.24853477213E+03  0.34043389469E+03  0.00000000000E+00 0. -1.
        -14    1    4    4    0    0  0.23012850567E+02  0.79613795376E+02 -0.67970443970E+02  0.10718175665E+03  0.00000000000E+00 0.  1.
         -5    1    3    3    0  503 -0.35208702826E+02  0.17248372184E+02  0.18988896045E+01  0.39532959406E+02  0.47000000000E+01 0.  1.
</event>
<event>
12    1  0.9749377E-001  0.7951886E+03  0.7818608E-02  0.9567008E-01
         21   -1    0    0  503  502  0.00000000000E+00  0.00000000000E+00  0.11628270117E+04  0.11628270117E+04  0.00000000000E+00 0. -1.
         21   -1    0    0  501  503 -0.00000000000E+00 -0.00000000000E+00 -0.60349996014E+03  0.60349996014E+03  0.00000000000E+00 0.  1.
          6    2    1    2  501    0 -0.38552783941E+03  0.68828003935E+03  0.51917464181E+03  0.95942392238E+03  0.16908822139E+03 0.  0.
         24    2    3    3    0    0 -0.27074687574E+03  0.41123697709E+03  0.38808686040E+03  0.63211119058E+03  0.80829598459E+02 0.  0.
         -6    2    1    2    0  502  0.38552783941E+03 -0.68828003935E+03  0.40152409798E+02  0.80690304951E+03  0.16467904471E+03 0.  0.
        -24    2    5    5    0    0  0.16192576990E+03 -0.34037380958E+03 -0.33805766852E+02  0.38675006297E+03  0.79740178901E+02 0.  0.
         12    1    4    4    0    0 -0.23234503489E+03  0.39144159339E+03  0.36242127291E+03  0.58185901672E+03  0.00000000000E+00 0. -1.
        -11    1    4    4    0    0 -0.38401840850E+02  0.19795383694E+02  0.25665587493E+02  0.50252173859E+02  0.00000000000E+00 0.  1.
          5    1    3    3  501    0 -0.11478096366E+03  0.27704306226E+03  0.13108778141E+03  0.32731273181E+03  0.47000000000E+01 0. -1.
         11    1    6    6    0    0  0.34034516089E+02 -0.10777251178E+03 -0.43574973581E+02  0.12112820029E+03  0.00000000000E+00 0. -1.
        -12    1    6    6    0    0  0.12789125381E+03 -0.23260129780E+03  0.97692067288E+01  0.26562186269E+03  0.00000000000E+00 0.  1.
         -5    1    5    5    0  502  0.22360206951E+03 -0.34790622977E+03  0.73958176651E+02  0.42015298654E+03  0.47000000000E+01 0.  1.
</event>
<event>
12    1  0.9749377E-001  0.5094476E+03  0.7818608E-02  0.1011342E+00
         21   -1    0    0  501  502  0.00000000000E+00  0.00000000000E+00  0.17283798827E+04  0.17283798827E+04  0.00000000000E+00 0. -1.
         21   -1    0    0  502  503 -0.00000000000E+00 -0.00000000000E+00 -0.15346290060E+03  0.15346290060E+03  0.00000000000E+00 0.  1.
         -6    2    1    2    0  503 -0.48256071439E+03 -0.19922996109E+02  0.87872477450E+03  0.10174121342E+04  0.17236140117E+03 0.  0.
        -24    2    3    3    0    0 -0.23842654938E+03 -0.69292585358E+02  0.49669063864E+03  0.56132988521E+03  0.82103396269E+02 0.  0.
          6    2    1    2  501    0  0.48256071439E+03  0.19922996109E+02  0.69619220758E+03  0.86443064911E+03  0.17115778796E+03 0.  0.
         24    2    5    5    0    0  0.10136639101E+03  0.13684496478E+02  0.14681345903E+03  0.19571013170E+03  0.79283372943E+02 0.  0.
         14    1    6    6    0    0  0.56769746742E+02 -0.31752028693E+02  0.63999163667E+02  0.91251785852E+02  0.00000000000E+00 0. -1.
        -13    1    6    6    0    0  0.44596644271E+02  0.45436525170E+02  0.82814295363E+02  0.10445834584E+03  0.00000000000E+00 0.  1.
          5    1    5    5  501    0  0.38119432337E+03  0.62384996317E+01  0.54937874855E+03  0.66872051742E+03  0.47000000000E+01 0. -1.
         13    1    4    4    0    0 -0.83456902344E+02  0.12776563747E+02  0.19274312183E+03  0.21042387256E+03  0.00000000000E+00 0. -1.
        -14    1    4    4    0    0 -0.15496964704E+03 -0.82069149105E+02  0.30394751681E+03  0.35090601265E+03  0.00000000000E+00 0.  1.
         -5    1    3    3    0  503 -0.24413416500E+03  0.49369589249E+02  0.38203413586E+03  0.45608224897E+03  0.47000000000E+01 0.  1.
</event>
<event>
12    1  0.9749377E-001  0.4615306E+03  0.7818608E-02  0.1024338E+00
         21   -1    0    0  503  502  0.00000000000E+00  0.00000000000E+00  0.18129302805E+04  0.18129302805E+04  0.00000000000E+00 0.  1.
         21   -1    0    0  501  503 -0.00000000000E+00 -0.00000000000E+00 -0.14233805549E+03  0.14233805549E+03  0.00000000000E+00 0. -1.
          6    2    1    2  501    0  0.42937775653E+03 -0.87510725248E+02  0.12021901139E+04  0.12910551828E+04  0.17186922455E+03 0.  0.
         24    2    3    3    0    0  0.40642650671E+03 -0.52571261392E+02  0.11529686405E+04  0.12263066736E+04  0.80901970974E+02 0.  0.
         -6    2    1    2    0  502 -0.42937775653E+03  0.87510725248E+02  0.46840211112E+03  0.66421315315E+03  0.17249692833E+03 0.  0.
        -24    2    5    5    0    0 -0.38952725942E+03  0.12161799032E+03  0.43278041020E+03  0.60063357131E+03  0.83302953916E+02 0.  0.
         14    1    4    4    0    0  0.22587792186E+03 -0.50223012704E+02  0.74641700761E+03  0.78146115440E+03  0.00000000000E+00 0. -1.
        -13    1    4    4    0    0  0.18054858485E+03 -0.23482486878E+01  0.40655163289E+03  0.44484551922E+03  0.00000000000E+00 0.  1.
          5    1    3    3  501    0  0.22951249826E+02 -0.34939463856E+02  0.49221473402E+02  0.64748509226E+02  0.47000000000E+01 0. -1.
         11    1    6    6    0    0 -0.14473563671E+03  0.40004821660E+01  0.15723952550E+03  0.21374909771E+03  0.00000000000E+00 0. -1.
        -12    1    6    6    0    0 -0.24479162272E+03  0.11761750816E+03  0.27554088470E+03  0.38688447361E+03  0.00000000000E+00 0.  1.
         -5    1    5    5    0  502 -0.39850497109E+02 -0.34107265073E+02  0.35621700917E+02  0.63579581839E+02  0.47000000000E+01 0.  1.
</event>
<event>
12    1  0.9749377E-001  0.9685310E+03  0.7818608E-02  0.9343749E-01
         21   -1    0    0  501  502  0.00000000000E+00  0.00000000000E+00  0.36776510568E+04  0.36776510568E+04  0.00000000000E+00 0.  1.
         21   -1    0    0  502  503 -0.00000000000E+00 -0.00000000000E+00 -0.28370384701E+03  0.28370384701E+03  0.00000000000E+00 0. -1.
         -6    2    1    2    0  503 -0.88515115125E+03 -0.37936116764E+03  0.11257467354E+04  0.14914121265E+04  0.17203767774E+03 0.  0.
        -24    2    3    3    0    0 -0.77535451033E+03 -0.32760882034E+03  0.89889023159E+03  0.12340804900E+04  0.80304740889E+02 0.  0.
          6    2    1    2  501    0  0.88515115125E+03  0.37936116764E+03  0.22682004743E+04  0.24699427773E+04  0.16874974186E+03 0.  0.
         24    2    5    5    0    0  0.30537230362E+03  0.92943760861E+02  0.83826140328E+03  0.90057147645E+03  0.80349346359E+02 0.  0.
         14    1    6    6    0    0  0.41960510217E+02  0.38130536510E+02  0.20091546638E+03  0.20876217776E+03  0.00000000000E+00 0. -1.
        -13    1    6    6    0    0  0.26341179340E+03  0.54813224351E+02  0.63734593690E+03  0.69180929868E+03  0.00000000000E+00 0.  1.
          5    1    5    5  501    0  0.57977884763E+03  0.28641740677E+03  0.14299390710E+04  0.15693713009E+04  0.47000000000E+01 0. -1.
         11    1    4    4    0    0 -0.48598211829E+02 -0.81228187100E+01  0.76764654850E+02  0.91217205674E+02  0.00000000000E+00 0. -1.
        -12    1    4    4    0    0 -0.72675629850E+03 -0.31948600163E+03  0.82212557674E+03  0.11428632843E+04  0.00000000000E+00 0.  1.
         -5    1    3    3    0  503 -0.10979664092E+03 -0.51752347293E+02  0.22685650385E+03  0.25733163651E+03  0.47000000000E+01 0.  1.
</event>
<event>
12    1  0.9749377E-001  0.7365686E+03  0.7818608E-02  0.9656661E-01
         21   -1    0    0  503  502  0.00000000000E+00  0.00000000000E+00  0.46391503470E+03  0.46391503470E+03  0.00000000000E+00 0. -1.
         21   -1    0    0  501  503 -0.00000000000E+00 -0.00000000000E+00 -0.17450478547E+04  0.17450478547E+04  0.00000000000E+00 0.  1.
          6    2    1    2  501    0  0.56454988427E+03  0.45961865599E+03 -0.12505761721E+04  0.14589621763E+04  0.18618267576E+03 0.  0.
         24    2    3    3    0    0  0.13601634155E+03  0.99625944557E+02 -0.22460932715E+03  0.29025955948E+03  0.73317719750E+02 0.  0.
         -6    2    1    2    0  502 -0.56454988427E+03 -0.45961865599E+03 -0.30556647887E+02  0.75000071314E+03  0.17776805177E+03 0.  0.
        -24    2    5    5    0    0 -0.26829003380E+03 -0.30234898401E+03  0.83725659942E+01  0.41230081321E+03  0.80792390385E+02 0.  0.
         14    1    4    4    0    0  0.96127931734E+02  0.56496762205E+02 -0.19462753105E+03  0.22430412221E+03  0.00000000000E+00 0. -1.
        -13    1    4    4    0    0  0.39888409812E+02  0.43129182352E+02 -0.29981796105E+02  0.65955437269E+02  0.00000000000E+00 0.  1.
          5    1    3    3  501    0  0.42853354272E+03  0.35999271143E+03 -0.10259668449E+04  0.11687026168E+04  0.47000000000E+01 0. -1.
         11    1    6    6    0    0 -0.51314023921E+02 -0.29668587669E+02 -0.20293076604E+02  0.62651122123E+02  0.00000000000E+00 0. -1.
        -12    1    6    6    0    0 -0.21697600988E+03 -0.27268039634E+03  0.28665642598E+02  0.34964969108E+03  0.00000000000E+00 0.  1.
         -5    1    5    5    0  502 -0.29625985047E+03 -0.15726967198E+03 -0.38929213881E+02  0.33769989994E+03  0.47000000000E+01 0.  1.
</event>
<event>
12    1  0.9749377E-001  0.2169776E+03  0.7818608E-02  0.1136157E+00
         21   -1    0    0  503  502  0.00000000000E+00  0.00000000000E+00  0.54776172342E+03  0.54776172342E+03  0.00000000000E+00 0.  1.
         21   -1    0    0  501  503 -0.00000000000E+00 -0.00000000000E+00 -0.17051923839E+03  0.17051923839E+03  0.00000000000E+00 0. -1.
          6    2    1    2  501    0 -0.17286839584E+03  0.43751808126E+02  0.39298071519E+03  0.46440269662E+03  0.17157598644E+03 0.  0.
         24    2    3    3    0    0 -0.16542838706E+03  0.12596882316E+02  0.39045085044E+03  0.43193004122E+03  0.81157015766E+02 0.  0.
         -6    2    1    2    0  502  0.17286839584E+03 -0.43751808126E+02 -0.15738230156E+02  0.25387826520E+03  0.18002438351E+03 0.  0.
        -24    2    5    5    0    0  0.58568993673E+02 -0.59848905196E+02 -0.60214728573E+02  0.13008925607E+03  0.79279143128E+02 0.  0.
         14    1    4    4    0    0 -0.15954540556E+03 -0.32828325416E+01  0.37970098448E+03  0.41187176528E+03  0.00000000000E+00 0. -1.
        -13    1    4    4    0    0 -0.58829815027E+01  0.15879714857E+02  0.10749865964E+02  0.20058275937E+02  0.00000000000E+00 0.  1.
          5    1    3    3  501    0 -0.74400087771E+01  0.31154925810E+02  0.25298647440E+01  0.32472655396E+02  0.47000000000E+01 0. -1.
         13    1    6    6    0    0  0.12811380155E+01  0.15130513507E+02 -0.25240906584E+02  0.29456359565E+02  0.00000000000E+00 0. -1.
        -14    1    6    6    0    0  0.57287855658E+02 -0.74979418702E+02 -0.34973821989E+02  0.10063289651E+03  0.00000000000E+00 0.  1.
         -5    1    5    5    0  502  0.11429940216E+03  0.16097097070E+02  0.44476498417E+02  0.12378900913E+03  0.47000000000E+01 0.  1.
</event>
<event>
12    1  0.9749377E-001  0.3595682E+03  0.7818608E-02  0.1058755E+00
         21   -1    0    0  503  502  0.00000000000E+00  0.00000000000E+00  0.16586441569E+03  0.16586441569E+03  0.00000000000E+00 0.  1.
         21   -1    0    0  501  503 -0.00000000000E+00 -0.00000000000E+00 -0.97148871449E+03  0.97148871449E+03  0.00000000000E+00 0. -1.
          6    2    1    2  501    0 -0.95087672395E+02 -0.32327943337E+03 -0.21262650822E+03  0.43395466979E+03  0.17191674136E+03 0.  0.
         24    2    3    3    0    0 -0.49123599184E+02 -0.35312397583E+02 -0.10987762677E+02  0.79387351181E+02  0.50214810356E+02 0.  0.
         -6    2    1    2    0  502  0.95087672395E+02  0.32327943337E+03 -0.59299779058E+03  0.70339846039E+03  0.17196440608E+03 0.  0.
        -24    2    5    5    0    0  0.29528679192E+02  0.16558315451E+03 -0.19110168594E+03  0.26669642595E+03  0.79482106742E+02 0.  0.
         14    1    4    4    0    0 -0.48927150115E+02 -0.11828176295E+02  0.55822599425E+01  0.50645171526E+02  0.00000000000E+00 0. -1.
        -13    1    4    4    0    0 -0.19644906889E+00 -0.23484221288E+02 -0.16570022619E+02  0.28742179655E+02  0.00000000000E+00 0.  1.
          5    1    3    3  501    0 -0.45964073211E+02 -0.28796703578E+03 -0.20163874554E+03  0.35456731861E+03  0.47000000000E+01 0. -1.
         11    1    6    6    0    0 -0.23073701484E+02  0.33792444238E+02 -0.65295504789E+02  0.77057302920E+02  0.00000000000E+00 0. -1.
        -12    1    6    6    0    0  0.52602380677E+02  0.13179071027E+03 -0.12580618115E+03  0.18963912303E+03  0.00000000000E+00 0.  1.
         -5    1    5    5    0  502  0.65558993202E+02  0.15769627886E+03 -0.40189610464E+03  0.43670203444E+03  0.47000000000E+01 0.  1.
</event>
<event>
12    1  0.9749377E-001  0.3805874E+03  0.7818608E-02  0.1050717E+00
         21   -1    0    0  501  502  0.00000000000E+00  0.00000000000E+00  0.12238193801E+04  0.12238193801E+04  0.00000000000E+00 0. -1.
         21   -1    0    0  502  503 -0.00000000000E+00 -0.00000000000E+00 -0.16752147302E+03  0.16752147302E+03  0.00000000000E+00 0.  1.
         -6    2    1    2    0  503 -0.20852507743E+03  0.29028815408E+03  0.19210992064E+03  0.44048361386E+03  0.17137582138E+03 0.  0.
        -24    2    3    3    0    0 -0.64986369118E+02  0.19587588800E+03  0.80461180568E+02  0.23553345423E+03  0.80071310812E+02 0.  0.
          6    2    1    2  501    0  0.20852507743E+03 -0.29028815408E+03  0.86418798643E+03  0.95085723924E+03  0.17192641800E+03 0.  0.
         24    2    5    5    0    0  0.18850507661E+03 -0.17975214920E+03  0.70635299049E+03  0.75707131418E+03  0.79858803675E+02 0.  0.
         14    1    6    6    0    0  0.16214864364E+03 -0.13410828856E+03  0.47064657162E+03  0.51554380132E+03  0.00000000000E+00 0. -1.
        -13    1    6    6    0    0  0.26356432970E+02 -0.45643860636E+02  0.23570641887E+03  0.24152751286E+03  0.00000000000E+00 0.  1.
          5    1    5    5  501    0  0.20020000816E+02 -0.11053600489E+03  0.15783499594E+03  0.19378592506E+03  0.47000000000E+01 0. -1.
         11    1    4    4    0    0 -0.37683193164E+02  0.37970175323E+02  0.48332336876E+02  0.72095575793E+02  0.00000000000E+00 0. -1.
        -12    1    4    4    0    0 -0.27303175955E+02  0.15790571267E+03  0.32128843692E+02  0.16343787844E+03  0.00000000000E+00 0.  1.
         -5    1    3    3    0  503 -0.14353870831E+03  0.94412266087E+02  0.11164874007E+03  0.20495015963E+03  0.47000000000E+01 0.  1.
</event>
<event>
12    1  0.9749377E-001  0.8571059E+03  0.7818608E-02  0.9480849E-01
         21   -1    0    0  501  502  0.00000000000E+00  0.00000000000E+00  0.10936037324E+04  0.10936037324E+04  0.00000000000E+00 0.  1.
         21   -1    0    0  502  503 -0.00000000000E+00 -0.00000000000E+00 -0.12452653428E+04  0.12452653428E+04  0.00000000000E+00 0. -1.
         -6    2    1    2    0  503 -0.53877926059E+03 -0.65769849248E+03 -0.85844086772E+03  0.12202411498E+04  0.17093080972E+03 0.  0.
        -24    2    3    3    0    0 -0.32391094353E+03 -0.47269947978E+03 -0.63772191751E+03  0.86089177477E+03  0.77989141976E+02 0.  0.
          6    2    1    2  501    0  0.53877926059E+03  0.65769849248E+03  0.70677925728E+03  0.11186279254E+04  0.17012089349E+03 0.  0.
         24    2    5    5    0    0  0.50122906716E+03  0.58167495460E+03  0.57861216629E+03  0.96487979196E+03  0.81391912156E+02 0.  0.
         12    1    6    6    0    0  0.20070168886E+03  0.22022243680E+03  0.17668188550E+03  0.34640377920E+03  0.00000000000E+00 0. -1.
        -11    1    6    6    0    0  0.30052737830E+03  0.36145251780E+03  0.40193028079E+03  0.61847601275E+03  0.00000000000E+00 0.  1.
          5    1    5    5  501    0  0.37550193432E+02  0.76023537875E+02  0.12816709099E+03  0.15374813349E+03  0.47000000000E+01 0. -1.
         13    1    4    4    0    0 -0.24413912452E+03 -0.29512385246E+03 -0.40368082432E+03  0.55647121070E+03  0.00000000000E+00 0. -1.
        -14    1    4    4    0    0 -0.79771819010E+02 -0.17757562732E+03 -0.23404109319E+03  0.30442056407E+03  0.00000000000E+00 0.  1.
         -5    1    3    3    0  503 -0.21486831706E+03 -0.18499901269E+03 -0.22071895021E+03  0.35934937506E+03  0.47000000000E+01 0.  1.
</event>
<event>
12    1  0.9749377E-001  0.3203981E+03  0.7818608E-02  0.1075466E+00
         21   -1    0    0  503  502  0.00000000000E+00  0.00000000000E+00  0.20545247624E+03  0.20545247624E+03  0.00000000000E+00 0. -1.
         21   -1    0    0  501  503 -0.00000000000E+00 -0.00000000000E+00 -0.10701898513E+04  0.10701898513E+04  0.00000000000E+00 0.  1.
          6    2    1    2  501    0  0.85398568226E+02  0.28884036496E+03 -0.85940348746E+03  0.92670391229E+03  0.17170939085E+03 0.  0.
         24    2    3    3    0    0  0.11528153299E+02  0.18233920461E+03 -0.62745261621E+03  0.66095472221E+03  0.98913474086E+02 0.  0.
         -6    2    1    2    0  502 -0.85398568226E+02 -0.28884036496E+03 -0.53338876277E+01  0.34893841528E+03  0.17609058865E+03 0.  0.
        -24    2    5    5    0    0 -0.74397707399E+02 -0.19080430243E+03  0.63093088465E+02  0.22878672135E+03  0.80133172677E+02 0.  0.
         14    1    4    4    0    0 -0.28000595378E+02  0.10014714866E+02 -0.11825138069E+03  0.12193324768E+03  0.00000000000E+00 0. -1.
        -13    1    4    4    0    0  0.39528748677E+02  0.17232448975E+03 -0.50920123553E+03  0.53902147453E+03  0.00000000000E+00 0.  1.
          5    1    3    3  501    0  0.73870414927E+02  0.10650116035E+03 -0.23195087125E+03  0.26574919008E+03  0.47000000000E+01 0. -1.
         11    1    6    6    0    0 -0.54002579460E+02 -0.11115384411E+03 -0.25073957616E+01  0.12360316615E+03  0.00000000000E+00 0. -1.
        -12    1    6    6    0    0 -0.20395127939E+02 -0.79650458318E+02  0.65600484227E+02  0.10518355520E+03  0.00000000000E+00 0.  1.
         -5    1    5    5    0  502 -0.11000860827E+02 -0.98036062534E+02 -0.68426976093E+02  0.12015169393E+03  0.47000000000E+01 0.  1.
</event>
<event>
12    1  0.9749377E-001  0.3013415E+03  0.7818608E-02  0.1084572E+00
         21   -1    0    0  503  502  0.00000000000E+00  0.00000000000E+00  0.11024845877E+03  0.11024845877E+03  0.00000000000E+00 0.  1.
         21   -1    0    0  501  503 -0.00000000000E+00 -0.00000000000E+00 -0.10262098988E+04  0.10262098988E+04  0.00000000000E+00 0. -1.
          6    2    1    2  501    0  0.24876920871E+03 -0.79075536218E+02 -0.25434693618E+03  0.40458658431E+03  0.17566695940E+03 0.  0.
         24    2    3    3    0    0  0.21638153848E+03 -0.10015830089E+03 -0.26384659911E+03  0.36451442758E+03  0.80019276562E+02 0.  0.
         -6    2    1    2    0  502 -0.24876920871E+03  0.79075536218E+02 -0.66161450387E+03  0.73187177327E+03  0.17252095862E+03 0.  0.
        -24    2    5    5    0    0 -0.25973661429E+03  0.43329159455E+02 -0.57305932199E+03  0.63563146117E+03  0.79308530743E+02 0.  0.
         14    1    4    4    0    0  0.68256777201E+02 -0.73945048676E+02 -0.11651343508E+03  0.15395531303E+03  0.00000000000E+00 0. -1.
        -13    1    4    4    0    0  0.14812476128E+03 -0.26213252211E+02 -0.14733316404E+03  0.21055911455E+03  0.00000000000E+00 0.  1.
          5    1    3    3  501    0  0.32387670225E+02  0.21082764669E+02  0.94996629278E+01  0.40072156723E+02  0.47000000000E+01 0. -1.
         11    1    6    6    0    0 -0.15617398407E+02  0.25931178980E+02 -0.63433175268E+02  0.70285822901E+02  0.00000000000E+00 0. -1.
        -12    1    6    6    0    0 -0.24411921588E+03  0.17397980475E+02 -0.50962614672E+03  0.56534563827E+03  0.00000000000E+00 0.  1.
         -5    1    5    5    0  502  0.10967405583E+02  0.35746376763E+02 -0.88555181878E+02  0.96240312106E+02  0.47000000000E+01 0.  1.
</event>
<event>
12    1  0.9749377E-001  0.5712712E+03  0.7818608E-02  0.9966869E-01
         21   -1    0    0  503  502  0.00000000000E+00  0.00000000000E+00  0.42400443537E+03  0.42400443537E+03  0.00000000000E+00 0. -1.
         21   -1    0    0  501  503 -0.00000000000E+00 -0.00000000000E+00 -0.91308192741E+03  0.91308192741E+03  0.00000000000E+00 0.  1.
          6    2    1    2  501    0 -0.55280508621E+03  0.41803394017E+02 -0.48497232082E+03  0.75667190924E+03  0.17324329474E+03 0.  0.
         24    2    3    3    0    0 -0.12492329953E+03  0.43513702680E+02 -0.14672614851E+03  0.21121951754E+03  0.74738536547E+02 0.  0.
         -6    2    1    2    0  502  0.55280508621E+03 -0.41803394017E+02 -0.41051712159E+01  0.58041445355E+03  0.17182286917E+03 0.  0.
        -24    2    5    5    0    0  0.38580019515E+03 -0.25078356345E+02 -0.68051963873E+02  0.40074352431E+03  0.80582801856E+02 0.  0.
         14    1    4    4    0    0 -0.16646360905E+02  0.40199531118E+02 -0.45558888256E+02  0.62997745456E+02  0.00000000000E+00 0. -1.
        -13    1    4    4    0    0 -0.10827693862E+03  0.33141715619E+01 -0.10116726026E+03  0.14822177208E+03  0.00000000000E+00 0.  1.
          5    1    3    3  501    0 -0.42788178668E+03 -0.17103086629E+01 -0.33824617231E+03  0.54545239170E+03  0.47000000000E+01 0. -1.
         11    1    6    6    0    0  0.36489630011E+03 -0.42911432311E+02 -0.64674147861E+02  0.37305957468E+03  0.00000000000E+00 0. -1.
        -12    1    6    6    0    0  0.20903895039E+02  0.17833075966E+02 -0.33778160117E+01  0.27683949632E+02  0.00000000000E+00 0.  1.
         -5    1    5    5    0  502  0.16700489106E+03 -0.16725037671E+02  0.63946792657E+02  0.17967092924E+03  0.47000000000E+01 0.  1.
</event>
<event>
12    1  0.9749377E-001  0.7622925E+03  0.7818608E-02  0.9616260E-01
         21   -1    0    0  501  502  0.00000000000E+00  0.00000000000E+00  0.11383658719E+04  0.11383658719E+04  0.00000000000E+00 0. -1.
         21   -1    0    0  502  503 -0.00000000000E+00 -0.00000000000E+00 -0.64483233534E+03  0.64483233534E+03  0.00000000000E+00 0.  1.
         -6    2    1    2    0  503  0.42312791154E+03 -0.61950609991E+03  0.63936035619E+03  0.10006683754E+04  0.17242533202E+03 0.  0.
        -24    2    3    3    0    0  0.77242017290E+02 -0.16162631828E+03  0.17159113112E+03  0.26031637522E+03  0.78941135850E+02 0.  0.
          6    2    1    2  501    0 -0.42312791154E+03  0.61950609991E+03 -0.14582681959E+03  0.78252983187E+03  0.16811436318E+03 0.  0.
         24    2    5    5    0    0 -0.81079661742E+02  0.15518209813E+03 -0.46683512667E+02  0.19734159794E+03  0.78159841328E+02 0.  0.
         12    1    6    6    0    0 -0.17566197926E+02  0.80129052536E+01  0.16155158177E+02  0.25174731298E+02  0.00000000000E+00 0. -1.
        -11    1    6    6    0    0 -0.63513463816E+02  0.14716919287E+03 -0.62838670844E+02  0.17216686664E+03  0.00000000000E+00 0.  1.
          5    1    5    5  501    0 -0.34204824980E+03  0.46432400178E+03 -0.99143306921E+02  0.58518823393E+03  0.47000000000E+01 0. -1.
         11    1    4    4    0    0  0.40491873609E+02 -0.14905852575E+02  0.25992347466E+02  0.50372397165E+02  0.00000000000E+00 0. -1.
        -12    1    4    4    0    0  0.36750143681E+02 -0.14672046570E+03  0.14559878366E+03  0.20994397805E+03  0.00000000000E+00 0.  1.
         -5    1    3    3    0  503  0.34588589425E+03 -0.45787978163E+03  0.46776922507E+03  0.74035200019E+03  0.47000000000E+01 0.  1.
</event>
<event>
12    1  0.9749377E-001  0.6815964E+03  0.7818608E-02  0.9749233E-01
         21   -1    0    0  503  502  0.00000000000E+00  0.00000000000E+00  0.52529315007E+03  0.52529315007E+03  0.00000000000E+00 0.  1.
         21   -1    0    0  501  503 -0.00000000000E+00 -0.00000000000E+00 -0.12629560365E+04  0.12629560365E+04  0.00000000000E+00 0. -1.
          6    2    1    2  501    0 -0.32218685879E+03 -0.59464941310E+03 -0.82775676623E+03  0.10825343150E+04  0.17113439906E+03 0.  0.
         24    2    3    3    0    0 -0.29704820006E+03 -0.53196729577E+03 -0.80137951208E+03  0.10098786233E+04  0.80117878540E+02 0.  0.
         -6    2    1    2    0  502  0.32218685879E+03  0.59464941310E+03  0.90093879811E+02  0.70571487161E+03  0.18028942384E+03 0.  0.
        -24    2    5    5    0    0  0.17865305235E+03  0.33268138479E+03 -0.23103775727E+02  0.38623873687E+03  0.77799489097E+02 0.  0.
         12    1    4    4    0    0 -0.10825688496E+03 -0.12198359026E+03 -0.21957348197E+03  0.27351793985E+03  0.00000000000E+00 0. -1.
        -11    1    4    4    0    0 -0.18879131510E+03 -0.40998370552E+03 -0.58180603011E+03  0.73636068344E+03  0.00000000000E+00 0.  1.
          5    1    3    3  501    0 -0.25138658724E+02 -0.62682117327E+02 -0.26377254151E+02  0.72655691667E+02  0.47000000000E+01 0. -1.
         13    1    6    6    0    0  0.10739141810E+03  0.13726249761E+03  0.14412097954E+02  0.17487600893E+03  0.00000000000E+00 0. -1.
        -14    1    6    6    0    0  0.71261634251E+02  0.19541888718E+03 -0.37515873681E+02  0.21136272794E+03  0.00000000000E+00 0.  1.
         -5    1    5    5    0  502  0.14353380643E+03  0.26196802831E+03  0.11319765554E+03  0.31947613474E+03  0.47000000000E+01 0.  1.
</event>
<event>
12    1  0.9749377E-001  0.9332933E+03  0.7818608E-02  0.9384894E-01
         21   -1    0    0  501  502  0.00000000000E+00  0.00000000000E+00  0.90167283928E+03  0.90167283928E+03  0.00000000000E+00 0. -1.
         21   -1    0    0  502  503 -0.00000000000E+00 -0.00000000000E+00 -0.98643527111E+03  0.98643527111E+03  0.00000000000E+00 0.  1.
         -6    2    1    2    0  503  0.89091282473E+03 -0.25072119952E+03  0.18461296128E+02  0.94113792314E+03  0.16974389457E+03 0.  0.
        -24    2    3    3    0    0  0.87206810852E+03 -0.22316559068E+03  0.32992622630E+02  0.90442710242E+03  0.81204702335E+02 0.  0.
          6    2    1    2  501    0 -0.89091282473E+03  0.25072119952E+03 -0.10322372795E+03  0.94697018725E+03  0.17178654304E+03 0.  0.
         24    2    5    5    0    0 -0.53070796300E+03  0.18380860734E+03 -0.34559411222E+01  0.56723272703E+03  0.79400736512E+02 0.  0.
         14    1    6    6    0    0 -0.20056314159E+03  0.41462304089E+02  0.26265996642E+02  0.20648147375E+03  0.00000000000E+00 0. -1.
        -13    1    6    6    0    0 -0.33014482142E+03  0.14234630325E+03 -0.29721937764E+02  0.36075125328E+03  0.00000000000E+00 0.  1.
          5    1    5    5  501    0 -0.36020486173E+03  0.66912592182E+02 -0.99767786831E+02  0.37973746022E+03  0.47000000000E+01 0. -1.
         11    1    4    4    0    0  0.86347945092E+02 -0.40294740460E+01 -0.13054551317E+02  0.87422111578E+02  0.00000000000E+00 0. -1.
        -12    1    4    4    0    0  0.78572016343E+03 -0.21913611664E+03  0.46047173946E+02  0.81700499084E+03  0.00000000000E+00 0.  1.
         -5    1    3    3    0  503  0.18844716212E+02 -0.27555608839E+02 -0.14531326502E+02  0.36710820715E+02  0.47000000000E+01 0.  1.
</event>
<event>
12    1  0.9749377E-001  0.1500786E+03  0.7818608E-02  0.1200376E+00
         21   -1    0    0  503  502  0.00000000000E+00  0.00000000000E+00  0.16337298702E+04  0.16337298702E+04  0.00000000000E+00 0. -1.
         21   -1    0    0  501  503 -0.00000000000E+00 -0.00000000000E+00 -0.32790031032E+02  0.32790031032E+02  0.00000000000E+00 0. -1.
          6    2    1    2  501    0  0.23232835854E+02 -0.47174601177E+01  0.13536886558E+04  0.13647217761E+04  0.17155328695E+03 0.  0.
         24    2    3    3    0    0 -0.21091058150E+02 -0.51679740900E+02  0.10121856843E+04  0.10171351927E+04  0.83237686539E+02 0.  0.
         -6    2    1    2    0  502 -0.23232835854E+02  0.47174601177E+01  0.24725118337E+03  0.30179812512E+03  0.17142619857E+03 0.  0.
        -24    2    5    5    0    0  0.35390753176E+02 -0.26547629186E+02  0.19992874331E+03  0.22009295800E+03  0.80697743072E+02 0.  0.
         12    1    4    4    0    0 -0.43446222524E+02 -0.46548085743E+02  0.91766555311E+03  0.91987192908E+03  0.00000000000E+00 0. -1.
        -11    1    4    4    0    0  0.22355164374E+02 -0.51316551570E+01  0.94520131192E+02  0.97263263668E+02  0.00000000000E+00 0.  1.
          5    1    3    3  501    0  0.44323894004E+02  0.46962280782E+02  0.34150297150E+03  0.34758658337E+03  0.47000000000E+01 0. -1.
         11    1    6    6    0    0 -0.73855024025E+01  0.18592657742E+02  0.10303252264E+03  0.10495681631E+03  0.00000000000E+00 0. -1.
        -12    1    6    6    0    0  0.42776255579E+02 -0.45140286928E+02  0.96896220664E+02  0.11513614169E+03  0.00000000000E+00 0.  1.
         -5    1    5    5    0  502 -0.58623589031E+02  0.31265089303E+02  0.47322440060E+02  0.81705167114E+02  0.47000000000E+01 0.  1.
</event>
<event>
12    1  0.9749377E-001  0.5958560E+03  0.7818608E-02  0.9914041E-01
         21   -1    0    0  503  502  0.00000000000E+00  0.00000000000E+00  0.12379414976E+04  0.12379414976E+04  0.00000000000E+00 0.  1.
         21   -1    0    0  501  503 -0.00000000000E+00 -0.00000000000E+00 -0.65742472412E+03  0.65742472412E+03  0.00000000000E+00 0. -1.
          6    2    1    2  501    0  0.31934222608E+03 -0.48337728331E+03 -0.41378554854E+03  0.73263094662E+03  0.17290624159E+03 0.  0.
         24    2    3    3    0    0  0.26575037627E+03 -0.47508651051E+03 -0.37239785809E+03  0.66425072872E+03  0.78856901592E+02 0.  0.
         -6    2    1    2    0  502 -0.31934222608E+03  0.48337728331E+03  0.99430232199E+03  0.11627352751E+04  0.16638256221E+03 0.  0.
        -24    2    5    5    0    0 -0.18142199688E+03  0.30670131210E+03  0.49328485834E+03  0.61384823996E+03  0.80623039181E+02 0.  0.
         12    1    4    4    0    0  0.19889882440E+03 -0.29069886357E+03 -0.21399906935E+03  0.41214338926E+03  0.00000000000E+00 0. -1.
        -11    1    4    4    0    0  0.66851551872E+02 -0.18438764694E+03 -0.15839878873E+03  0.25210733945E+03  0.00000000000E+00 0.  1.
          5    1    3    3  501    0  0.53591849810E+02 -0.82907727976E+01 -0.41387690452E+02  0.68380217904E+02  0.47000000000E+01 0. -1.
         11    1    6    6    0    0  0.14284359043E+01  0.47524976941E+02  0.76948786387E+02  0.90453190042E+02  0.00000000000E+00 0. -1.
        -12    1    6    6    0    0 -0.18285043279E+03  0.25917633516E+03  0.41633607195E+03  0.52339504992E+03  0.00000000000E+00 0.  1.
         -5    1    5    5    0  502 -0.13792022920E+03  0.17667597121E+03  0.50101746366E+03  0.54888703512E+03  0.47000000000E+01 0.  1.
</event>
<event>
12    1  0.9749377E-001  0.2489687E+03  0.7818608E-02  0.1113958E+00
         21   -1    0    0  503  502  0.00000000000E+00  0.00000000000E+00  0.87250129573E+03  0.87250129573E+03  0.00000000000E+00 0. -1.
         21   -1    0    0  501  503 -0.00000000000E+00 -0.00000000000E+00 -0.82331370719E+02  0.82331370719E+02  0.00000000000E+00 0.  1.
          6    2    1    2  501    0 -0.19686122378E+03  0.42113790867E+02  0.42309115235E+03  0.49875097503E+03  0.17093419519E+03 0.  0.
         24    2    3    3    0    0 -0.63511236308E+02 -0.34475483071E+02  0.18057705736E+03  0.21155189371E+03  0.83209939410E+02 0.  0.
         -6    2    1    2    0  502  0.19686122378E+03 -0.42113790867E+02  0.36707877265E+03  0.45608169141E+03  0.18093029348E+03 0.  0.
        -24    2    5    5    0    0  0.15887858991E+03 -0.83168793757E+02  0.19378515692E+03  0.27392527239E+03  0.72958297837E+02 0.  0.
         12    1    4    4    0    0  0.13925949736E+02 -0.26750550249E+02  0.71117575579E+02  0.77247870980E+02  0.00000000000E+00 0. -1.
        -11    1    4    4    0    0 -0.77437186044E+02 -0.77249328224E+01  0.10945948178E+03  0.13430402273E+03  0.00000000000E+00 0.  1.
          5    1    3    3  501    0 -0.13334998747E+03  0.76589273938E+02  0.24251409499E+03  0.28719908132E+03  0.47000000000E+01 0. -1.
         13    1    6    6    0    0  0.96656607283E+02 -0.58917252417E+02  0.16748736031E+03  0.20215280910E+03  0.00000000000E+00 0. -1.
        -14    1    6    6    0    0  0.62221982628E+02 -0.24251541340E+02  0.26297796606E+02  0.71772463284E+02  0.00000000000E+00 0.  1.
         -5    1    5    5    0  502  0.37982633870E+02  0.41055002890E+02  0.17329361574E+03  0.18215641903E+03  0.47000000000E+01 0.  1.
</event>
<event>
12    1  0.9749377E-001  0.4109090E+03  0.7818608E-02  0.1040066E+00
         21   -1    0    0  503  502  0.00000000000E+00  0.00000000000E+00  0.23600855688E+03  0.23600855688E+03  0.00000000000E+00 0. -1.
         21   -1    0    0  501  503 -0.00000000000E+00 -0.00000000000E+00 -0.98411727167E+03  0.98411727167E+03  0.00000000000E+00 0.  1.
          6    2    1    2  501    0 -0.38553096219E+03  0.56897360027E+02 -0.85838072677E+02  0.43310912389E+03  0.16835648516E+03 0.  0.
         24    2    3    3    0    0 -0.18059449145E+03 -0.22575803818E+02 -0.86478172168E+02  0.21325135046E+03  0.69811366935E+02 0.  0.
         -6    2    1    2    0  502  0.38553096219E+03 -0.56897360027E+02 -0.66227064212E+03  0.78701670465E+03  0.17006309889E+03 0.  0.
        -24    2    5    5    0    0  0.92926199255E+02 -0.25683175969E+02 -0.15577531163E+03  0.20122537458E+03  0.83251424170E+02 0.  0.
         12    1    4    4    0    0 -0.31170572270E+02  0.19810747266E+01 -0.47565024248E+02  0.56903082205E+02  0.00000000000E+00 0. -1.
        -11    1    4    4    0    0 -0.14942391918E+03 -0.24556878545E+02 -0.38913147921E+02  0.15634826826E+03  0.00000000000E+00 0.  1.
          5    1    3    3  501    0 -0.20493647074E+03  0.79473163844E+02  0.64009949190E+00  0.21985777343E+03  0.47000000000E+01 0. -1.
         11    1    6    6    0    0  0.32046388805E+02  0.28958189684E+02 -0.36258991082E+02  0.56393813663E+02  0.00000000000E+00 0. -1.
        -12    1    6    6    0    0  0.60879810450E+02 -0.54641365653E+02 -0.11951632054E+03  0.14483156091E+03  0.00000000000E+00 0.  1.
         -5    1    5    5    0  502  0.29260476293E+03 -0.31214184057E+02 -0.50649533049E+03  0.58579133007E+03  0.47000000000E+01 0.  1.
</event>
<event>
12    1  0.9749377E-001  0.2428810E+03  0.7818608E-02  0.1117888E+00
         21   -1    0    0  501  502  0.00000000000E+00  0.00000000000E+00  0.94311047443E+03  0.94311047443E+03  0.00000000000E+00 0. -1.
         21   -1    0    0  502  503 -0.00000000000E+00 -0.00000000000E+00 -0.75487344072E+02  0.75487344072E+02  0.00000000000E+00 0.  1.
         -6    2    1    2    0  503 -0.12595872728E+03  0.15164261183E+03  0.53108966583E+03  0.59185129563E+03  0.17137864595E+03 0.  0.
        -24    2    3    3    0    0 -0.68601334662E+02  0.13953748998E+03  0.25272840638E+03  0.30734560988E+03  0.80080099227E+02 0.  0.
          6    2    1    2  501    0  0.12595872728E+03 -0.15164261183E+03  0.33653346454E+03  0.42674652288E+03  0.17319566778E+03 0.  0.
         24    2    5    5    0    0  0.11228103408E+03 -0.18168114863E+03  0.29639843459E+03  0.37457082343E+03  0.82681311998E+02 0.  0.
         12    1    6    6    0    0  0.45926170017E+02 -0.35059232052E+02  0.13404523469E+03  0.14596742029E+03  0.00000000000E+00 0. -1.
        -11    1    6    6    0    0  0.66354864060E+02 -0.14662191658E+03  0.16235319990E+03  0.22860340313E+03  0.00000000000E+00 0.  1.
          5    1    5    5  501    0  0.13677693203E+02  0.30038536804E+02  0.40135029945E+02  0.52175699452E+02  0.47000000000E+01 0. -1.
         13    1    4    4    0    0  0.18378102230E+02  0.21721233167E+02  0.40675693062E+02  0.49639486480E+02  0.00000000000E+00 0. -1.
        -14    1    4    4    0    0 -0.86979436891E+02  0.11781625681E+03  0.21205271332E+03  0.25770612340E+03  0.00000000000E+00 0.  1.
         -5    1    3    3    0  503 -0.57357392618E+02  0.12105121844E+02  0.27836125945E+03  0.28450568575E+03  0.47000000000E+01 0.  1.
</event>
<event>
12    1  0.9749377E-001  0.5733584E+03  0.7818608E-02  0.9962274E-01
         21   -1    0    0  503  502  0.00000000000E+00  0.00000000000E+00  0.34099143137E+03  0.34099143137E+03  0.00000000000E+00 0.  1.
         21   -1    0    0  501  503 -0.00000000000E+00 -0.00000000000E+00 -0.13217041326E+04  0.13217041326E+04  0.00000000000E+00 0. -1.
          6    2    1    2  501    0  0.53149304255E+03 -0.18178354666E+03 -0.87974847394E+02  0.59406693974E+03  0.17217968233E+03 0.  0.
         24    2    3    3    0    0  0.38351606248E+03 -0.18145459334E+03 -0.10634683005E+03  0.44487942489E+03  0.81226318418E+02 0.  0.
         -6    2    1    2    0  502 -0.53149304255E+03  0.18178354666E+03 -0.89273785382E+03  0.10686286242E+04  0.17162793695E+03 0.  0.
        -24    2    5    5    0    0 -0.26088762202E+03  0.79355024255E+02 -0.55738392887E+03  0.62568027418E+03  0.80245810721E+02 0.  0.
         12    1    4    4    0    0  0.34225098809E+02 -0.10329806858E+01 -0.27494680199E+02  0.43913345088E+02  0.00000000000E+00 0. -1.
        -11    1    4    4    0    0  0.34929096367E+03 -0.18042161266E+03 -0.78852149853E+02  0.40096607981E+03  0.00000000000E+00 0.  1.
          5    1    3    3  501    0  0.14797698006E+03 -0.32895331480E+00  0.18371982658E+02  0.14918751485E+03  0.47000000000E+01 0. -1.
         13    1    6    6    0    0 -0.21066634278E+03  0.92370124411E+02 -0.48315613872E+03  0.53511905428E+03  0.00000000000E+00 0. -1.
        -14    1    6    6    0    0 -0.50221279234E+02 -0.13015100156E+02 -0.74227790146E+02  0.90561219901E+02  0.00000000000E+00 0.  1.
         -5    1    5    5    0  502 -0.27060542053E+03  0.10242852240E+03 -0.33535392495E+03  0.44294835004E+03  0.47000000000E+01 0.  1.
</event>
<event>
12    1  0.9749377E-001  0.8798521E+03  0.7818608E-02  0.9451124E-01
         21   -1    0    0  501  502  0.00000000000E+00  0.00000000000E+00  0.76981180488E+03  0.76981180488E+03  0.00000000000E+00 0.  1.
         21   -1    0    0  502  503 -0.00000000000E+00 -0.00000000000E+00 -0.10338632008E+04  0.10338632008E+04  0.00000000000E+00 0. -1.
         -6    2    1    2    0  503 -0.13092826339E+03 -0.85861029312E+03 -0.24124267999E+03  0.91765555999E+03  0.17187161060E+03 0.  0.
        -24    2    3    3    0    0 -0.54706163760E+02 -0.65066392375E+03 -0.22598413999E+03  0.69560508363E+03  0.80257677717E+02 0.  0.
          6    2    1    2  501    0  0.13092826339E+03  0.85861029312E+03 -0.22808715917E+02  0.88601944568E+03  0.17365590976E+03 0.  0.
         24    2    5    5    0    0  0.15141565574E+02  0.33909633532E+03 -0.54916523342E+02  0.35277061723E+03  0.78839661417E+02 0.  0.
         12    1    6    6    0    0  0.45222632928E+02  0.25885088777E+03 -0.41307064269E+02  0.26599838756E+03  0.00000000000E+00 0. -1.
        -11    1    6    6    0    0 -0.30081067354E+02  0.80245447552E+02 -0.13609459073E+02  0.86772229672E+02  0.00000000000E+00 0.  1.
          5    1    5    5  501    0  0.11578669782E+03  0.51951395780E+03  0.32107807426E+02  0.53324882844E+03  0.47000000000E+01 0. -1.
         13    1    4    4    0    0  0.17037305851E+02 -0.58410497351E+02 -0.28471455306E+02  0.67176482185E+02  0.00000000000E+00 0. -1.
        -14    1    4    4    0    0 -0.71743469612E+02 -0.59225342639E+03 -0.19751268468E+03  0.62842860145E+03  0.00000000000E+00 0.  1.
         -5    1    3    3    0  503 -0.76222099630E+02 -0.20794636937E+03 -0.15258540001E+02  0.22205047636E+03  0.47000000000E+01 0.  1.
</event>
<event>
12    1  0.9749377E-001  0.7821446E+03  0.7818608E-02  0.9586228E-01
         21   -1    0    0  503  502  0.00000000000E+00  0.00000000000E+00  0.61857069244E+03  0.61857069244E+03  0.00000000000E+00 0.  1.
         21   -1    0    0  501  503 -0.00000000000E+00 -0.00000000000E+00 -0.10488371896E+04  0.10488371896E+04  0.00000000000E+00 0. -1.
          6    2    1    2  501    0 -0.14201691347E+03 -0.76040456734E+03 -0.36513629494E+03  0.87216300614E+03  0.17017604311E+03 0.  0.
         24    2    3    3    0    0 -0.14460669830E+03 -0.55745395514E+03 -0.21635490527E+03  0.62046149663E+03  0.80604059864E+02 0.  0.
         -6    2    1    2    0  502  0.14201691347E+03  0.76040456734E+03 -0.65130202273E+02  0.79524487595E+03  0.17259362596E+03 0.  0.
        -24    2    5    5    0    0  0.11956180751E+03  0.32197567955E+03  0.27651094349E+01  0.35099721440E+03  0.72305149549E+02 0.  0.
         12    1    4    4    0    0 -0.81621786771E+02 -0.41558603870E+03 -0.13101293166E+03  0.44332635823E+03  0.00000000000E+00 0. -1.
        -11    1    4    4    0    0 -0.62984911529E+02 -0.14186791644E+03 -0.85341973610E+02  0.17713513840E+03  0.00000000000E+00 0.  1.
          5    1    3    3  501    0  0.25897848277E+01 -0.20295061220E+03 -0.14878138967E+03  0.25170150951E+03  0.47000000000E+01 0. -1.
         13    1    6    6    0    0  0.62122655547E+02  0.17424791646E+03  0.37453866579E+02  0.18874414652E+03  0.00000000000E+00 0. -1.
        -14    1    6    6    0    0  0.57439151959E+02  0.14772776308E+03 -0.34688757145E+02  0.16225306788E+03  0.00000000000E+00 0.  1.
         -5    1    5    5    0  502  0.22455105966E+02  0.43842888780E+03 -0.67895311708E+02  0.44424766155E+03  0.47000000000E+01 0.  1.
</event>
<event>
12    1  0.9749377E-001  0.4365090E+03  0.7818608E-02  0.1031823E+00
         21   -1    0    0  501  502  0.00000000000E+00  0.00000000000E+00  0.42873844117E+03  0.42873844117E+03  0.00000000000E+00 0. -1.
         21   -1    0    0  502  503 -0.00000000000E+00 -0.00000000000E+00 -0.46664824881E+03  0.46664824881E+03  0.00000000000E+00 0.  1.
         -6    2    1    2    0  503 -0.24742080644E+03 -0.32987996336E+03 -0.61162069651E+01  0.44728261528E+03  0.17316605978E+03 0.  0.
        -24    2    3    3    0    0 -0.19947126564E+03 -0.21464616886E+03 -0.62303411500E+02  0.31032613383E+03  0.80986607730E+02 0.  0.
          6    2    1    2  501    0  0.24742080644E+03  0.32987996336E+03 -0.31793600674E+02  0.44810407471E+03  0.17247777551E+03 0.  0.
         24    2    5    5    0    0  0.24817558843E+03  0.34415867078E+03 -0.28634749879E+02  0.43272488358E+03  0.79966009068E+02 0.  0.
         12    1    6    6    0    0  0.75633422041E+02  0.16723396599E+03 -0.27513032665E+02  0.18559251299E+03  0.00000000000E+00 0. -1.
        -11    1    6    6    0    0  0.17254216639E+03  0.17692470479E+03 -0.11217172137E+01  0.24713237059E+03  0.00000000000E+00 0.  1.
          5    1    5    5  501    0 -0.75478199050E+00 -0.14278707421E+02 -0.31588507948E+01  0.15379191130E+02  0.47000000000E+01 0. -1.
         13    1    4    4    0    0 -0.13733742631E+03 -0.93194671388E+02 -0.50049528889E+02  0.17335446571E+03  0.00000000000E+00 0. -1.
        -14    1    4    4    0    0 -0.62133839332E+02 -0.12145149748E+03 -0.12253882611E+02  0.13697166812E+03  0.00000000000E+00 0.  1.
         -5    1    3    3    0  503 -0.47949540800E+02 -0.11523379449E+03  0.56187204535E+02  0.13695648144E+03  0.47000000000E+01 0.  1.
</event>
<event>
12    1  0.9749377E-001  0.6766895E+03  0.7818608E-02  0.9757948E-01
         21   -1    0    0  501  502  0.00000000000E+00  0.00000000000E+00  0.10569716421E+04  0.10569716421E+04  0.00000000000E+00 0. -1.
         21   -1    0    0  502  503 -0.00000000000E+00 -0.00000000000E+00 -0.47872479519E+03  0.47872479519E+03  0.00000000000E+00 0.  1.
         -6    2    1    2    0  503  0.66766291024E+03  0.59056626635E+02  0.46907742311E+03  0.83585618343E+03  0.17134901121E+03 0.  0.
        -24    2    3    3    0    0  0.59143907038E+03  0.86493840420E+02  0.36880794376E+03  0.70686419549E+03  0.79726614630E+02 0.  0.
          6    2    1    2  501    0 -0.66766291024E+03 -0.59056626635E+02  0.10916942378E+03  0.69984025384E+03  0.16910638945E+03 0.  0.
         24    2    5    5    0    0 -0.16982004776E+03 -0.16782024176E+01  0.54541585554E+02  0.19571121283E+03  0.80538371518E+02 0.  0.
         12    1    6    6    0    0 -0.29809111006E+01  0.42640567318E+01  0.25788775461E+02  0.26308343745E+02  0.00000000000E+00 0. -1.
        -11    1    6    6    0    0 -0.16683913666E+03 -0.59422591494E+01  0.28752810093E+02  0.16940286908E+03  0.00000000000E+00 0.  1.
          5    1    5    5  501    0 -0.49784286248E+03 -0.57378424217E+02  0.54627838224E+02  0.50412904102E+03  0.47000000000E+01 0. -1.
         13    1    4    4    0    0  0.14276174712E+03  0.37320240893E+02  0.12767647926E+03  0.19512816347E+03  0.00000000000E+00 0. -1.
        -14    1    4    4    0    0  0.44867732326E+03  0.49173599526E+02  0.24113146450E+03  0.51173603202E+03  0.00000000000E+00 0.  1.
         -5    1    3    3    0  503  0.76223839857E+02 -0.27437213785E+02  0.10026947935E+03  0.12899198794E+03  0.47000000000E+01 0.  1.
</event>
<event>
12    1  0.9749377E-001  0.4949027E+03  0.7818608E-02  0.1015118E+00
         21   -1    0    0  501  502  0.00000000000E+00  0.00000000000E+00  0.15378144395E+04  0.15378144395E+04  0.00000000000E+00 0.  1.
         21   -1    0    0  502  503 -0.00000000000E+00 -0.00000000000E+00 -0.19048427153E+03  0.19048427153E+03  0.00000000000E+00 0. -1.
         -6    2    1    2    0  503 -0.16237384797E+03 -0.45154412517E+03  0.96301558314E+03  0.10896794259E+04  0.17246702411E+03 0.  0.
        -24    2    3    3    0    0 -0.89331807053E+02 -0.40145731208E+03  0.75141264710E+03  0.86024158874E+03  0.79034673388E+02 0.  0.
          6    2    1    2  501    0  0.16237384797E+03  0.45154412517E+03  0.38431458488E+03  0.63861928517E+03  0.17285695751E+03 0.  0.
         24    2    5    5    0    0  0.75903513762E+02  0.21320495328E+03  0.10570915121E+03  0.26188893436E+03  0.78700024043E+02 0.  0.
         12    1    6    6    0    0  0.78979621453E+02  0.19669732835E+03  0.71353356781E+02  0.22364910263E+03  0.00000000000E+00 0. -1.
        -11    1    6    6    0    0 -0.30761076908E+01  0.16507624934E+02  0.34355794433E+02  0.38239831728E+02  0.00000000000E+00 0.  1.
          5    1    5    5  501    0  0.86470334203E+02  0.23833917189E+03  0.27860543366E+03  0.37673035081E+03  0.47000000000E+01 0. -1.
         11    1    4    4    0    0 -0.10274800334E+02 -0.22713376746E+03  0.40347113611E+03  0.46312447302E+03  0.00000000000E+00 0. -1.
        -12    1    4    4    0    0 -0.79057006720E+02 -0.17432354463E+03  0.34794151100E+03  0.39711711572E+03  0.00000000000E+00 0.  1.
         -5    1    3    3    0  503 -0.73042040912E+02 -0.50086813089E+02  0.21160293604E+03  0.22943783717E+03  0.47000000000E+01 0.  1.
</event>
<event>
12    1  0.9749377E-001  0.4000684E+03  0.7818608E-02  0.1043756E+00
         21   -1    0    0  503  502  0.00000000000E+00  0.00000000000E+00  0.71811880372E+03  0.71811880372E+03  0.00000000000E+00 0.  1.
         21   -1    0    0  501  503 -0.00000000000E+00 -0.00000000000E+00 -0.24369915345E+03  0.24369915345E+03  0.00000000000E+00 0. -1.
          6    2    1    2  501    0  0.24169794328E+03  0.29217797523E+03  0.28260222309E+03  0.50315940789E+03  0.17181242172E+03 0.  0.
         24    2    3    3    0    0  0.36594636817E+02  0.63765201936E+02  0.65659405398E+02  0.12722585329E+03  0.80436880884E+02 0.  0.
         -6    2    1    2    0  502 -0.24169794328E+03 -0.29217797523E+03  0.19181742718E+03  0.45865854928E+03  0.17259164078E+03 0.  0.
        -24    2    5    5    0    0 -0.15927303175E+03 -0.10775946647E+03  0.65085254924E+02  0.22014820172E+03  0.85141876030E+02 0.  0.
         14    1    4    4    0    0  0.46915591603E+02  0.46714488679E+02  0.85720890082E+01  0.66759245787E+02  0.00000000000E+00 0. -1.
        -13    1    4    4    0    0 -0.10320954786E+02  0.17050713256E+02  0.57087316390E+02  0.60466607503E+02  0.00000000000E+00 0.  1.
          5    1    3    3  501    0  0.20510330646E+03  0.22841277329E+03  0.21694281770E+03  0.37593355460E+03  0.47000000000E+01 0. -1.
         11    1    6    6    0    0 -0.52982994375E+02  0.80591371370E+00 -0.42131192443E+01  0.53156350172E+02  0.00000000000E+00 0. -1.
        -12    1    6    6    0    0 -0.10629003737E+03 -0.10856538019E+03  0.69298374169E+02  0.16699185154E+03  0.00000000000E+00 0.  1.
         -5    1    5    5    0  502 -0.82424911530E+02 -0.18441850875E+03  0.12673217225E+03  0.23851034756E+03  0.47000000000E+01 0.  1.
</event>
<event>
12    1  0.9749377E-001  0.4487026E+03  0.7818608E-02  0.1028110E+00
         21   -1    0    0  501  502  0.00000000000E+00  0.00000000000E+00  0.46222241037E+03  0.46222241037E+03  0.00000000000E+00 0.  1.
         21   -1    0    0  502  503 -0.00000000000E+00 -0.00000000000E+00 -0.46713106193E+03  0.46713106193E+03  0.00000000000E+00 0. -1.
         -6    2    1    2    0  503 -0.30571978983E+03  0.30059553354E+03  0.46986242160E+02  0.46454784191E+03  0.17255354469E+03 0.  0.
        -24    2    3    3    0    0 -0.92954619929E+02  0.71722869739E+02  0.52541098649E+02  0.15197039520E+03  0.80930232662E+02 0.  0.
          6    2    1    2  501    0  0.30571978983E+03 -0.30059553354E+03 -0.51894893710E+02  0.46480563039E+03  0.17183983639E+03 0.  0.
         24    2    5    5    0    0  0.80588945179E+02 -0.15230184366E+03 -0.43747406269E+02  0.19505873565E+03  0.80272318574E+02 0.  0.
         14    1    6    6    0    0  0.40343134855E+02 -0.43998115588E+02  0.20179749034E+02  0.63012895318E+02  0.00000000000E+00 0. -1.
        -13    1    6    6    0    0  0.40245810325E+02 -0.10830372807E+03 -0.63927155303E+02  0.13204584033E+03  0.00000000000E+00 0.  1.
          5    1    5    5  501    0  0.22513084466E+03 -0.14829368988E+03 -0.81474874405E+01  0.26974689475E+03  0.47000000000E+01 0. -1.
         11    1    4    4    0    0  0.12891243010E+02  0.15525976956E+02  0.18533124024E+02  0.27399211538E+02  0.00000000000E+00 0. -1.
        -12    1    4    4    0    0 -0.10584586294E+03  0.56196892783E+02  0.34007974625E+02  0.12457118366E+03  0.00000000000E+00 0.  1.
         -5    1    3    3    0  503 -0.21276516991E+03  0.22887266380E+03 -0.55548564895E+01  0.31257744671E+03  0.47000000000E+01 0.  1.
</event>
<event>
12    1  0.9749377E-001  0.3831724E+03  0.7818608E-02  0.1049767E+00
         21   -1    0    0  501  502  0.00000000000E+00  0.00000000000E+00  0.42888648851E+03  0.42888648851E+03  0.00000000000E+00 0.  1.
         21   -1    0    0  502  503 -0.00000000000E+00 -0.00000000000E+00 -0.65691395318E+03  0.65691395318E+03  0.00000000000E+00 0. -1.
         -6    2    1    2    0  503 -0.24857985219E+03 -0.26779686890E+03 -0.46663887346E+03  0.61714573235E+03  0.17207530567E+03 0.  0.
        -24    2    3    3    0    0 -0.16335052895E+03 -0.12398860351E+03 -0.17626623862E+03  0.28205886033E+03  0.80192547677E+02 0.  0.
          6    2    1    2  501    0  0.24857985219E+03  0.26779686890E+03  0.23861140879E+03  0.46865470933E+03  0.17086464311E+03 0.  0.
         24    2    5    5    0    0  0.89018431560E+02  0.17245715705E+03  0.17204807429E+03  0.27116477260E+03  0.79145700199E+02 0.  0.
         14    1    6    6    0    0  0.35536471763E+02  0.87151116374E+02  0.13352509275E+03  0.16336189367E+03  0.00000000000E+00 0. -1.
        -13    1    6    6    0    0  0.53481959797E+02  0.85306040672E+02  0.38522981541E+02  0.10780287893E+03  0.00000000000E+00 0.  1.
          5    1    5    5  501    0  0.15956142063E+03  0.95339711856E+02  0.66563334504E+02  0.19748993673E+03  0.47000000000E+01 0. -1.
         13    1    4    4    0    0 -0.14767904593E+03 -0.13430114969E+03 -0.17025308136E+03  0.26235855452E+03  0.00000000000E+00 0. -1.
        -14    1    4    4    0    0 -0.15671483026E+02  0.10312546178E+02 -0.60131572550E+01  0.19700305812E+02  0.00000000000E+00 0.  1.
         -5    1    3    3    0  503 -0.85229323236E+02 -0.14380826539E+03 -0.29037263485E+03  0.33508687202E+03  0.47000000000E+01 0.  1.
</event>
<event>
12    1  0.9749377E-001  0.2148857E+03  0.7818608E-02  0.1137754E+00
         21   -1    0    0  503  502  0.00000000000E+00  0.00000000000E+00  0.62137506499E+02  0.62137506499E+02  0.00000000000E+00 0.  1.
         21   -1    0    0  501  503 -0.00000000000E+00 -0.00000000000E+00 -0.10657870118E+04  0.10657870118E+04  0.00000000000E+00 0. -1.
          6    2    1    2  501    0 -0.39916366620E+02  0.16779590621E+03 -0.68060111077E+03  0.72270777441E+03  0.17128885762E+03 0.  0.
         24    2    3    3    0    0 -0.25341714400E+02  0.15891776887E+03 -0.36544065519E+03  0.40705061138E+03  0.79033334788E+02 0.  0.
         -6    2    1    2    0  502  0.39916366620E+02 -0.16779590621E+03 -0.32304839450E+03  0.40521674386E+03  0.17346919568E+03 0.  0.
        -24    2    5    5    0    0  0.62019445130E+02 -0.28747894839E+02 -0.14845442957E+03  0.18087762971E+03  0.77492878639E+02 0.  0.
         14    1    4    4    0    0 -0.43410536576E+02  0.14202756542E+03 -0.26673358844E+03  0.30529184599E+03  0.00000000000E+00 0. -1.
        -13    1    4    4    0    0  0.18068822176E+02  0.16890203445E+02 -0.98707066743E+02  0.10175876538E+03  0.00000000000E+00 0.  1.
          5    1    3    3  501    0 -0.14574652220E+02  0.88781373391E+01 -0.31516045558E+03  0.31565716303E+03  0.47000000000E+01 0. -1.
         11    1    6    6    0    0 -0.10475110996E+02  0.11070101518E+02 -0.64652423025E+01  0.16555194231E+02  0.00000000000E+00 0. -1.
        -12    1    6    6    0    0  0.72494556126E+02 -0.39817996358E+02 -0.14198918727E+03  0.16432243548E+03  0.00000000000E+00 0.  1.
         -5    1    5    5    0  502 -0.22103078510E+02 -0.13904801137E+03 -0.17459396493E+03  0.22433911414E+03  0.47000000000E+01 0.  1.
</event>
<event>
12    1  0.9749377E-001  0.4392407E+03  0.7818608E-02  0.1030980E+00
         21   -1    0    0  501  502  0.00000000000E+00  0.00000000000E+00  0.10900589302E+04  0.10900589302E+04  0.00000000000E+00 0.  1.
         21   -1    0    0  502  503 -0.00000000000E+00 -0.00000000000E+00 -0.23200945996E+03  0.23200945996E+03  0.00000000000E+00 0. -1.
         -6    2    1    2    0  503  0.32478910249E+03 -0.26653045225E+03  0.14521900534E+03  0.47673323067E+03  0.17221954199E+03 0.  0.
        -24    2    3    3    0    0  0.11200864004E+03 -0.17430064345E+03  0.60105517935E+02  0.22965377266E+03  0.78749808021E+02 0.  0.
          6    2    1    2  501    0 -0.32478910249E+03  0.26653045225E+03  0.71283046485E+03  0.84533515944E+03  0.17302548108E+03 0.  0.
         24    2    5    5    0    0 -0.15589102758E+03  0.16303235456E+03  0.27451420795E+03  0.36431369735E+03  0.80528619743E+02 0.  0.
         12    1    6    6    0    0 -0.76752527220E+02  0.60135184782E+02  0.62821398243E+02  0.11599016752E+03  0.00000000000E+00 0. -1.
        -11    1    6    6    0    0 -0.79138500363E+02  0.10289716978E+03  0.21169280971E+03  0.24832352984E+03  0.00000000000E+00 0.  1.
          5    1    5    5  501    0 -0.16889807491E+03  0.10349809769E+03  0.43831625689E+03  0.48102146209E+03  0.47000000000E+01 0. -1.
         11    1    4    4    0    0  0.15704648304E+02 -0.95072549065E+02  0.17972046791E+02  0.98022548579E+02  0.00000000000E+00 0. -1.
        -12    1    4    4    0    0  0.96303991736E+02 -0.79228094381E+02  0.42133471143E+02  0.13163122409E+03  0.00000000000E+00 0.  1.
         -5    1    3    3    0  503  0.21278046245E+03 -0.92229808802E+02  0.85113487407E+02  0.24707945801E+03  0.47000000000E+01 0.  1.
</event>
<event>
12    1  0.9749377E-001  0.5137437E+03  0.7818608E-02  0.1010253E+00
         21   -1    0    0  501  502  0.00000000000E+00  0.00000000000E+00  0.89616185495E+03  0.89616185495E+03  0.00000000000E+00 0.  1.
         21   -1    0    0  502  503 -0.00000000000E+00 -0.00000000000E+00 -0.31846484177E+03  0.31846484177E+03  0.00000000000E+00 0. -1.
         -6    2    1    2    0  503 -0.32012565726E+03 -0.38357294059E+03  0.19469782137E+03  0.56310681894E+03  0.17196921440E+03 0.  0.
        -24    2    3    3    0    0 -0.27939296277E+03 -0.23911222289E+03  0.12612183152E+03  0.39802257456E+03  0.85323916281E+02 0.  0.
          6    2    1    2  501    0  0.32012565726E+03  0.38357294059E+03  0.38299919182E+03  0.65151987778E+03  0.16787237123E+03 0.  0.
         24    2    5    5    0    0  0.20088302399E+03  0.25742632341E+03  0.32838929217E+03  0.46948662325E+03  0.77174224240E+02 0.  0.
         14    1    6    6    0    0  0.45381911023E+02  0.16158553017E+02  0.40259169561E+02  0.62780708959E+02  0.00000000000E+00 0. -1.
        -13    1    6    6    0    0  0.15550111297E+03  0.24126777039E+03  0.28813012261E+03  0.40670591429E+03  0.00000000000E+00 0.  1.
          5    1    5    5  501    0  0.11924263327E+03  0.12614661718E+03  0.54609899646E+02  0.18203325453E+03  0.47000000000E+01 0. -1.
         13    1    4    4    0    0 -0.24598226993E+03 -0.21975587659E+03  0.13810488346E+03  0.35759317842E+03  0.00000000000E+00 0. -1.
        -14    1    4    4    0    0 -0.33410692839E+02 -0.19356346298E+02 -0.11983051943E+02  0.40429396136E+02  0.00000000000E+00 0.  1.
         -5    1    3    3    0  503 -0.40732694483E+02 -0.14446071770E+03  0.68575989850E+02  0.16508424438E+03  0.47000000000E+01 0.  1.
</event>
<event>
12    1  0.9749377E-001  0.8430828E+03  0.7818608E-02  0.9499668E-01
         21   -1    0    0  501  502  0.00000000000E+00  0.00000000000E+00  0.10873393070E+04  0.10873393070E+04  0.00000000000E+00 0.  1.
         21   -1    0    0  502  503 -0.00000000000E+00 -0.00000000000E+00 -0.66624173525E+03  0.66624173525E+03  0.00000000000E+00 0. -1.
         -6    2    1    2    0  503  0.61829633492E+03 -0.55402509303E+03  0.13336447335E+03  0.85820771550E+03  0.17175633526E+03 0.  0.
        -24    2    3    3    0    0  0.18968991675E+03 -0.22363371624E+03  0.13642977468E+02  0.30393589579E+03  0.78718449897E+02 0.  0.
          6    2    1    2  501    0 -0.61829633492E+03  0.55402509303E+03  0.28773309835E+03  0.89537332671E+03  0.17224661625E+03 0.  0.
         24    2    5    5    0    0 -0.39632799071E+03  0.43753902402E+03  0.19743039764E+03  0.62888577003E+03  0.89455441870E+02 0.  0.
         12    1    6    6    0    0 -0.95038191541E+02  0.12319794284E+03  0.13380160240E+02  0.15616984235E+03  0.00000000000E+00 0. -1.
        -11    1    6    6    0    0 -0.30128979917E+03  0.31434108117E+03  0.18405023740E+03  0.47271592768E+03  0.00000000000E+00 0.  1.
          5    1    5    5  501    0 -0.22196834421E+03  0.11648606901E+03  0.90302700715E+02  0.26648755668E+03  0.47000000000E+01 0. -1.
         11    1    4    4    0    0  0.10859512331E+03 -0.69066482108E+02 -0.17483482203E+01  0.12870950423E+03  0.00000000000E+00 0. -1.
        -12    1    4    4    0    0  0.81094793447E+02 -0.15456723413E+03  0.15391325688E+02  0.17522639156E+03  0.00000000000E+00 0.  1.
         -5    1    3    3    0  503  0.42860641817E+03 -0.33039137679E+03  0.11972149589E+03  0.55427181971E+03  0.47000000000E+01 0.  1.
</event>
<event>
12    1  0.9749377E-001  0.3389342E+03  0.7818608E-02  0.1067251E+00
         21   -1    0    0  501  502  0.00000000000E+00  0.00000000000E+00  0.21593289956E+04  0.21593289956E+04  0.00000000000E+00 0.  1.
         21   -1    0    0  502  503 -0.00000000000E+00 -0.00000000000E+00 -0.75155926673E+02  0.75155926673E+02  0.00000000000E+00 0. -1.
         -6    2    1    2    0  503 -0.74856134574E+02  0.31112522007E+03  0.56452670506E+03  0.67209072344E+03  0.17496627207E+03 0.  0.
        -24    2    3    3    0    0 -0.18576068584E+02  0.27640293612E+03  0.51154743435E+03  0.58722626707E+03  0.80064085098E+02 0.  0.
          6    2    1    2  501    0  0.74856134574E+02 -0.31112522007E+03  0.15196463639E+04  0.15623941988E+04  0.17131321576E+03 0.  0.
         24    2    5    5    0    0  0.59163629434E+02 -0.23991988488E+03  0.84594615619E+03  0.88474346704E+03  0.78001391594E+02 0.  0.
         12    1    6    6    0    0  0.40859000167E+02 -0.22146187206E+03  0.80764261178E+03  0.83845179172E+03  0.00000000000E+00 0. -1.
        -11    1    6    6    0    0  0.18304629267E+02 -0.18458012821E+02  0.38303544405E+02  0.46291675319E+02  0.00000000000E+00 0.  1.
          5    1    5    5  501    0  0.15692505140E+02 -0.71205335184E+02  0.67370020767E+03  0.67765073178E+03  0.47000000000E+01 0. -1.
         13    1    4    4    0    0 -0.37055656633E+02  0.62845448084E+02  0.15265119992E+03  0.16918942305E+03  0.00000000000E+00 0. -1.
        -14    1    4    4    0    0  0.18479588049E+02  0.21355748804E+03  0.35889623443E+03  0.41803684402E+03  0.00000000000E+00 0.  1.
         -5    1    3    3    0  503 -0.56280065990E+02  0.34722283942E+02  0.52979270713E+02  0.84864456372E+02  0.47000000000E+01 0.  1.
</event>
<event>
12    1  0.9749377E-001  0.2439567E+03  0.7818608E-02  0.1117185E+00
         21   -1    0    0  503  502  0.00000000000E+00  0.00000000000E+00  0.49995744208E+02  0.49995744208E+02  0.00000000000E+00 0.  1.
         21   -1    0    0  501  503 -0.00000000000E+00 -0.00000000000E+00 -0.13538910608E+04  0.13538910608E+04  0.00000000000E+00 0. -1.
          6    2    1    2  501    0  0.18188159193E+03 -0.70544242339E+02 -0.66257556594E+03  0.71202034410E+03  0.17294272529E+03 0.  0.
         24    2    3    3    0    0  0.74392469584E+02 -0.19069172614E+02 -0.15515402530E+03  0.19076963271E+03  0.80139929641E+02 0.  0.
         -6    2    1    2    0  502 -0.18188159193E+03  0.70544242339E+02 -0.64131975070E+03  0.69186646095E+03  0.17126229456E+03 0.  0.
        -24    2    5    5    0    0 -0.41790030453E+02  0.80799292911E+02 -0.31369239411E+03  0.33536598908E+03  0.76108449765E+02 0.  0.
         14    1    4    4    0    0  0.85418346622E+02 -0.33251202985E+02 -0.13962452519E+03  0.16702378415E+03  0.00000000000E+00 0. -1.
        -13    1    4    4    0    0 -0.11025877038E+02  0.14182030371E+02 -0.15529500112E+02  0.23745848556E+02  0.00000000000E+00 0.  1.
          5    1    3    3  501    0  0.10748912235E+03 -0.51475069725E+02 -0.50742154064E+03  0.52125071139E+03  0.47000000000E+01 0. -1.
         13    1    6    6    0    0  0.11943823429E+02 -0.82145133984E+01 -0.33397440369E+02  0.36407721320E+02  0.00000000000E+00 0. -1.
        -14    1    6    6    0    0 -0.53733853882E+02  0.89013806309E+02 -0.28029495374E+03  0.29895826776E+03  0.00000000000E+00 0.  1.
         -5    1    5    5    0  502 -0.14009156148E+03 -0.10255050572E+02 -0.32762735659E+03  0.35650047187E+03  0.47000000000E+01 0.  1.
</event>
<event>
12    1  0.9749377E-001  0.1104132E+04  0.7818608E-02  0.9201174E-01
         21   -1    0    0  503  502  0.00000000000E+00  0.00000000000E+00  0.33402320451E+03  0.33402320451E+03  0.00000000000E+00 0.  1.
         21   -1    0    0  501  503 -0.00000000000E+00 -0.00000000000E+00 -0.37295413473E+04  0.37295413473E+04  0.00000000000E+00 0. -1.
          6    2    1    2  501    0  0.10950208861E+04 -0.11337330137E+03 -0.15571396254E+04  0.19138914211E+04  0.16239554216E+03 0.  0.
         24    2    3    3    0    0  0.30133140302E+03 -0.39176676104E+02 -0.42586147573E+03  0.52996205989E+03  0.84654367971E+02 0.  0.
         -6    2    1    2    0  502 -0.10950208861E+04  0.11337330137E+03 -0.18383785174E+04  0.21496731308E+04  0.17185676996E+03 0.  0.
        -24    2    5    5    0    0 -0.61028088064E+03  0.27499423040E+02 -0.11308115589E+04  0.12876868857E+04  0.78763966073E+02 0.  0.
         14    1    4    4    0    0  0.95626609407E+02 -0.11188125251E+02 -0.20704414973E+03  0.22833506632E+03  0.00000000000E+00 0. -1.
        -13    1    4    4    0    0  0.20570479361E+03 -0.27988550853E+02 -0.21881732600E+03  0.30162699358E+03  0.00000000000E+00 0.  1.
          5    1    3    3  501    0  0.79368948310E+03 -0.74196625269E+02 -0.11312781497E+04  0.13839293612E+04  0.47000000000E+01 0. -1.
         13    1    6    6    0    0 -0.58974588559E+03  0.13210972408E+02 -0.10680886977E+04  0.12201590903E+04  0.00000000000E+00 0. -1.
        -14    1    6    6    0    0 -0.20534995055E+02  0.14288450632E+02 -0.62722861204E+02  0.67527795470E+02  0.00000000000E+00 0.  1.
         -5    1    5    5    0  502 -0.48474000547E+03  0.85873878333E+02 -0.70756695847E+03  0.86198624502E+03  0.47000000000E+01 0.  1.
</event>
<event>
12    1  0.9749377E-001  0.3782907E+03  0.7818608E-02  0.1051567E+00
         21   -1    0    0  503  502  0.00000000000E+00  0.00000000000E+00  0.98955069177E+02  0.98955069177E+02  0.00000000000E+00 0.  1.
         21   -1    0    0  501  503 -0.00000000000E+00 -0.00000000000E+00 -0.15848823093E+04  0.15848823093E+04  0.00000000000E+00 0. -1.
          6    2    1    2  501    0  0.31163863599E+03 -0.17305297564E+03 -0.73096813431E+03  0.83139642714E+03  0.17274152327E+03 0.  0.
         24    2    3    3    0    0  0.16954037554E+03 -0.65313717829E+02 -0.25561170936E+03  0.32367063102E+03  0.80096883525E+02 0.  0.
         -6    2    1    2    0  502 -0.31163863599E+03  0.17305297564E+03 -0.75495910581E+03  0.85244095133E+03  0.17212307297E+03 0.  0.
        -24    2    5    5    0    0 -0.77666958253E+02  0.73333029371E+02 -0.16278044807E+03  0.20793768033E+03  0.73011745785E+02 0.  0.
         14    1    4    4    0    0  0.11440991973E+03 -0.77763567306E+02 -0.20783423729E+03  0.24966351821E+03  0.00000000000E+00 0. -1.
        -13    1    4    4    0    0  0.55130455818E+02  0.12449849477E+02 -0.47777472063E+02  0.74007112816E+02  0.00000000000E+00 0.  1.
          5    1    3    3  501    0  0.14209826044E+03 -0.10773925781E+03 -0.47535642496E+03  0.50772579612E+03  0.47000000000E+01 0. -1.
         11    1    6    6    0    0 -0.23004776554E+02  0.70574305292E+02 -0.85294014500E+02  0.11307086814E+03  0.00000000000E+00 0. -1.
        -12    1    6    6    0    0 -0.54662181699E+02  0.27587240793E+01 -0.77486433575E+02  0.94866812188E+02  0.00000000000E+00 0.  1.
         -5    1    5    5    0  502 -0.23397167773E+03  0.99719946272E+02 -0.59217865773E+03  0.64450327101E+03  0.47000000000E+01 0.  1.
</event>
<event>
12    1  0.9749377E-001  0.2159438E+03  0.7818608E-02  0.1136944E+00
         21   -1    0    0  501  502  0.00000000000E+00  0.00000000000E+00  0.51255203022E+03  0.51255203022E+03  0.00000000000E+00 0.  1.
         21   -1    0    0  502  503 -0.00000000000E+00 -0.00000000000E+00 -0.14736163758E+03  0.14736163758E+03  0.00000000000E+00 0. -1.
         -6    2    1    2    0  503 -0.11900922641E+02  0.19692691462E+03  0.27508803940E+03  0.37916482228E+03  0.17079429549E+03 0.  0.
        -24    2    3    3    0    0  0.10639035802E+02  0.39705604242E+02  0.25684389092E+02  0.83443904943E+02  0.67922553972E+02 0.  0.
          6    2    1    2  501    0  0.11900922641E+02 -0.19692691462E+03  0.90102353243E+02  0.28074884552E+03  0.17826844515E+03 0.  0.
         24    2    5    5    0    0 -0.12514110791E+02 -0.11099152613E+02  0.51810765434E+02  0.89394758315E+02  0.70903266792E+02 0.  0.
         12    1    6    6    0    0 -0.16271544492E+02 -0.11086027483E+02 -0.13565913937E+02  0.23910190013E+02  0.00000000000E+00 0. -1.
        -11    1    6    6    0    0  0.37574337011E+01 -0.13125129843E-01  0.65376679370E+02  0.65484568302E+02  0.00000000000E+00 0.  1.
          5    1    5    5  501    0  0.24415033432E+02 -0.18582776201E+03  0.38291587810E+02  0.19135408720E+03  0.47000000000E+01 0. -1.
         13    1    4    4    0    0 -0.16487661966E+02  0.35619331819E+01 -0.15048357551E+02  0.22604942603E+02  0.00000000000E+00 0. -1.
        -14    1    4    4    0    0  0.27126697767E+02  0.36143671060E+02  0.40732746644E+02  0.60838962340E+02  0.00000000000E+00 0.  1.
         -5    1    3    3    0  503 -0.22539958443E+02  0.15722131038E+03  0.24940365030E+03  0.29572091734E+03  0.47000000000E+01 0.  1.
</event>
<event>
12    1  0.9749377E-001  0.1939975E+03  0.7818608E-02  0.1154904E+00
         21   -1    0    0  501  502  0.00000000000E+00  0.00000000000E+00  0.48458603125E+02  0.48458603125E+02  0.00000000000E+00 0.  1.
         21   -1    0    0  502  503 -0.00000000000E+00 -0.00000000000E+00 -0.13018079225E+04  0.13018079225E+04  0.00000000000E+00 0. -1.
         -6    2    1    2    0  503  0.46513774581E+02 -0.12385484437E+03 -0.28458591219E+03  0.35762068449E+03  0.17146387041E+03 0.  0.
        -24    2    3    3    0    0 -0.19220452359E+02 -0.93305430839E+01 -0.95395232602E+02  0.12685671975E+03  0.80844864523E+02 0.  0.
          6    2    1    2  501    0 -0.46513774581E+02  0.12385484437E+03 -0.96876340720E+03  0.99264584115E+03  0.17128827493E+03 0.  0.
         24    2    5    5    0    0  0.24457217265E+02  0.10999319142E+03 -0.74147014020E+03  0.75408065860E+03  0.78504861123E+02 0.  0.
         12    1    6    6    0    0  0.44574575506E+02  0.10440666733E+03 -0.55833895848E+03  0.56976314160E+03  0.00000000000E+00 0. -1.
        -11    1    6    6    0    0 -0.20117358241E+02  0.55865240965E+01 -0.18313118172E+03  0.18431751700E+03  0.00000000000E+00 0.  1.
          5    1    5    5  501    0 -0.70970991846E+02  0.13861652951E+02 -0.22729326700E+03  0.23856518256E+03  0.47000000000E+01 0. -1.
         13    1    4    4    0    0  0.68230976355E+01 -0.19787990201E+02  0.58989131475E+01  0.21746640978E+02  0.00000000000E+00 0. -1.
        -14    1    4    4    0    0 -0.26043549995E+02  0.10457447117E+02 -0.10129414575E+03  0.10511007877E+03  0.00000000000E+00 0.  1.
         -5    1    3    3    0  503  0.65734226941E+02 -0.11452430129E+03 -0.18919067959E+03  0.23076396473E+03  0.47000000000E+01 0.  1.
</event>
<event>
12    1  0.9749377E-001  0.3563601E+03  0.7818608E-02  0.1060034E+00
         21   -1    0    0  501  502  0.00000000000E+00  0.00000000000E+00  0.38485490359E+03  0.38485490359E+03  0.00000000000E+00 0.  1.
         21   -1    0    0  502  503 -0.00000000000E+00 -0.00000000000E+00 -0.38167685705E+03  0.38167685705E+03  0.00000000000E+00 0. -1.
         -6    2    1    2    0  503 -0.21818128167E+03  0.25760163050E+03 -0.54194936289E+02  0.38331096981E+03  0.17328743967E+03 0.  0.
        -24    2    3    3    0    0 -0.26922680966E+02  0.89461573713E+02 -0.40101076539E+02  0.12821950009E+03  0.78127715579E+02 0.  0.
          6    2    1    2  501    0  0.21818128167E+03 -0.25760163050E+03  0.57372982830E+02  0.38322079083E+03  0.17206058134E+03 0.  0.
         24    2    5    5    0    0  0.11095646655E+03 -0.14332452351E+03  0.97329350535E+02  0.22143383375E+03  0.81894345004E+02 0.  0.
         14    1    6    6    0    0  0.41801476849E+02 -0.10005557790E+03  0.87364372582E+02  0.13925162740E+03  0.00000000000E+00 0. -1.
        -13    1    6    6    0    0  0.69154989706E+02 -0.43268945602E+02  0.99649779531E+01  0.82182206349E+02  0.00000000000E+00 0.  1.
          5    1    5    5  501    0  0.10722481512E+03 -0.11427710700E+03 -0.39956367705E+02  0.16178695708E+03  0.47000000000E+01 0. -1.
         13    1    4    4    0    0  0.14373448036E+02  0.56768536764E+02  0.51417792041E+01  0.58785207902E+02  0.00000000000E+00 0. -1.
        -14    1    4    4    0    0 -0.41296129002E+02  0.32693036949E+02 -0.45242855743E+02  0.69434292185E+02  0.00000000000E+00 0.  1.
         -5    1    3    3    0  503 -0.19125860071E+03  0.16814005679E+03 -0.14093859750E+02  0.25509146972E+03  0.47000000000E+01 0.  1.
</event>
<event>
12    1  0.9749377E-001  0.3484130E+03  0.7818608E-02  0.1063268E+00
         21   -1    0    0  501  502  0.00000000000E+00  0.00000000000E+00  0.42383890985E+03  0.42383890985E+03  0.00000000000E+00 0. -1.
         21   -1    0    0  502  503 -0.00000000000E+00 -0.00000000000E+00 -0.63197823164E+03  0.63197823164E+03  0.00000000000E+00 0.  1.
         -6    2    1    2    0  503  0.16303408741E+03  0.26975625021E+03 -0.48340870633E+03  0.60288901465E+03  0.17447818901E+03 0.  0.
        -24    2    3    3    0    0  0.18420602333E+03  0.26953960722E+03 -0.43543497905E+03  0.55024049791E+03  0.81101946206E+02 0.  0.
          6    2    1    2  501    0 -0.16303408741E+03 -0.26975625021E+03  0.27526938454E+03  0.45292812683E+03  0.17326888303E+03 0.  0.
         24    2    5    5    0    0 -0.17174106629E+03 -0.19362191222E+03  0.25828484744E+03  0.37429725882E+03  0.80018352931E+02 0.  0.
         14    1    6    6    0    0 -0.18030091681E+03 -0.18211129889E+03  0.24823768445E+03  0.35678409965E+03  0.00000000000E+00 0. -1.
        -13    1    6    6    0    0  0.85598505173E+01 -0.11510613321E+02  0.10047162994E+02  0.17513159170E+02  0.00000000000E+00 0.  1.
          5    1    5    5  501    0  0.87069788793E+01 -0.76134337996E+02  0.16984537102E+02  0.78630868009E+02  0.47000000000E+01 0. -1.
         11    1    4    4    0    0  0.40972018135E+02  0.40488420942E+02 -0.35661614977E+02  0.67747836004E+02  0.00000000000E+00 0. -1.
        -12    1    4    4    0    0  0.14323400519E+03  0.22905118628E+03 -0.39977336407E+03  0.48249266191E+03  0.00000000000E+00 0.  1.
         -5    1    3    3    0  503 -0.21171935916E+02  0.21664299218E+00 -0.47973727287E+02  0.52648516735E+02  0.47000000000E+01 0.  1.
</event>
<event>
12    1  0.9749377E-001  0.1406730E+04  0.7818608E-02  0.8948961E-01
         21   -1    0    0  503  502  0.00000000000E+00  0.00000000000E+00  0.24096306142E+04  0.24096306142E+04  0.00000000000E+00 0.  1.
         21   -1    0    0  501  503 -0.00000000000E+00 -0.00000000000E+00 -0.93430496312E+03  0.93430496312E+03  0.00000000000E+00 0. -1.
          6    2    1    2  501    0 -0.50902354156E+03  0.13034502519E+04  0.16687278522E+03  0.14198327340E+04  0.17317892795E+03 0.  0.
         24    2    3    3    0    0 -0.49661540284E+03  0.12155637702E+04  0.18847667908E+03  0.13283624449E+04  0.69290609278E+02 0.  0.
         -6    2    1    2    0  502  0.50902354156E+03 -0.13034502519E+04  0.13084528659E+04  0.19241028433E+04  0.17898414501E+03 0.  0.
        -24    2    5    5    0    0  0.33028887622E+03 -0.64958377731E+03  0.69092909509E+03  0.10071267560E+04  0.76625469830E+02 0.  0.
         12    1    4    4    0    0 -0.18712891560E+03  0.54276514088E+03  0.94852911438E+02  0.58190059634E+03  0.00000000000E+00 0. -1.
        -11    1    4    4    0    0 -0.30948648724E+03  0.67279862934E+03  0.93623767645E+02  0.74646184852E+03  0.00000000000E+00 0.  1.
          5    1    3    3  501    0 -0.12408138725E+02  0.87886481714E+02 -0.21603893860E+02  0.91470289191E+02  0.47000000000E+01 0. -1.
         11    1    6    6    0    0  0.20931833472E+03 -0.48056288928E+03  0.47421062860E+03  0.70684551076E+03  0.00000000000E+00 0. -1.
        -12    1    6    6    0    0  0.12097054150E+03 -0.16902088803E+03  0.21671846649E+03  0.30028124520E+03  0.00000000000E+00 0.  1.
         -5    1    5    5    0  502  0.17873466534E+03 -0.65386647463E+03  0.61752377077E+03  0.91697608731E+03  0.47000000000E+01 0.  1.
</event>
<event>
12    1  0.9749377E-001  0.4023778E+03  0.7818608E-02  0.1042959E+00
         21   -1    0    0  501  502  0.00000000000E+00  0.00000000000E+00  0.42487253152E+03  0.42487253152E+03  0.00000000000E+00 0. -1.
         21   -1    0    0  502  503 -0.00000000000E+00 -0.00000000000E+00 -0.46226961173E+03  0.46226961173E+03  0.00000000000E+00 0.  1.
         -6    2    1    2    0  503  0.34200468982E+03  0.17937792889E+03 -0.15403197356E+03  0.44967759478E+03  0.17129051677E+03 0.  0.
        -24    2    3    3    0    0  0.12075913310E+03  0.10426182821E+03 -0.11605180951E+03  0.21291482783E+03  0.80071245611E+02 0.  0.
          6    2    1    2  501    0 -0.34200468982E+03 -0.17937792889E+03  0.11663489335E+03  0.43746454847E+03  0.16919776472E+03 0.  0.
         24    2    5    5    0    0 -0.23413231059E+03 -0.11959432135E+03  0.11110401013E+02  0.27508216514E+03  0.80162435132E+02 0.  0.
         14    1    6    6    0    0 -0.23759359871E+03 -0.11183424936E+03  0.19267169940E+02  0.26330370548E+03  0.00000000000E+00 0. -1.
        -13    1    6    6    0    0  0.34612881243E+01 -0.77600719846E+01 -0.81567689268E+01  0.11778459662E+02  0.00000000000E+00 0.  1.
          5    1    5    5  501    0 -0.10787237923E+03 -0.59783607542E+02  0.10552449234E+03  0.16238238333E+03  0.47000000000E+01 0. -1.
         11    1    4    4    0    0  0.23051816835E+02 -0.10915368078E+02 -0.28863044898E+02  0.38517617793E+02  0.00000000000E+00 0. -1.
        -12    1    4    4    0    0  0.97707316266E+02  0.11517719629E+03 -0.87188764607E+02  0.17439721004E+03  0.00000000000E+00 0.  1.
         -5    1    3    3    0  503  0.22124555672E+03  0.75116100680E+02 -0.37980164057E+02  0.23676276695E+03  0.47000000000E+01 0.  1.
</event>
<event>
12    1  0.9749377E-001  0.3831979E+03  0.7818608E-02  0.1049758E+00
         21   -1    0    0  501  502  0.00000000000E+00  0.00000000000E+00  0.25733750583E+03  0.25733750583E+03  0.00000000000E+00 0.  1.
         21   -1    0    0  502  503 -0.00000000000E+00 -0.00000000000E+00 -0.10368675759E+04  0.10368675759E+04  0.00000000000E+00 0. -1.
         -6    2    1    2    0  503  0.10327676825E+03  0.34886152220E+03  0.16383944548E+02  0.40253377091E+03  0.17144839034E+03 0.  0.
        -24    2    3    3    0    0  0.42440610723E+02  0.65731097766E+02  0.24337567376E+02  0.11279384370E+03  0.77513555835E+02 0.  0.
          6    2    1    2  501    0 -0.10327676825E+03 -0.34886152220E+03 -0.79591401463E+03  0.89167131084E+03  0.17096243842E+03 0.  0.
         24    2    5    5    0    0 -0.47286598370E+02 -0.67538542885E+02 -0.26502952220E+03  0.28823286980E+03  0.77717838601E+02 0.  0.
         12    1    6    6    0    0 -0.28709054007E+02  0.47340954745E+01 -0.13689450122E+03  0.13995258449E+03  0.00000000000E+00 0. -1.
        -11    1    6    6    0    0 -0.18577544363E+02 -0.72272638360E+02 -0.12813502097E+03  0.14828028531E+03  0.00000000000E+00 0.  1.
          5    1    5    5  501    0 -0.55990169878E+02 -0.28132297931E+03 -0.53088449244E+03  0.60343844104E+03  0.47000000000E+01 0. -1.
         11    1    4    4    0    0  0.48834811073E+02  0.54001982490E+02  0.46876350910E+02  0.86593563040E+02  0.00000000000E+00 0. -1.
        -12    1    4    4    0    0 -0.63942003502E+01  0.11729115277E+02 -0.22538783535E+02  0.26200280657E+02  0.00000000000E+00 0.  1.
         -5    1    3    3    0  503  0.60836157526E+02  0.28313042443E+03 -0.79536228272E+01  0.28973992721E+03  0.47000000000E+01 0.  1.
</event>
<event>
12    1  0.9749377E-001  0.3067940E+03  0.7818608E-02  0.1081893E+00
         21   -1    0    0  503  502  0.00000000000E+00  0.00000000000E+00  0.55354670109E+03  0.55354670109E+03  0.00000000000E+00 0.  1.
         21   -1    0    0  501  503 -0.00000000000E+00 -0.00000000000E+00 -0.20294876666E+03  0.20294876666E+03  0.00000000000E+00 0. -1.
          6    2    1    2  501    0 -0.31848013097E+02 -0.27771713242E+03  0.97698475858E+02  0.34186417738E+03  0.17083624328E+03 0.  0.
         24    2    3    3    0    0 -0.15928233318E+02 -0.26855294834E+03  0.43118429938E+02  0.28408448311E+03  0.80438795757E+02 0.  0.
         -6    2    1    2    0  502  0.31848013097E+02  0.27771713242E+03  0.25289945857E+03  0.41463129036E+03  0.17268430508E+03 0.  0.
        -24    2    5    5    0    0  0.16720378895E+02  0.29326948277E+03  0.23416055862E+03  0.38558034735E+03  0.86916491272E+02 0.  0.
         14    1    4    4    0    0  0.13170675884E+02 -0.22472753987E+03  0.51197043688E+02  0.23086158442E+03  0.00000000000E+00 0. -1.
        -13    1    4    4    0    0 -0.29098909202E+02 -0.43825408471E+02 -0.80786137499E+01  0.53222898685E+02  0.00000000000E+00 0.  1.
          5    1    3    3  501    0 -0.15919779779E+02 -0.91641840777E+01  0.54580045921E+02  0.57779694277E+02  0.47000000000E+01 0. -1.
         13    1    6    6    0    0 -0.57705176159E+01  0.36207706261E+02  0.72044356922E+02  0.80837406134E+02  0.00000000000E+00 0. -1.
        -14    1    6    6    0    0  0.22490896511E+02  0.25706177651E+03  0.16211620170E+03  0.30474294122E+03  0.00000000000E+00 0.  1.
         -5    1    5    5    0  502  0.15127634202E+02 -0.15552350353E+02  0.18738899955E+02  0.29050943007E+02  0.47000000000E+01 0.  1.
</event>
<event>
12    1  0.9749377E-001  0.3559496E+03  0.7818608E-02  0.1060199E+00
         21   -1    0    0  501  502  0.00000000000E+00  0.00000000000E+00  0.11001485334E+03  0.11001485334E+03  0.00000000000E+00 0. -1.
         21   -1    0    0  502  503 -0.00000000000E+00 -0.00000000000E+00 -0.16450716457E+04  0.16450716457E+04  0.00000000000E+00 0.  1.
         -6    2    1    2    0  503 -0.44017534981E+02  0.32589865385E+03 -0.33743958982E+03  0.50125921336E+03  0.17102001705E+03 0.  0.
        -24    2    3    3    0    0 -0.85903306812E+02  0.25417586723E+03 -0.29399494779E+03  0.40740771938E+03  0.86967067760E+02 0.  0.
          6    2    1    2  501    0  0.44017534981E+02 -0.32589865385E+03 -0.11976172026E+04  0.12538272857E+04  0.17218717299E+03 0.  0.
         24    2    5    5    0    0  0.82032230026E+02 -0.28113819144E+03 -0.10866896047E+04  0.11282261790E+04  0.78943299932E+02 0.  0.
         14    1    6    6    0    0  0.71041578848E+02 -0.17208271685E+03 -0.55616132324E+03  0.58649363580E+03  0.00000000000E+00 0. -1.
        -13    1    6    6    0    0  0.10990651178E+02 -0.10905547458E+03 -0.53052828147E+03  0.54173254323E+03  0.00000000000E+00 0.  1.
          5    1    5    5  501    0 -0.38014695046E+02 -0.44760462410E+02 -0.11092759787E+03  0.12560110670E+03  0.47000000000E+01 0. -1.
         11    1    4    4    0    0 -0.35516312615E+02  0.37861500415E+02 -0.99291100212E+02  0.11204295719E+03  0.00000000000E+00 0. -1.
        -12    1    4    4    0    0 -0.50386994197E+02  0.21631436682E+03 -0.19470384758E+03  0.29536476218E+03  0.00000000000E+00 0.  1.
         -5    1    3    3    0  503  0.41885771831E+02  0.71722786612E+02 -0.43444642027E+02  0.93851493979E+02  0.47000000000E+01 0.  1.
</event>
<event>
12    1  0.9749377E-001  0.6557856E+03  0.7818608E-02  0.9795983E-01
         21   -1    0    0  503  502  0.00000000000E+00  0.00000000000E+00  0.12017189413E+04  0.12017189413E+04  0.00000000000E+00 0. -1.
         21   -1    0    0  501  503 -0.00000000000E+00 -0.00000000000E+00 -0.37685262746E+03  0.37685262746E+03  0.00000000000E+00 0.  1.
          6    2    1    2  501    0  0.60778416835E+03  0.23126847415E+03  0.38626404775E+03  0.77559333500E+03  0.17163450784E+03 0.  0.
         24    2    3    3    0    0  0.39695558352E+03  0.15532987417E+03  0.32871145482E+03  0.54418513700E+03  0.79907056672E+02 0.  0.
         -6    2    1    2    0  502 -0.60778416835E+03 -0.23126847415E+03  0.43860226610E+03  0.80297823377E+03  0.17180044721E+03 0.  0.
        -24    2    5    5    0    0 -0.47810674928E+03 -0.21761961104E+03  0.40595435108E+03  0.66847730130E+03  0.78221533996E+02 0.  0.
         12    1    4    4    0    0  0.38398482612E+03  0.14082208463E+03  0.29166465179E+03  0.50233800903E+03  0.00000000000E+00 0. -1.
        -11    1    4    4    0    0  0.12970757397E+02  0.14507789541E+02  0.37046803028E+02  0.41847127971E+02  0.00000000000E+00 0.  1.
          5    1    3    3  501    0  0.21082858483E+03  0.75938599980E+02  0.57552592928E+02  0.23140819800E+03  0.47000000000E+01 0. -1.
         11    1    6    6    0    0 -0.15523319124E+03 -0.10107224893E+03  0.11137766539E+03  0.21614330319E+03  0.00000000000E+00 0. -1.
        -12    1    6    6    0    0 -0.32287355804E+03 -0.11654736210E+03  0.29457668569E+03  0.45233399811E+03  0.00000000000E+00 0.  1.
         -5    1    5    5    0  502 -0.12967741907E+03 -0.13648863111E+02  0.32647915014E+02  0.13450093247E+03  0.47000000000E+01 0.  1.
</event>
<event>
12    1  0.9749377E-001  0.6285795E+03  0.7818608E-02  0.9847825E-01
         21   -1    0    0  503  502  0.00000000000E+00  0.00000000000E+00  0.20974774943E+03  0.20974774943E+03  0.00000000000E+00 0.  1.
         21   -1    0    0  501  503 -0.00000000000E+00 -0.00000000000E+00 -0.19823065763E+04  0.19823065763E+04  0.00000000000E+00 0. -1.
          6    2    1    2  501    0  0.43509427643E+03  0.42897968488E+03 -0.69720904690E+03  0.94314087977E+03  0.17344643148E+03 0.  0.
         24    2    3    3    0    0  0.44753128324E+03  0.42244578314E+03 -0.67887998391E+03  0.91957362367E+03  0.77414001465E+02 0.  0.
         -6    2    1    2    0  502 -0.43509427643E+03 -0.42897968488E+03 -0.10753497800E+04  0.12489134459E+04  0.17342735301E+03 0.  0.
        -24    2    5    5    0    0 -0.39098165367E+03 -0.31135349213E+03 -0.90731466356E+03  0.10390569830E+04  0.81313372709E+02 0.  0.
         14    1    4    4    0    0  0.37348460952E+03  0.34858315022E+03 -0.60320695776E+03  0.79048061333E+03  0.00000000000E+00 0. -1.
        -13    1    4    4    0    0  0.74046673717E+02  0.73862632925E+02 -0.75673026152E+02  0.12909301034E+03  0.00000000000E+00 0.  1.
          5    1    3    3  501    0 -0.12437006803E+02  0.65339017337E+01 -0.18329062994E+02  0.23567256105E+02  0.47000000000E+01 0. -1.
         13    1    6    6    0    0 -0.21485821187E+03 -0.19433243726E+03 -0.44954005959E+03  0.53480408801E+03  0.00000000000E+00 0. -1.
        -14    1    6    6    0    0 -0.17612344180E+03 -0.11702105488E+03 -0.45777460397E+03  0.50425289496E+03  0.00000000000E+00 0.  1.
         -5    1    5    5    0  502 -0.44112622761E+02 -0.11762619275E+03 -0.16803511640E+03  0.20985646297E+03  0.47000000000E+01 0.  1.
</event>
<event>
12    1  0.9749377E-001  0.3429120E+03  0.7818608E-02  0.1065562E+00
         21   -1    0    0  503  502  0.00000000000E+00  0.00000000000E+00  0.16497249868E+03  0.16497249868E+03  0.00000000000E+00 0. -1.
         21   -1    0    0  501  503 -0.00000000000E+00 -0.00000000000E+00 -0.98646099524E+03  0.98646099524E+03  0.00000000000E+00 0.  1.
          6    2    1    2  501    0  0.57034259398E+02  0.30992124249E+03 -0.15820318391E+03  0.39700217999E+03  0.18242368330E+03 0.  0.
         24    2    3    3    0    0  0.66398659844E+02  0.26929691397E+03 -0.66203929911E+02  0.29588847766E+03  0.78977344671E+02 0.  0.
         -6    2    1    2    0  502 -0.57034259398E+02 -0.30992124249E+03 -0.66328531265E+03  0.75443131393E+03  0.17295987447E+03 0.  0.
        -24    2    5    5    0    0 -0.66289634949E+02 -0.32445453216E+03 -0.64024630629E+03  0.72528059697E+03  0.80321556751E+02 0.  0.
         12    1    4    4    0    0 -0.18383587144E+02  0.46159657378E+02 -0.11356971735E+02  0.50967156606E+02  0.00000000000E+00 0. -1.
        -11    1    4    4    0    0  0.84782246988E+02  0.22313725660E+03 -0.54846958176E+02  0.24492132105E+03  0.00000000000E+00 0.  1.
          5    1    3    3  501    0 -0.93644004459E+01  0.40624328513E+02 -0.91999253996E+02  0.10111370233E+03  0.47000000000E+01 0. -1.
         13    1    6    6    0    0 -0.46764937979E+02 -0.30954425220E+03 -0.56252874858E+03  0.64377262793E+03  0.00000000000E+00 0. -1.
        -14    1    6    6    0    0 -0.19524696970E+02 -0.14910279965E+02 -0.77717557710E+02  0.81507969039E+02  0.00000000000E+00 0.  1.
         -5    1    5    5    0  502  0.92553755512E+01  0.14533289677E+02 -0.23039006361E+02  0.29150716965E+02  0.47000000000E+01 0.  1.
</event>
<event>
12    1  0.9749377E-001  0.5763170E+03  0.7818608E-02  0.9955797E-01
         21   -1    0    0  501  502  0.00000000000E+00  0.00000000000E+00  0.33993262250E+03  0.33993262250E+03  0.00000000000E+00 0.  1.
         21   -1    0    0  502  503 -0.00000000000E+00 -0.00000000000E+00 -0.10687581462E+04  0.10687581462E+04  0.00000000000E+00 0. -1.
         -6    2    1    2    0  503  0.25072244792E+03  0.49441846992E+03 -0.17578684240E+03  0.60701247855E+03  0.17393034773E+03 0.  0.
        -24    2    3    3    0    0  0.11422848136E+03  0.33600985732E+03 -0.14638079606E+03  0.39580003333E+03  0.96330466411E+02 0.  0.
          6    2    1    2  501    0 -0.25072244792E+03 -0.49441846992E+03 -0.55303868127E+03  0.80167829012E+03  0.17182819493E+03 0.  0.
         24    2    5    5    0    0 -0.77192872806E+02 -0.96947231299E+02 -0.16246473626E+03  0.21801229360E+03  0.76007002070E+02 0.  0.
         14    1    6    6    0    0 -0.22934656536E+02  0.10192751947E+02 -0.24065239858E+02  0.34771057391E+02  0.00000000000E+00 0. -1.
        -13    1    6    6    0    0 -0.54258216270E+02 -0.10713998325E+03 -0.13839949640E+03  0.18324123621E+03  0.00000000000E+00 0.  1.
          5    1    5    5  501    0 -0.17352957511E+03 -0.39747123862E+03 -0.39057394502E+03  0.58366599652E+03  0.47000000000E+01 0. -1.
         11    1    4    4    0    0  0.12164692091E+03  0.24790150407E+03 -0.87908837449E+02  0.28979491505E+03  0.00000000000E+00 0. -1.
        -12    1    4    4    0    0 -0.74184395486E+01  0.88108353243E+02 -0.58471958615E+02  0.10600511828E+03  0.00000000000E+00 0.  1.
         -5    1    3    3    0  503  0.13649396656E+03  0.15840861261E+03 -0.29406046335E+02  0.21121244522E+03  0.47000000000E+01 0.  1.
</event>
<event>
12    1  0.9749377E-001  0.3373909E+03  0.7818608E-02  0.1067913E+00
         21   -1    0    0  503  502  0.00000000000E+00  0.00000000000E+00  0.25731179668E+03  0.25731179668E+03  0.00000000000E+00 0. -1.
         21   -1    0    0  501  503 -0.00000000000E+00 -0.00000000000E+00 -0.12123677401E+04  0.12123677401E+04  0.00000000000E+00 0.  1.
          6    2    1    2  501    0 -0.30172037701E+03 -0.87773854340E+02 -0.10420471810E+04  0.11019418134E+04  0.17226142115E+03 0.  0.
         24    2    3    3    0    0 -0.22796596885E+03 -0.24154787027E+01 -0.63876664447E+03  0.68315422263E+03  0.81869092562E+02 0.  0.
         -6    2    1    2    0  502  0.30172037701E+03  0.87773854340E+02  0.86991237555E+02  0.36773772344E+03  0.17007093349E+03 0.  0.
        -24    2    5    5    0    0  0.23590230020E+03  0.55123125454E+02  0.12614207110E+03  0.28435326986E+03  0.79098076951E+02 0.  0.
         12    1    4    4    0    0 -0.17647899358E+03  0.28675331889E+02 -0.52263317172E+03  0.55236993222E+03  0.00000000000E+00 0. -1.
        -11    1    4    4    0    0 -0.51486975274E+02 -0.31090810591E+02 -0.11613347274E+03  0.13078429041E+03  0.00000000000E+00 0.  1.
          5    1    3    3  501    0 -0.73754408156E+02 -0.85358375637E+02 -0.40328053655E+03  0.41878759076E+03  0.47000000000E+01 0. -1.
         11    1    6    6    0    0  0.21326343654E+03  0.29781476007E+02  0.86285744854E+02  0.23197728217E+03  0.00000000000E+00 0. -1.
        -12    1    6    6    0    0  0.22638863662E+02  0.25341649447E+02  0.39856326243E+02  0.52375987687E+02  0.00000000000E+00 0.  1.
         -5    1    5    5    0  502  0.65818076807E+02  0.32650728886E+02 -0.39150833542E+02  0.83384453578E+02  0.47000000000E+01 0.  1.
</event>
<event>
12    1  0.9749377E-001  0.3993067E+03  0.7818608E-02  0.1044020E+00
         21   -1    0    0  503  502  0.00000000000E+00  0.00000000000E+00  0.10895246963E+04  0.10895246963E+04  0.00000000000E+00 0.  1.
         21   -1    0    0  501  503 -0.00000000000E+00 -0.00000000000E+00 -0.76527398676E+03  0.76527398676E+03  0.00000000000E+00 0. -1.
          6    2    1    2  501    0 -0.21881239237E+03 -0.31773933542E+03  0.98271885145E+03  0.10724071605E+04  0.18837098629E+03 0.  0.
         24    2    3    3    0    0 -0.17131054952E+03 -0.31875060335E+03  0.92897555394E+03  0.10005191937E+04  0.84224851690E+02 0.  0.
         -6    2    1    2    0  502  0.21881239237E+03  0.31773933542E+03 -0.65846814195E+03  0.78239152257E+03  0.17239214688E+03 0.  0.
        -24    2    5    5    0    0  0.90941869196E+02  0.11694571583E+03 -0.38184452269E+03  0.41740979002E+03  0.80492044781E+02 0.  0.
         14    1    4    4    0    0 -0.85545558951E+02 -0.20524163530E+03  0.65657907160E+03  0.69320866179E+03  0.00000000000E+00 0. -1.
        -13    1    4    4    0    0 -0.85764990574E+02 -0.11350896805E+03  0.27239648234E+03  0.30731053192E+03  0.00000000000E+00 0.  1.
          5    1    3    3  501    0 -0.47501842844E+02  0.10112679277E+01  0.53743297510E+02  0.71887966751E+02  0.47000000000E+01 0. -1.
         11    1    6    6    0    0  0.45333935938E+02  0.59031659671E+02 -0.92000738168E+02  0.11833865985E+03  0.00000000000E+00 0. -1.
        -12    1    6    6    0    0  0.45607933258E+02  0.57914056162E+02 -0.28984378453E+03  0.29907113018E+03  0.00000000000E+00 0.  1.
         -5    1    5    5    0  502  0.12787052317E+03  0.20079361959E+03 -0.27662361925E+03  0.36498173255E+03  0.47000000000E+01 0.  1.
</event>
<event>
12    1  0.9749377E-001  0.1199462E+03  0.7818608E-02  0.1243186E+00
         21   -1    0    0  503  502  0.00000000000E+00  0.00000000000E+00  0.12808492086E+03  0.12808492086E+03  0.00000000000E+00 0. -1.
         21   -1    0    0  501  503 -0.00000000000E+00 -0.00000000000E+00 -0.26870350346E+03  0.26870350346E+03  0.00000000000E+00 0. -1.
          6    2    1    2  501    0 -0.29542152113E+02  0.90586999426E+01 -0.13755097390E+03  0.22244683166E+03  0.17206836925E+03 0.  0.
         24    2    3    3    0    0 -0.75337890333E+02 -0.30766076826E+02 -0.86194979121E+02  0.14280519253E+03  0.79632903902E+02 0.  0.
         -6    2    1    2    0  502  0.29542152113E+02 -0.90586999426E+01 -0.30676086908E+01  0.17434159266E+03  0.17155402039E+03 0.  0.
        -24    2    5    5    0    0  0.31910070399E+02 -0.33639015551E+02 -0.61675728342E+02  0.11057012065E+03  0.79196086738E+02 0.  0.
         12    1    4    4    0    0 -0.24888114614E+02 -0.67487287288E+01 -0.82916848833E+02  0.86834137348E+02  0.00000000000E+00 0. -1.
        -11    1    4    4    0    0 -0.50449775719E+02 -0.24017348097E+02 -0.32781302877E+01  0.55971055179E+02  0.00000000000E+00 0.  1.
          5    1    3    3  501    0  0.45795738220E+02  0.39824776768E+02 -0.51355994784E+02  0.79641639134E+02  0.47000000000E+01 0. -1.
         11    1    6    6    0    0 -0.15443075065E+02 -0.27544394419E+01 -0.50580157186E+02  0.52956848519E+02  0.00000000000E+00 0. -1.
        -12    1    6    6    0    0  0.47353145464E+02 -0.30884576109E+02 -0.11095571157E+02  0.57613272135E+02  0.00000000000E+00 0.  1.
         -5    1    5    5    0  502 -0.23679182861E+01  0.24580315608E+02  0.58608119652E+02  0.63771472004E+02  0.47000000000E+01 0.  1.
</event>
<event>
12    1  0.9749377E-001  0.8410748E+03  0.7818608E-02  0.9502395E-01
         21   -1    0    0  503  502  0.00000000000E+00  0.00000000000E+00  0.12158018296E+04  0.12158018296E+04  0.00000000000E+00 0. -1.
         21   -1    0    0  501  503 -0.00000000000E+00 -0.00000000000E+00 -0.67713607157E+03  0.67713607157E+03  0.00000000000E+00 0.  1.
          6    2    1    2  501    0  0.75682789473E+03 -0.33621279538E+03  0.61131656113E+03  0.10437690633E+04  0.17296940061E+03 0.  0.
         24    2    3    3    0    0  0.38814424711E+03 -0.11448110545E+03  0.34625096911E+03  0.53842320903E+03  0.79043901373E+02 0.  0.
         -6    2    1    2    0  502 -0.75682789473E+03  0.33621279538E+03 -0.72650803069E+02  0.84916883792E+03  0.17315331381E+03 0.  0.
        -24    2    5    5    0    0 -0.42388275617E+03  0.25855978281E+03 -0.65966186379E+02  0.50719043253E+03  0.79754904767E+02 0.  0.
         14    1    4    4    0    0  0.15645623314E+03 -0.82615827558E+02  0.17221136524E+03  0.24690217126E+03  0.00000000000E+00 0. -1.
        -13    1    4    4    0    0  0.23168801396E+03 -0.31865277889E+02  0.17403960387E+03  0.29152103777E+03  0.00000000000E+00 0.  1.
          5    1    3    3  501    0  0.36868364763E+03 -0.22173168993E+03  0.26506559202E+03  0.50534585426E+03  0.47000000000E+01 0. -1.
         11    1    6    6    0    0 -0.38971704395E+03  0.21944374700E+03 -0.39757967337E+02  0.44901628969E+03  0.00000000000E+00 0. -1.
        -12    1    6    6    0    0 -0.34165712223E+02  0.39116035811E+02 -0.26208219042E+02  0.58174142836E+02  0.00000000000E+00 0.  1.
         -5    1    5    5    0  502 -0.33294513856E+03  0.77653012563E+02 -0.66846166895E+01  0.34197840539E+03  0.47000000000E+01 0.  1.
</event>
<event>
12    1  0.9749377E-001  0.3240169E+03  0.7818608E-02  0.1073815E+00
         21   -1    0    0  503  502  0.00000000000E+00  0.00000000000E+00  0.16503194538E+04  0.16503194538E+04  0.00000000000E+00 0.  1.
         21   -1    0    0  501  503 -0.00000000000E+00 -0.00000000000E+00 -0.82908183071E+02  0.82908183071E+02  0.00000000000E+00 0. -1.
          6    2    1    2  501    0 -0.27588051107E+02 -0.29920142811E+03  0.10912691988E+04  0.11445859398E+04  0.17007620081E+03 0.  0.
         24    2    3    3    0    0  0.18300816836E+02 -0.24709078696E+03  0.69417944057E+03  0.74144369040E+03  0.80404436596E+02 0.  0.
         -6    2    1    2    0  502  0.27588051107E+02  0.29920142811E+03  0.47614207189E+03  0.58864169708E+03  0.17177071861E+03 0.  0.
        -24    2    5    5    0    0  0.59553299636E+02  0.15041089262E+03  0.33713755140E+03  0.38247490227E+03  0.80344820533E+02 0.  0.
         14    1    4    4    0    0  0.12720283929E+02 -0.23346772375E+03  0.56558485301E+03  0.61200915811E+03  0.00000000000E+00 0. -1.
        -13    1    4    4    0    0  0.55805329068E+01 -0.13623063209E+02  0.12859458757E+03  0.12943453229E+03  0.00000000000E+00 0.  1.
          5    1    3    3  501    0 -0.45888867943E+02 -0.52110641147E+02  0.39708975826E+03  0.40314224938E+03  0.47000000000E+01 0. -1.
         13    1    6    6    0    0  0.19782840836E+02 -0.22305413407E+01  0.64416789373E+02  0.67422984651E+02  0.00000000000E+00 0. -1.
        -14    1    6    6    0    0  0.39770458799E+02  0.15264143396E+03  0.27272076203E+03  0.31505191762E+03  0.00000000000E+00 0.  1.
         -5    1    5    5    0  502 -0.31965248529E+02  0.14879053549E+03  0.13900452048E+03  0.20616679480E+03  0.47000000000E+01 0.  1.
</event>
<event>
12    1  0.9749377E-001  0.3655473E+03  0.7818608E-02  0.1056409E+00
         21   -1    0    0  501  502  0.00000000000E+00  0.00000000000E+00  0.26032210425E+03  0.26032210425E+03  0.00000000000E+00 0. -1.
         21   -1    0    0  502  503 -0.00000000000E+00 -0.00000000000E+00 -0.70273414303E+03  0.70273414303E+03  0.00000000000E+00 0.  1.
         -6    2    1    2    0  503 -0.28978897995E+03 -0.16286210784E+03 -0.45432587219E+03  0.58863844520E+03  0.17199273810E+03 0.  0.
        -24    2    3    3    0    0 -0.81083698449E+02 -0.96925997639E+02 -0.23323259624E+03  0.27749572582E+03  0.81469127443E+02 0.  0.
          6    2    1    2  501    0  0.28978897995E+03  0.16286210784E+03  0.11913833413E+02  0.37441780207E+03  0.17188668364E+03 0.  0.
         24    2    5    5    0    0  0.17312396165E+03  0.17307488798E+03  0.10130441896E+02  0.25719878545E+03  0.78241718013E+02 0.  0.
         12    1    6    6    0    0  0.81059110516E+02  0.58782133617E+02 -0.30937688722E+02  0.10480009167E+03  0.00000000000E+00 0. -1.
        -11    1    6    6    0    0  0.92064851136E+02  0.11429275436E+03  0.41068130618E+02  0.15239869378E+03  0.00000000000E+00 0.  1.
          5    1    5    5  501    0  0.11666501830E+03 -0.10212780140E+02  0.17833915174E+01  0.11721901662E+03  0.47000000000E+01 0. -1.
         11    1    4    4    0    0 -0.86022396065E+02 -0.47231903790E+02 -0.17622935859E+03  0.20171140818E+03  0.00000000000E+00 0. -1.
        -12    1    4    4    0    0  0.49386976155E+01 -0.49694093849E+02 -0.57003237652E+02  0.75784317641E+02  0.00000000000E+00 0.  1.
         -5    1    3    3    0  503 -0.20870528150E+03 -0.65936110199E+02 -0.22109327595E+03  0.31114271938E+03  0.47000000000E+01 0.  1.
</event>
<event>
12    1  0.9749377E-001  0.1249013E+04  0.7818608E-02  0.9071005E-01
         21   -1    0    0  501  502  0.00000000000E+00  0.00000000000E+00  0.12948530041E+04  0.12948530041E+04  0.00000000000E+00 0. -1.
         21   -1    0    0  502  503 -0.00000000000E+00 -0.00000000000E+00 -0.12071380944E+04  0.12071380944E+04  0.00000000000E+00 0.  1.
         -6    2    1    2    0  503 -0.22161731119E+03  0.12181942942E+04  0.42147748255E+02  0.12508812488E+04  0.17267279751E+03 0.  0.
        -24    2    3    3    0    0 -0.24441852821E+03  0.10862962471E+04  0.41797682241E+02  0.11169439394E+04  0.77696615377E+02 0.  0.
          6    2    1    2  501    0  0.22161731119E+03 -0.12181942942E+04  0.45567161408E+02  0.12511098496E+04  0.17345869424E+03 0.  0.
         24    2    5    5    0    0  0.13105776944E+03 -0.47427640752E+03 -0.17759182560E+02  0.49901466379E+03  0.81154152405E+02 0.  0.
         12    1    6    6    0    0  0.60224523930E+02 -0.92487908383E+02 -0.17674118611E+01  0.11038174770E+03  0.00000000000E+00 0. -1.
        -11    1    6    6    0    0  0.70833245510E+02 -0.38178849913E+03 -0.15991770698E+02  0.38863291609E+03  0.00000000000E+00 0.  1.
          5    1    5    5  501    0  0.90559541745E+02 -0.74391788667E+03  0.63326343968E+02  0.75209518583E+03  0.47000000000E+01 0. -1.
         13    1    4    4    0    0  0.39879944306E+01  0.57277354136E+02  0.64445348528E+01  0.57776564677E+02  0.00000000000E+00 0. -1.
        -14    1    4    4    0    0 -0.24840652264E+03  0.10290188930E+04  0.35353147388E+02  0.10591673747E+04  0.00000000000E+00 0.  1.
         -5    1    3    3    0  503  0.22801217022E+02  0.13189804708E+03  0.35006601416E+00  0.13393730947E+03  0.47000000000E+01 0.  1.
</event>
<event>
12    1  0.9749377E-001  0.3580584E+03  0.7818608E-02  0.1059355E+00
         21   -1    0    0  503  502  0.00000000000E+00  0.00000000000E+00  0.93736167922E+03  0.93736167922E+03  0.00000000000E+00 0.  1.
         21   -1    0    0  501  503 -0.00000000000E+00 -0.00000000000E+00 -0.15595427199E+03  0.15595427199E+03  0.00000000000E+00 0. -1.
          6    2    1    2  501    0  0.35047503070E+02 -0.33065310146E+03  0.27958851138E+03  0.46726681012E+03  0.17207188953E+03 0.  0.
         24    2    3    3    0    0  0.80532397936E+02 -0.15984445465E+03  0.12787531162E+03  0.23427871071E+03  0.80614528279E+02 0.  0.
         -6    2    1    2    0  502 -0.35047503070E+02  0.33065310146E+03  0.50181889586E+03  0.62604914109E+03  0.17191719473E+03 0.  0.
        -24    2    5    5    0    0 -0.60015433727E+01  0.27941422415E+03  0.48319401612E+03  0.56409701063E+03  0.81367395240E+02 0.  0.
         14    1    4    4    0    0  0.47082150246E+02 -0.18314515639E+02  0.39234187497E+02  0.63964613838E+02  0.00000000000E+00 0. -1.
        -13    1    4    4    0    0  0.33450247690E+02 -0.14152993901E+03  0.88641124125E+02  0.17031409687E+03  0.00000000000E+00 0.  1.
          5    1    3    3  501    0 -0.45484894866E+02 -0.17080864681E+03  0.15171319976E+03  0.23298809941E+03  0.47000000000E+01 0. -1.
         13    1    6    6    0    0 -0.29050160109E+02  0.14466802754E+03  0.18972482016E+03  0.24035028059E+03  0.00000000000E+00 0. -1.
        -14    1    6    6    0    0  0.23048616737E+02  0.13474619660E+03  0.29346919596E+03  0.32374673004E+03  0.00000000000E+00 0.  1.
         -5    1    5    5    0  502 -0.29045959697E+02  0.51238877313E+02  0.18624879733E+02  0.61952130456E+02  0.47000000000E+01 0.  1.
</event>
<event>
12    1  0.9749377E-001  0.2776189E+03  0.7818608E-02  0.1096997E+00
         21   -1    0    0  501  502  0.00000000000E+00  0.00000000000E+00  0.43576970590E+03  0.43576970590E+03  0.00000000000E+00 0.  1.
         21   -1    0    0  502  503 -0.00000000000E+00 -0.00000000000E+00 -0.31303299838E+03  0.31303299838E+03  0.00000000000E+00 0. -1.
         -6    2    1    2    0  503 -0.18497534744E+03 -0.15970018951E+03  0.27404744945E+03  0.40530101685E+03  0.17160093247E+03 0.  0.
        -24    2    3    3    0    0 -0.61644360045E+02 -0.14063708746E+03  0.14297497735E+03  0.22425953749E+03  0.79193929758E+02 0.  0.
          6    2    1    2  501    0  0.18497534744E+03  0.15970018951E+03 -0.15131074192E+03  0.34350168742E+03  0.18809157065E+03 0.  0.
         24    2    5    5    0    0  0.12412518681E+03  0.76875745986E+02 -0.69820839533E+01  0.16625755633E+03  0.79220472224E+02 0.  0.
         12    1    6    6    0    0  0.39350628462E+02  0.70511773818E+02  0.19817178401E+01  0.80773197367E+02  0.00000000000E+00 0. -1.
        -11    1    6    6    0    0  0.84774558349E+02  0.63639721679E+01 -0.89638017934E+01  0.85484358965E+02  0.00000000000E+00 0.  1.
          5    1    5    5  501    0  0.60850160628E+02  0.82824443526E+02 -0.14432865797E+03  0.17724413109E+03  0.47000000000E+01 0. -1.
         11    1    4    4    0    0  0.89199203556E+01 -0.20947498282E+02 -0.27254541917E+01  0.22930127866E+02  0.00000000000E+00 0. -1.
        -12    1    4    4    0    0 -0.70564280401E+02 -0.11968958917E+03  0.14570043155E+03  0.20132940962E+03  0.00000000000E+00 0.  1.
         -5    1    3    3    0  503 -0.12333098739E+03 -0.19063102056E+02  0.13107247209E+03  0.18104147937E+03  0.47000000000E+01 0.  1.
</event>
<event>
12    1  0.9749377E-001  0.3608468E+03  0.7818608E-02  0.1058249E+00
         21   -1    0    0  503  502  0.00000000000E+00  0.00000000000E+00  0.13365201621E+03  0.13365201621E+03  0.00000000000E+00 0. -1.
         21   -1    0    0  501  503 -0.00000000000E+00 -0.00000000000E+00 -0.10916603586E+04  0.10916603586E+04  0.00000000000E+00 0.  1.
          6    2    1    2  501    0  0.33823296215E+03 -0.41355199478E+02 -0.50403094029E+03  0.63223506188E+03  0.17193660312E+03 0.  0.
         24    2    3    3    0    0  0.22104955373E+03  0.38139781470E+02 -0.34924357893E+03  0.42239555072E+03  0.78290329631E+02 0.  0.
         -6    2    1    2    0  502 -0.33823296215E+03  0.41355199478E+02 -0.45397740207E+03  0.59307731291E+03  0.17185292631E+03 0.  0.
        -24    2    5    5    0    0 -0.18678072612E+03  0.21946918569E+02 -0.15086851221E+03  0.25364904319E+03  0.78789734437E+02 0.  0.
         12    1    4    4    0    0  0.16886808819E+03  0.23223872340E+02 -0.19561643424E+03  0.25946400290E+03  0.00000000000E+00 0. -1.
        -11    1    4    4    0    0  0.52181465535E+02  0.14915909131E+02 -0.15362714469E+03  0.16293154782E+03  0.00000000000E+00 0.  1.
          5    1    3    3  501    0  0.11718340843E+03 -0.79494980948E+02 -0.15478736136E+03  0.20983951116E+03  0.47000000000E+01 0. -1.
         13    1    6    6    0    0 -0.12421328931E+02 -0.19669614423E+02 -0.27610827046E+02  0.36104583008E+02  0.00000000000E+00 0. -1.
        -14    1    6    6    0    0 -0.17435939719E+03  0.41616532992E+02 -0.12325768517E+03  0.21754446019E+03  0.00000000000E+00 0.  1.
         -5    1    5    5    0  502 -0.15145223603E+03  0.19408280909E+02 -0.30310888986E+03  0.33942826971E+03  0.47000000000E+01 0.  1.
</event>
<event>
12    1  0.9749377E-001  0.3024350E+03  0.7818608E-02  0.1084030E+00
         21   -1    0    0  503  502  0.00000000000E+00  0.00000000000E+00  0.27048366447E+03  0.27048366447E+03  0.00000000000E+00 0. -1.
         21   -1    0    0  501  503 -0.00000000000E+00 -0.00000000000E+00 -0.43406697419E+03  0.43406697419E+03  0.00000000000E+00 0.  1.
          6    2    1    2  501    0 -0.22607036459E+03 -0.13206669280E+03  0.60762311924E+02  0.31940768029E+03  0.17256820849E+03 0.  0.
         24    2    3    3    0    0 -0.10773785969E+03 -0.22671560511E+01  0.50426627973E+02  0.14339797084E+03  0.80047153759E+02 0.  0.
         -6    2    1    2    0  502  0.22607036459E+03  0.13206669280E+03 -0.22434562164E+03  0.38514295837E+03  0.17162377266E+03 0.  0.
        -24    2    5    5    0    0  0.20667134781E+02  0.45337194726E+02 -0.63233958739E+02  0.11002198394E+03  0.74991411012E+02 0.  0.
         14    1    4    4    0    0 -0.11699083687E+03  0.53897727301E+01  0.56395822872E+02  0.12998613156E+03  0.00000000000E+00 0. -1.
        -13    1    4    4    0    0  0.92529771788E+01 -0.76569287812E+01 -0.59691948986E+01  0.13411839276E+02  0.00000000000E+00 0.  1.
          5    1    3    3  501    0 -0.11833250491E+03 -0.12979953675E+03  0.10335683951E+02  0.17600970945E+03  0.47000000000E+01 0. -1.
         11    1    6    6    0    0  0.24688249921E+02  0.58375775977E+02 -0.22816382608E+02  0.67363404162E+02  0.00000000000E+00 0. -1.
        -12    1    6    6    0    0 -0.40211151391E+01 -0.13038581250E+02 -0.40417576131E+02  0.42658579773E+02  0.00000000000E+00 0.  1.
         -5    1    5    5    0  502  0.20540322981E+03  0.86729498073E+02 -0.16111166290E+03  0.27512097444E+03  0.47000000000E+01 0.  1.
</event>
<event>
12    1  0.9749377E-001  0.7025612E+03  0.7818608E-02  0.9712862E-01
         21   -1    0    0  501  502  0.00000000000E+00  0.00000000000E+00  0.15415753931E+04  0.15415753931E+04  0.00000000000E+00 0.  1.
         21   -1    0    0  502  503 -0.00000000000E+00 -0.00000000000E+00 -0.54430187564E+03  0.54430187564E+03  0.00000000000E+00 0. -1.
         -6    2    1    2    0  503 -0.69454006985E+03 -0.67987037339E+02  0.11456294818E+04  0.13524660414E+04  0.17230594257E+03 0.  0.
        -24    2    3    3    0    0 -0.67755334114E+03 -0.62611142405E+02  0.10433841831E+04  0.12485735956E+04  0.85362666617E+02 0.  0.
          6    2    1    2  501    0  0.69454006985E+03  0.67987037339E+02 -0.14835596435E+03  0.73341122728E+03  0.16992466055E+03 0.  0.
         24    2    5    5    0    0  0.57257314774E+03  0.85238713659E+02 -0.72532277298E+02  0.58868779468E+03  0.78655835967E+02 0.  0.
         14    1    6    6    0    0  0.14045140431E+03  0.40484918302E+02 -0.46857274770E+02  0.15349667678E+03  0.00000000000E+00 0. -1.
        -13    1    6    6    0    0  0.43212174343E+03  0.44753795356E+02 -0.25675002527E+02  0.43519111790E+03  0.00000000000E+00 0.  1.
          5    1    5    5  501    0  0.12196692210E+03 -0.17251676319E+02 -0.75823687057E+02  0.14472343260E+03  0.47000000000E+01 0. -1.
         13    1    4    4    0    0 -0.36889306235E+03 -0.55675110679E+01  0.62105897258E+03  0.72237617351E+03  0.00000000000E+00 0. -1.
        -14    1    4    4    0    0 -0.30866027879E+03 -0.57043631337E+02  0.42232521050E+03  0.52619742208E+03  0.00000000000E+00 0.  1.
         -5    1    3    3    0  503 -0.16986728712E+02 -0.53758949350E+01  0.10224529870E+03  0.10389244585E+03  0.47000000000E+01 0.  1.
</event>
<event>
12    1  0.9930068E-001  0.7180330E+03  0.7818608E-02  0.9686881E-01
         21   -1    0    0  503  502  0.00000000000E+00  0.00000000000E+00  0.13181676068E+04  0.13181676068E+04  0.00000000000E+00 0. -1.
         21   -1    0    0  501  503 -0.00000000000E+00 -0.00000000000E+00 -0.41831249091E+03  0.41831249091E+03  0.00000000000E+00 0.  1.
          6    2    1    2  501    0 -0.39148929874E+01 -0.70597583065E+03  0.62763055486E+03  0.96046848338E+03  0.17367324007E+03 0.  0.
         24    2    3    3    0    0  0.66459079582E+01 -0.19690781252E+03  0.13093151403E+03  0.24913606829E+03  0.78159224856E+02 0.  0.
         -6    2    1    2    0  502  0.39148929874E+01  0.70597583065E+03  0.27222456106E+03  0.77601161436E+03  0.17225160126E+03 0.  0.
        -24    2    5    5    0    0 -0.52978970582E+02  0.44657294312E+03  0.21117968908E+03  0.50347659613E+03  0.81594466220E+02 0.  0.
         14    1    4    4    0    0  0.37941813047E+02 -0.13481814467E+03  0.69485111119E+02  0.15634479197E+03  0.00000000000E+00 0. -1.
        -13    1    4    4    0    0 -0.31295905089E+02 -0.62089667853E+02  0.61446402916E+02  0.92791276318E+02  0.00000000000E+00 0.  1.
          5    1    3    3  501    0 -0.10560800946E+02 -0.50906801813E+03  0.49669904083E+03  0.71133241509E+03  0.47000000000E+01 0. -1.
         13    1    6    6    0    0 -0.25696981683E+02  0.78749760380E+02  0.70325845934E+02  0.10866270857E+03  0.00000000000E+00 0. -1.
        -14    1    6    6    0    0 -0.27281988899E+02  0.36782318274E+03  0.14085384315E+03  0.39481388756E+03  0.00000000000E+00 0.  1.
         -5    1    5    5    0  502  0.56893863570E+02  0.25940288752E+03  0.61044871979E+02  0.27253501823E+03  0.47000000000E+01 0.  1.
</event>
<event>
12    1  0.9749377E-001  0.4440990E+03  0.7818608E-02  0.1029497E+00
         21   -1    0    0  503  502  0.00000000000E+00  0.00000000000E+00  0.14694429001E+04  0.14694429001E+04  0.00000000000E+00 0.  1.
         21   -1    0    0  501  503 -0.00000000000E+00 -0.00000000000E+00 -0.14821748099E+03  0.14821748099E+03  0.00000000000E+00 0. -1.
          6    2    1    2  501    0 -0.34065590629E+03  0.25983964960E+03  0.54668353115E+03  0.71599341377E+03  0.17384071832E+03 0.  0.
         24    2    3    3    0    0 -0.18971855334E+03  0.16082456024E+03  0.21207186623E+03  0.33576568105E+03  0.76853415437E+02 0.  0.
         -6    2    1    2    0  502  0.34065590629E+03 -0.25983964960E+03  0.77454188799E+03  0.90166696734E+03  0.17182867557E+03 0.  0.
        -24    2    5    5    0    0  0.17138365100E+03 -0.62400913079E+02  0.28845754157E+03  0.35036375411E+03  0.79251354043E+02 0.  0.
         14    1    4    4    0    0 -0.10086124435E+03  0.66351352530E+02  0.14833418827E+03  0.19125512805E+03  0.00000000000E+00 0. -1.
        -13    1    4    4    0    0 -0.88857308996E+02  0.94473207715E+02  0.63737677959E+02  0.14451055300E+03  0.00000000000E+00 0.  1.
          5    1    3    3  501    0 -0.15093735294E+03  0.99015089356E+02  0.33461166491E+03  0.38022773272E+03  0.47000000000E+01 0. -1.
         11    1    6    6    0    0  0.45126715866E+01 -0.25873971770E+02  0.56374064417E+02  0.62192135829E+02  0.00000000000E+00 0. -1.
        -12    1    6    6    0    0  0.16687097942E+03 -0.36526941309E+02  0.23208347715E+03  0.28817161828E+03  0.00000000000E+00 0.  1.
         -5    1    5    5    0  502  0.16927225528E+03 -0.19743873652E+03  0.48608434642E+03  0.55130321324E+03  0.47000000000E+01 0.  1.
</event>
<event>
12    1  0.9749377E-001  0.4537363E+03  0.7818608E-02  0.1026614E+00
         21   -1    0    0  503  502  0.00000000000E+00  0.00000000000E+00  0.15143979628E+03  0.15143979628E+03  0.00000000000E+00 0.  1.
         21   -1    0    0  501  503 -0.00000000000E+00 -0.00000000000E+00 -0.15100872944E+04  0.15100872944E+04  0.00000000000E+00 0. -1.
          6    2    1    2  501    0 -0.43172044292E+03 -0.25653240897E+02 -0.51716814185E+03  0.69998763733E+03  0.18835916720E+03 0.  0.
         24    2    3    3    0    0 -0.25270043906E+03  0.62081298707E+02 -0.30024672796E+03  0.40533105582E+03  0.80209523211E+02 0.  0.
         -6    2    1    2    0  502  0.43172044292E+03  0.25653240897E+02 -0.84147935626E+03  0.96153945335E+03  0.17155169406E+03 0.  0.
        -24    2    5    5    0    0  0.38304257723E+03 -0.55100670039E+01 -0.79845158771E+03  0.88933027641E+03  0.81433566927E+02 0.  0.
         14    1    4    4    0    0 -0.17800437801E+03  0.21538680686E+02 -0.24634936224E+03  0.30469243777E+03  0.00000000000E+00 0. -1.
        -13    1    4    4    0    0 -0.74696061049E+02  0.40542618020E+02 -0.53897365714E+02  0.10063861805E+03  0.00000000000E+00 0.  1.
          5    1    3    3  501    0 -0.17902000386E+03 -0.87734539604E+02 -0.21692141389E+03  0.29465658151E+03  0.47000000000E+01 0. -1.
         13    1    6    6    0    0  0.19632944122E+03  0.19913340041E+02 -0.48483636876E+03  0.52345782550E+03  0.00000000000E+00 0. -1.
        -14    1    6    6    0    0  0.18671313600E+03 -0.25423407045E+02 -0.31361521895E+03  0.36587245091E+03  0.00000000000E+00 0.  1.
         -5    1    5    5    0  502  0.48677865690E+02  0.31163307901E+02 -0.43027768555E+02  0.72209176939E+02  0.47000000000E+01 0.  1.
</event>
<event>
12    1  0.9749377E-001  0.2266909E+03  0.7818608E-02  0.1128991E+00
         21   -1    0    0  501  502  0.00000000000E+00  0.00000000000E+00  0.50666355724E+03  0.50666355724E+03  0.00000000000E+00 0. -1.
         21   -1    0    0  502  503 -0.00000000000E+00 -0.00000000000E+00 -0.12119511412E+03  0.12119511412E+03  0.00000000000E+00 0.  1.
         -6    2    1    2    0  503 -0.13166760519E+03 -0.10342083099E+03  0.26936264119E+03  0.36100932312E+03  0.17245078246E+03 0.  0.
        -24    2    3    3    0    0 -0.15683457944E+03 -0.10799997763E+03  0.20217928354E+03  0.28896739976E+03  0.79778536930E+02 0.  0.
          6    2    1    2  501    0  0.13166760519E+03  0.10342083099E+03  0.11610580193E+03  0.26684934823E+03  0.17232466704E+03 0.  0.
         24    2    5    5    0    0  0.14515453916E+03  0.45648516695E+02  0.11574859929E+03  0.20733670016E+03  0.80231799706E+02 0.  0.
         12    1    6    6    0    0  0.69004292306E+02 -0.68021085747E+01  0.85428348722E+02  0.11002665042E+03  0.00000000000E+00 0. -1.
        -11    1    6    6    0    0  0.76150246852E+02  0.52450625270E+02  0.30320250565E+02  0.97310049743E+02  0.00000000000E+00 0.  1.
          5    1    5    5  501    0 -0.13486933966E+02  0.57772314292E+02  0.35720264398E+00  0.59512648068E+02  0.47000000000E+01 0. -1.
         11    1    4    4    0    0 -0.14178541688E+03 -0.56881859950E+02  0.15760782738E+03  0.21949687397E+03  0.00000000000E+00 0. -1.
        -12    1    4    4    0    0 -0.15049162554E+02 -0.51118117679E+02  0.44571456160E+02  0.69470525785E+02  0.00000000000E+00 0.  1.
         -5    1    3    3    0  503  0.25166974245E+02  0.45791466425E+01  0.67183357652E+02  0.72041923364E+02  0.47000000000E+01 0.  1.
</event>
<event>
12    1  0.9749377E-001  0.1409380E+03  0.7818608E-02  0.1212072E+00
         21   -1    0    0  501  502  0.00000000000E+00  0.00000000000E+00  0.86999686460E+03  0.86999686460E+03  0.00000000000E+00 0.  1.
         21   -1    0    0  502  503 -0.00000000000E+00 -0.00000000000E+00 -0.69233977310E+02  0.69233977310E+02  0.00000000000E+00 0.  1.
         -6    2    1    2    0  503 -0.22226661101E+02 -0.74930856587E+02  0.70022748034E+03  0.72524208912E+03  0.17189795193E+03 0.  0.
        -24    2    3    3    0    0  0.84061149650E+00  0.12147800151E+02  0.49146175591E+03  0.49782175313E+03  0.78380894949E+02 0.  0.
          6    2    1    2  501    0  0.22226661101E+02  0.74930856587E+02  0.10053540695E+03  0.21398875279E+03  0.17197430197E+03 0.  0.
         24    2    5    5    0    0  0.42926929043E+02  0.42842322194E+02  0.13654807595E+03  0.16128982054E+03  0.60752311529E+02 0.  0.
         14    1    6    6    0    0  0.49975773212E+02  0.11010939928E+02  0.65518937510E+02  0.83135731661E+02  0.00000000000E+00 0. -1.
        -13    1    6    6    0    0 -0.70488441696E+01  0.31831382266E+02  0.71029138438E+02  0.78154088878E+02  0.00000000000E+00 0.  1.
          5    1    5    5  501    0 -0.20700267942E+02  0.32088534394E+02 -0.36012668996E+02  0.52698932253E+02  0.47000000000E+01 0. -1.
         11    1    4    4    0    0 -0.33754001607E+02  0.61407561431E+01  0.36396634821E+03  0.36557973705E+03  0.00000000000E+00 0. -1.
        -12    1    4    4    0    0  0.34594613103E+02  0.60070440074E+01  0.12749540770E+03  0.13224201609E+03  0.00000000000E+00 0.  1.
         -5    1    3    3    0  503 -0.23067272598E+02 -0.87078656738E+02  0.20876572443E+03  0.22742033599E+03  0.47000000000E+01 0.  1.
</event>
<event>
12    1  0.9749377E-001  0.1777106E+04  0.7818608E-02  0.8718570E-01
         21   -1    0    0  503  502  0.00000000000E+00  0.00000000000E+00  0.24852079896E+04  0.24852079896E+04  0.00000000000E+00 0.  1.
         21   -1    0    0  501  503 -0.00000000000E+00 -0.00000000000E+00 -0.12787357153E+04  0.12787357153E+04  0.00000000000E+00 0. -1.
          6    2    1    2  501    0  0.12586945944E+03 -0.17698435428E+04  0.58120898585E+03  0.18749905269E+04  0.17203576393E+03 0.  0.
         24    2    3    3    0    0  0.85998820583E+02 -0.16245365164E+04  0.56185959959E+03  0.17230027362E+04  0.80854989248E+02 0.  0.
         -6    2    1    2    0  502 -0.12586945944E+03  0.17698435428E+04  0.62526328843E+03  0.18889531780E+04  0.17029574906E+03 0.  0.
        -24    2    5    5    0    0 -0.72307570837E+02  0.12081815960E+04  0.36220500275E+03  0.12664142073E+04  0.87643178706E+02 0.  0.
         14    1    4    4    0    0 -0.51276636556E+01 -0.33660032806E+03  0.14115211088E+03  0.36503423428E+03  0.00000000000E+00 0. -1.
        -13    1    4    4    0    0  0.91126484238E+02 -0.12879361883E+04  0.42070748872E+03  0.13579685020E+04  0.00000000000E+00 0.  1.
          5    1    3    3  501    0  0.39870638857E+02 -0.14530702639E+03  0.19349386261E+02  0.15198779066E+03  0.47000000000E+01 0. -1.
         11    1    6    6    0    0 -0.74068213349E+01  0.55270046887E+03  0.20220174526E+03  0.58857303292E+03  0.00000000000E+00 0. -1.
        -12    1    6    6    0    0 -0.64900749502E+02  0.65548112715E+03  0.16000325750E+03  0.67784117442E+03  0.00000000000E+00 0.  1.
         -5    1    5    5    0  502 -0.53561888602E+02  0.56166194675E+03  0.26305828567E+03  0.62253897066E+03  0.47000000000E+01 0.  1.
</event>
<event>
12    1  0.9749377E-001  0.2853006E+03  0.7818608E-02  0.1092829E+00
         21   -1    0    0  501  502  0.00000000000E+00  0.00000000000E+00  0.60991302695E+03  0.60991302695E+03  0.00000000000E+00 0.  1.
         21   -1    0    0  502  503 -0.00000000000E+00 -0.00000000000E+00 -0.20484583390E+03  0.20484583390E+03  0.00000000000E+00 0. -1.
         -6    2    1    2    0  503 -0.36313167275E+02  0.26601853419E+03  0.37791621908E+03  0.49476199818E+03  0.17287064396E+03 0.  0.
        -24    2    3    3    0    0  0.15825633361E+02  0.22999698386E+03  0.34711670534E+03  0.42414538068E+03  0.79121637816E+02 0.  0.
          6    2    1    2  501    0  0.36313167275E+02 -0.26601853419E+03  0.27150973967E+02  0.31999686268E+03  0.17197764414E+03 0.  0.
         24    2    5    5    0    0  0.23592009194E+02 -0.25560436872E+03  0.66052152301E+02  0.27750363520E+03  0.82190051240E+02 0.  0.
         12    1    6    6    0    0  0.27005645487E+02 -0.18638441856E+03  0.83539341775E+02  0.20602737195E+03  0.00000000000E+00 0. -1.
        -11    1    6    6    0    0 -0.34136362926E+01 -0.69219950156E+02 -0.17487189474E+02  0.71476263249E+02  0.00000000000E+00 0.  1.
          5    1    5    5  501    0  0.12721158081E+02 -0.10414165478E+02 -0.38901178334E+02  0.42493227476E+02  0.47000000000E+01 0. -1.
         13    1    4    4    0    0 -0.57605883118E+01  0.12478921075E+03  0.24943513644E+03  0.27896849067E+03  0.00000000000E+00 0. -1.
        -14    1    4    4    0    0  0.21586221673E+02  0.10520777312E+03  0.97681568895E+02  0.14517689001E+03  0.00000000000E+00 0.  1.
         -5    1    3    3    0  503 -0.52138800636E+02  0.36021550330E+02  0.30799513747E+02  0.70616617498E+02  0.47000000000E+01 0.  1.
</event>
<event>
12    1  0.9749377E-001  0.1985712E+03  0.7818608E-02  0.1150950E+00
         21   -1    0    0  503  502  0.00000000000E+00  0.00000000000E+00  0.22939932128E+03  0.22939932128E+03  0.00000000000E+00 0.  1.
         21   -1    0    0  501  503 -0.00000000000E+00 -0.00000000000E+00 -0.37394842183E+03  0.37394842183E+03  0.00000000000E+00 0.  1.
          6    2    1    2  501    0 -0.26255745884E+02  0.12730132316E+03  0.13348725951E+03  0.25305574069E+03  0.17124067382E+03 0.  0.
         24    2    3    3    0    0 -0.33243989318E+02  0.17324588631E+02  0.11085287669E+03  0.14045856945E+03  0.77684910147E+02 0.  0.
         -6    2    1    2    0  502  0.26255745884E+02 -0.12730132316E+03 -0.27803636006E+03  0.35029200243E+03  0.16883506265E+03 0.  0.
        -24    2    5    5    0    0  0.72177693735E+02 -0.47528952566E+02 -0.12014668154E+03  0.16747051302E+03  0.78374274111E+02 0.  0.
         12    1    4    4    0    0 -0.57917421633E+02  0.61518841544E+01  0.84814934636E+02  0.10288754319E+03  0.00000000000E+00 0. -1.
        -11    1    4    4    0    0  0.24673432315E+02  0.11172704477E+02  0.26037942058E+02  0.37571026259E+02  0.00000000000E+00 0.  1.
          5    1    3    3  501    0  0.69882434339E+01  0.10997673453E+03  0.22634382818E+02  0.11259717123E+03  0.47000000000E+01 0. -1.
         13    1    6    6    0    0 -0.28627426942E+01 -0.32740685926E+02 -0.66094276184E+02  0.73814640519E+02  0.00000000000E+00 0. -1.
        -14    1    6    6    0    0  0.75040436429E+02 -0.14788266639E+02 -0.54052405352E+02  0.93655872502E+02  0.00000000000E+00 0.  1.
         -5    1    5    5    0  502 -0.45921947851E+02 -0.79772370595E+02 -0.15788967852E+03  0.18282148941E+03  0.47000000000E+01 0.  1.
</event>
<event>
12    1  0.9749377E-001  0.1141335E+03  0.7818608E-02  0.1253101E+00
         21   -1    0    0  503  502  0.00000000000E+00  0.00000000000E+00  0.42049737129E+03  0.42049737129E+03  0.00000000000E+00 0.  1.
         21   -1    0    0  501  503 -0.00000000000E+00 -0.00000000000E+00 -0.20483937405E+03  0.20483937405E+03  0.00000000000E+00 0.  1.
          6    2    1    2  501    0  0.32908871458E+02 -0.19840932407E+02  0.35829825819E+03  0.39921653231E+03  0.17181251827E+03 0.  0.
         24    2    3    3    0    0  0.23747757046E+02 -0.17603771160E+02  0.59004433356E+02  0.99737293485E+02  0.74780718319E+02 0.  0.
         -6    2    1    2    0  502 -0.32908871458E+02  0.19840932407E+02 -0.14264026095E+03  0.22612021302E+03  0.17119418879E+03 0.  0.
        -24    2    5    5    0    0  0.40524049785E+02 -0.24534384442E+02 -0.90562484051E+02  0.12564261595E+03  0.73077826963E+02 0.  0.
         14    1    4    4    0    0  0.97130719680E+01 -0.31870867660E+02  0.69547867495E+02  0.77116806505E+02  0.00000000000E+00 0. -1.
        -13    1    4    4    0    0  0.14034685078E+02  0.14267096500E+02 -0.10543434139E+02  0.22620486980E+02  0.00000000000E+00 0.  1.
          5    1    3    3  501    0  0.91611144120E+01 -0.22371612473E+01  0.29929382483E+03  0.29947923883E+03  0.47000000000E+01 0. -1.
         11    1    6    6    0    0  0.18085040446E+02 -0.44751526682E+02 -0.80399028645E+02  0.93775112025E+02  0.00000000000E+00 0. -1.
        -12    1    6    6    0    0  0.22439009339E+02  0.20217142239E+02 -0.10163455406E+02  0.31867503922E+02  0.00000000000E+00 0.  1.
         -5    1    5    5    0  502 -0.73432921243E+02  0.44375316849E+02 -0.52077776894E+02  0.10047759707E+03  0.47000000000E+01 0.  1.
</event>
<event>
12    1  0.9749377E-001  0.1719177E+03  0.7818608E-02  0.1175863E+00
         21   -1    0    0  503  502  0.00000000000E+00  0.00000000000E+00  0.13489790916E+03  0.13489790916E+03  0.00000000000E+00 0. -1.
         21   -1    0    0  501  503 -0.00000000000E+00 -0.00000000000E+00 -0.27909253905E+03  0.27909253905E+03  0.00000000000E+00 0. -1.
          6    2    1    2  501    0 -0.73894564382E+01  0.64288503539E+02 -0.13762151116E+03  0.22904338295E+03  0.17127047378E+03 0.  0.
         24    2    3    3    0    0  0.36793174860E+02  0.52458476251E+01 -0.12655624577E+03  0.15432611438E+03  0.80117473759E+02 0.  0.
         -6    2    1    2    0  502  0.73894564382E+01 -0.64288503539E+02 -0.65731187293E+01  0.18494706525E+03  0.17313172817E+03 0.  0.
        -24    2    5    5    0    0  0.62930820540E+02 -0.75302959101E+02 -0.18274922463E+02  0.12693686297E+03  0.78410270800E+02 0.  0.
         12    1    4    4    0    0 -0.18171224510E+02 -0.20643651497E+02 -0.42093762018E+02  0.50281592538E+02  0.00000000000E+00 0. -1.
        -11    1    4    4    0    0  0.54964399371E+02  0.25889499122E+02 -0.84462483751E+02  0.10404452184E+03  0.00000000000E+00 0.  1.
          5    1    3    3  501    0 -0.44182631299E+02  0.59042655913E+02 -0.11065265390E+02  0.74717268579E+02  0.47000000000E+01 0. -1.
         11    1    6    6    0    0  0.18779609325E+02  0.15204999304E+02  0.18827859400E+01  0.24236555307E+02  0.00000000000E+00 0. -1.
        -12    1    6    6    0    0  0.44151211215E+02 -0.90507958405E+02 -0.20157708403E+02  0.10270030767E+03  0.00000000000E+00 0.  1.
         -5    1    5    5    0  502 -0.55541364102E+02  0.11014455562E+02  0.11701803734E+02  0.58010202277E+02  0.47000000000E+01 0.  1.
</event>
<event>
12    1  0.9749377E-001  0.8972471E+03  0.7818608E-02  0.9429029E-01
         21   -1    0    0  503  502  0.00000000000E+00  0.00000000000E+00  0.67452436374E+03  0.67452436374E+03  0.00000000000E+00 0.  1.
         21   -1    0    0  501  503 -0.00000000000E+00 -0.00000000000E+00 -0.21921818577E+04  0.21921818577E+04  0.00000000000E+00 0. -1.
          6    2    1    2  501    0 -0.78756972708E+03  0.41231262436E+03  0.19792052093E+03  0.92663767341E+03  0.17093001481E+03 0.  0.
         24    2    3    3    0    0 -0.29428792494E+03  0.21133781544E+03  0.10820708106E+03  0.38646325581E+03  0.79849988698E+02 0.  0.
         -6    2    1    2    0  502  0.78756972708E+03 -0.41231262436E+03 -0.17155780149E+04  0.19400685480E+04  0.17432805474E+03 0.  0.
        -24    2    5    5    0    0  0.52340667756E+03 -0.34338991058E+03 -0.12386251515E+04  0.13904881798E+04  0.85987973255E+02 0.  0.
         14    1    4    4    0    0 -0.24442477876E+03  0.18135385058E+03  0.58477539031E+02  0.30992307782E+03  0.00000000000E+00 0. -1.
        -13    1    4    4    0    0 -0.49863146177E+02  0.29983964861E+02  0.49729542034E+02  0.76540177987E+02  0.00000000000E+00 0.  1.
          5    1    3    3  501    0 -0.49328180214E+03  0.20097480891E+03  0.89713439867E+02  0.54017441761E+03  0.47000000000E+01 0. -1.
         11    1    6    6    0    0  0.22053112814E+03 -0.13450325695E+03 -0.60411368409E+03  0.65702241051E+03  0.00000000000E+00 0. -1.
        -12    1    6    6    0    0  0.30287554943E+03 -0.20888665363E+03 -0.63451146738E+03  0.73346576930E+03  0.00000000000E+00 0.  1.
         -5    1    5    5    0  502  0.26416304952E+03 -0.68922713777E+02 -0.47695286343E+03  0.54958036823E+03  0.47000000000E+01 0.  1.
</event>
<event>
12    1  0.9749377E-001  0.1034397E+04  0.7818608E-02  0.9271603E-01
         21   -1    0    0  501  502  0.00000000000E+00  0.00000000000E+00  0.45342496514E+03  0.45342496514E+03  0.00000000000E+00 0.  1.
         21   -1    0    0  502  503 -0.00000000000E+00 -0.00000000000E+00 -0.24441562493E+04  0.24441562493E+04  0.00000000000E+00 0. -1.
         -6    2    1    2    0  503  0.34378724189E+03 -0.97240309027E+03 -0.83790910040E+03  0.13403573292E+04  0.17523889919E+03 0.  0.
        -24    2    3    3    0    0  0.52766189066E+02 -0.15832386044E+03 -0.11797295928E+03  0.21530249369E+03  0.67726133639E+02 0.  0.
          6    2    1    2  501    0 -0.34378724189E+03  0.97240309027E+03 -0.11528221837E+04  0.15572238852E+04  0.17941517129E+03 0.  0.
         24    2    5    5    0    0 -0.19136299390E+03  0.45162998343E+03 -0.46210939064E+03  0.67884809277E+03  0.81854790811E+02 0.  0.
         12    1    6    6    0    0 -0.16163375330E+03  0.35959274468E+03 -0.32434224330E+03  0.51051964019E+03  0.00000000000E+00 0. -1.
        -11    1    6    6    0    0 -0.29729240596E+02  0.92037238756E+02 -0.13776714733E+03  0.16832845258E+03  0.00000000000E+00 0.  1.
          5    1    5    5  501    0 -0.15242424799E+03  0.52077310683E+03 -0.69071279308E+03  0.87837579241E+03  0.47000000000E+01 0. -1.
         11    1    4    4    0    0  0.37445036630E+02 -0.57244986444E+02 -0.14660285471E+02  0.69957438570E+02  0.00000000000E+00 0. -1.
        -12    1    4    4    0    0  0.15321152436E+02 -0.10107887399E+03 -0.10331267381E+03  0.14534505512E+03  0.00000000000E+00 0.  1.
         -5    1    3    3    0  503  0.29102105282E+03 -0.81407922983E+03 -0.71993614112E+03  0.11250548355E+04  0.47000000000E+01 0.  1.
</event>
<event>
12    1  0.9749377E-001  0.2834280E+03  0.7818608E-02  0.1093831E+00
         21   -1    0    0  501  502  0.00000000000E+00  0.00000000000E+00  0.11554803457E+03  0.11554803457E+03  0.00000000000E+00 0.  1.
         21   -1    0    0  502  503 -0.00000000000E+00 -0.00000000000E+00 -0.97971771545E+03  0.97971771545E+03  0.00000000000E+00 0. -1.
         -6    2    1    2    0  503  0.14728000970E+03 -0.20280124124E+03 -0.66865321067E+03  0.73455659237E+03  0.17221070395E+03 0.  0.
        -24    2    3    3    0    0  0.10532391499E+03 -0.59710680127E+02 -0.26389300306E+03  0.30317724860E+03  0.87283644624E+02 0.  0.
          6    2    1    2  501    0 -0.14728000970E+03  0.20280124124E+03 -0.19551647021E+03  0.36070915764E+03  0.17048361088E+03 0.  0.
         24    2    5    5    0    0 -0.35870918849E+02  0.13621896262E+03 -0.56655636316E+02  0.17057865893E+03  0.77748885272E+02 0.  0.
         14    1    6    6    0    0  0.20462458212E+02  0.10244938394E+02 -0.88807336609E+01  0.24546657392E+02  0.00000000000E+00 0. -1.
        -13    1    6    6    0    0 -0.56333377060E+02  0.12597402422E+03 -0.47774902655E+02  0.14603200154E+03  0.00000000000E+00 0.  1.
          5    1    5    5  501    0 -0.11140909085E+03  0.66582278621E+02 -0.13886083390E+03  0.19013049871E+03  0.47000000000E+01 0. -1.
         11    1    4    4    0    0 -0.30358979953E+01 -0.41428165463E+01 -0.94041375379E+02  0.94181526260E+02  0.00000000000E+00 0. -1.
        -12    1    4    4    0    0  0.10835981299E+03 -0.55567863581E+02 -0.16985162768E+03  0.20899572234E+03  0.00000000000E+00 0.  1.
         -5    1    3    3    0  503  0.41956094704E+02 -0.14309056111E+03 -0.40476020761E+03  0.43137934377E+03  0.47000000000E+01 0.  1.
</event>
<event>
12    1  0.9749377E-001  0.3200138E+03  0.7818608E-02  0.1075643E+00
         21   -1    0    0  501  502  0.00000000000E+00  0.00000000000E+00  0.14890228626E+04  0.14890228626E+04  0.00000000000E+00 0. -1.
         21   -1    0    0  502  503 -0.00000000000E+00 -0.00000000000E+00 -0.75093627826E+02  0.75093627826E+02  0.00000000000E+00 0.  1.
         -6    2    1    2    0  503  0.20973316784E+03 -0.19520104530E+03  0.69515916077E+03  0.77120292777E+03  0.17151165330E+03 0.  0.
        -24    2    3    3    0    0  0.26192464710E+02 -0.52760696252E+02  0.25504138348E+03  0.27350604147E+03  0.79307699232E+02 0.  0.
          6    2    1    2  501    0 -0.20973316784E+03  0.19520104530E+03  0.71877007400E+03  0.79291356266E+03  0.17317635172E+03 0.  0.
         24    2    5    5    0    0 -0.33155295904E+02  0.95324916452E+02  0.22940146336E+03  0.26314124076E+03  0.80200797092E+02 0.  0.
         12    1    6    6    0    0 -0.22893545040E+02  0.10482421695E+03  0.22358361601E+03  0.24799569394E+03  0.00000000000E+00 0. -1.
        -11    1    6    6    0    0 -0.10261750864E+02 -0.94993004979E+01  0.58178473491E+01  0.15145546822E+02  0.00000000000E+00 0.  1.
          5    1    5    5  501    0 -0.17657787193E+03  0.99876128844E+02  0.48936861064E+03  0.52977232190E+03  0.47000000000E+01 0. -1.
         13    1    4    4    0    0  0.10631987239E+02 -0.63603604805E+02  0.11220217915E+03  0.12941324006E+03  0.00000000000E+00 0. -1.
        -14    1    4    4    0    0  0.15560477471E+02  0.10842908553E+02  0.14283920433E+03  0.14409280141E+03  0.00000000000E+00 0.  1.
         -5    1    3    3    0  503  0.18354070313E+03 -0.14244034904E+03  0.44011777729E+03  0.49769688630E+03  0.47000000000E+01 0.  1.
</event>
<event>
12    1  0.9749377E-001  0.5700552E+03  0.7818608E-02  0.9969556E-01
         21   -1    0    0  503  502  0.00000000000E+00  0.00000000000E+00  0.15378803281E+04  0.15378803281E+04  0.00000000000E+00 0. -1.
         21   -1    0    0  501  503 -0.00000000000E+00 -0.00000000000E+00 -0.22107030711E+03  0.22107030711E+03  0.00000000000E+00 0.  1.
          6    2    1    2  501    0 -0.54597882807E+03  0.19125722924E+02  0.82344254444E+03  0.10030474016E+04  0.17201102262E+03 0.  0.
         24    2    3    3    0    0 -0.33310039389E+03  0.77515631822E+02  0.48623651214E+03  0.59998833966E+03  0.81212784725E+02 0.  0.
         -6    2    1    2    0  502  0.54597882807E+03 -0.19125722924E+02  0.49336747653E+03  0.75590323359E+03  0.17181256554E+03 0.  0.
        -24    2    5    5    0    0  0.37479266130E+03  0.51376955546E+02  0.31602120450E+03  0.49948731840E+03  0.80678677573E+02 0.  0.
         12    1    4    4    0    0 -0.33653679613E+03  0.78231461934E+02  0.48621906774E+03  0.59647812921E+03  0.00000000000E+00 0. -1.
        -11    1    4    4    0    0  0.34364022411E+01 -0.71583011185E+00  0.17444397736E-01  0.35102104522E+01  0.00000000000E+00 0.  1.
          5    1    3    3  501    0 -0.21287843418E+03 -0.58389908898E+02  0.33720603231E+03  0.40305906195E+03  0.47000000000E+01 0. -1.
         13    1    6    6    0    0  0.27403139743E+02  0.24359577597E+02  0.17360874696E+02  0.40567487705E+02  0.00000000000E+00 0. -1.
        -14    1    6    6    0    0  0.34738952156E+03  0.27017377949E+02  0.29866032981E+03  0.45891983069E+03  0.00000000000E+00 0.  1.
         -5    1    5    5    0  502  0.17118616677E+03 -0.70502678471E+02  0.17734627203E+03  0.25641591519E+03  0.47000000000E+01 0.  1.
</event>
<event>
12    1  0.9749377E-001  0.4481633E+03  0.7818608E-02  0.1028271E+00
         21   -1    0    0  501  502  0.00000000000E+00  0.00000000000E+00  0.68539869893E+03  0.68539869893E+03  0.00000000000E+00 0. -1.
         21   -1    0    0  502  503 -0.00000000000E+00 -0.00000000000E+00 -0.31386275300E+03  0.31386275300E+03  0.00000000000E+00 0.  1.
         -6    2    1    2    0  503  0.35326249505E+03  0.24612238903E+03  0.17820325848E+03  0.49709966095E+03  0.17315037046E+03 0.  0.
        -24    2    3    3    0    0  0.25275975930E+03  0.22789190393E+03  0.87339798106E+02  0.36031000889E+03  0.79830109430E+02 0.  0.
          6    2    1    2  501    0 -0.35326249505E+03 -0.24612238903E+03  0.19333268744E+03  0.50216179098E+03  0.17151768276E+03 0.  0.
         24    2    5    5    0    0 -0.16149629094E+03 -0.11973606832E+03  0.16085386224E+03  0.27016018929E+03  0.81821664828E+02 0.  0.
         12    1    6    6    0    0 -0.26178324233E+02  0.11085851496E+02  0.15719844799E+02  0.32485601173E+02  0.00000000000E+00 0. -1.
        -11    1    6    6    0    0 -0.13531796671E+03 -0.13082191982E+03  0.14513401744E+03  0.23767458812E+03  0.00000000000E+00 0.  1.
          5    1    5    5  501    0 -0.19176620411E+03 -0.12638632071E+03  0.32478825200E+02  0.23200160169E+03  0.47000000000E+01 0. -1.
         13    1    4    4    0    0  0.81443412791E+02  0.12076286249E+03  0.54931167227E+02  0.15567315625E+03  0.00000000000E+00 0. -1.
        -14    1    4    4    0    0  0.17131634651E+03  0.10712904144E+03  0.32408630880E+02  0.20463685264E+03  0.00000000000E+00 0.  1.
         -5    1    3    3    0  503  0.10050273575E+03  0.18230485100E+02  0.90863460378E+02  0.13678965206E+03  0.47000000000E+01 0.  1.
</event>
<event>
12    1  0.9749377E-001  0.2645803E+03  0.7818608E-02  0.1104422E+00
         21   -1    0    0  501  502  0.00000000000E+00  0.00000000000E+00  0.11582029089E+04  0.11582029089E+04  0.00000000000E+00 0.  1.
         21   -1    0    0  502  503 -0.00000000000E+00 -0.00000000000E+00 -0.97800666817E+02  0.97800666817E+02  0.00000000000E+00 0. -1.
         -6    2    1    2    0  503  0.21806065364E+03 -0.19580273959E+02  0.17782715075E+03  0.33046729745E+03  0.17219844176E+03 0.  0.
        -24    2    3    3    0    0  0.13790618798E+03 -0.70367954192E+02  0.64627513467E+02  0.18268240408E+03  0.72293703749E+02 0.  0.
          6    2    1    2  501    0 -0.21806065364E+03  0.19580273959E+02  0.88257509136E+03  0.92553627829E+03  0.17246673520E+03 0.  0.
         24    2    5    5    0    0 -0.47325418681E+02  0.29730301725E+02  0.44044431659E+03  0.45145268280E+03  0.81821407295E+02 0.  0.
         14    1    6    6    0    0  0.11314330328E+02  0.35056745530E+02  0.11599814581E+03  0.12170685810E+03  0.00000000000E+00 0. -1.
        -13    1    6    6    0    0 -0.58639749009E+02 -0.53264438052E+01  0.32444617079E+03  0.32974582470E+03  0.00000000000E+00 0.  1.
          5    1    5    5  501    0 -0.17073523496E+03 -0.10150027766E+02  0.44213077476E+03  0.47408359549E+03  0.47000000000E+01 0. -1.
         13    1    4    4    0    0  0.85459142406E+02 -0.79812072295E+01  0.51591405809E+02  0.10014308684E+03  0.00000000000E+00 0. -1.
        -14    1    4    4    0    0  0.52447045573E+02 -0.62386746963E+02  0.13036107658E+02  0.82539317230E+02  0.00000000000E+00 0.  1.
         -5    1    3    3    0  503  0.80154465664E+02  0.50787680233E+02  0.11319963728E+03  0.14778489338E+03  0.47000000000E+01 0.  1.
</event>
<event>
12    1  0.9749377E-001  0.5759916E+03  0.7818608E-02  0.9956507E-01
         21   -1    0    0  503  502  0.00000000000E+00  0.00000000000E+00  0.15062014256E+03  0.15062014256E+03  0.00000000000E+00 0.  1.
         21   -1    0    0  501  503 -0.00000000000E+00 -0.00000000000E+00 -0.31301020228E+04  0.31301020228E+04  0.00000000000E+00 0. -1.
          6    2    1    2  501    0 -0.39041442648E+03  0.41534629982E+03 -0.23091659400E+04  0.23847532213E+04  0.17281381567E+03 0.  0.
         24    2    3    3    0    0 -0.28735503456E+03  0.33942778200E+03 -0.15384818260E+04  0.16034972113E+04  0.80578176965E+02 0.  0.
         -6    2    1    2    0  502  0.39041442648E+03 -0.41534629982E+03 -0.67031594020E+03  0.89596894402E+03  0.16882214243E+03 0.  0.
        -24    2    5    5    0    0  0.13476073169E+03 -0.13958811653E+03 -0.16830311198E+03  0.26872070208E+03  0.78991019380E+02 0.  0.
         12    1    4    4    0    0 -0.97745006179E+02  0.61494768276E+02 -0.38392423314E+03  0.40091583849E+03  0.00000000000E+00 0. -1.
        -11    1    4    4    0    0 -0.18961002838E+03  0.27793301373E+03 -0.11545575929E+04  0.12025813728E+04  0.00000000000E+00 0.  1.
          5    1    3    3  501    0 -0.10305939192E+03  0.75918517817E+02 -0.77068411399E+03  0.78125601000E+03  0.47000000000E+01 0. -1.
         11    1    6    6    0    0  0.97007770343E+02 -0.11668570057E+03 -0.16540995932E+03  0.22446940741E+03  0.00000000000E+00 0. -1.
        -12    1    6    6    0    0  0.37752961350E+02 -0.22902415965E+02 -0.28931526665E+01  0.44251294671E+02  0.00000000000E+00 0.  1.
         -5    1    5    5    0  502  0.25565369478E+03 -0.27575818329E+03 -0.50201282822E+03  0.62724824193E+03  0.47000000000E+01 0.  1.
</event>
<event>
12    1  0.9749377E-001  0.3054818E+03  0.7818608E-02  0.1082532E+00
         21   -1    0    0  503  502  0.00000000000E+00  0.00000000000E+00  0.78090391120E+02  0.78090391120E+02  0.00000000000E+00 0.  1.
         21   -1    0    0  501  503 -0.00000000000E+00 -0.00000000000E+00 -0.17044615938E+04  0.17044615938E+04  0.00000000000E+00 0. -1.
          6    2    1    2  501    0  0.43865944124E+02 -0.27408589980E+03 -0.41406024286E+03  0.52703470522E+03  0.17109177150E+03 0.  0.
         24    2    3    3    0    0  0.44285112101E+02 -0.12209969527E+03 -0.30209851357E+03  0.33820276700E+03  0.79044879449E+02 0.  0.
         -6    2    1    2    0  502 -0.43865944124E+02  0.27408589980E+03 -0.12123109598E+04  0.12555172797E+04  0.17198393758E+03 0.  0.
        -24    2    5    5    0    0  0.36281641323E+01  0.43157285641E+02 -0.38124126701E+03  0.39164076105E+03  0.78497561522E+02 0.  0.
         12    1    4    4    0    0 -0.15187536253E+02 -0.73816886711E+02 -0.14442526708E+03  0.16290565304E+03  0.00000000000E+00 0. -1.
        -11    1    4    4    0    0  0.59472648354E+02 -0.48282808562E+02 -0.15767324649E+03  0.17529711396E+03  0.00000000000E+00 0.  1.
          5    1    3    3  501    0 -0.41916797708E+00 -0.15198620453E+03 -0.11196172929E+03  0.18883193822E+03  0.47000000000E+01 0. -1.
         11    1    6    6    0    0 -0.22751020085E+02  0.28120119478E+01 -0.33610970714E+02  0.40684317352E+02  0.00000000000E+00 0. -1.
        -12    1    6    6    0    0  0.26379184217E+02  0.40345273693E+02 -0.34763029630E+03  0.35095644370E+03  0.00000000000E+00 0.  1.
         -5    1    5    5    0  502 -0.47494108256E+02  0.23092861416E+03 -0.83106969283E+03  0.86387651866E+03  0.47000000000E+01 0.  1.
</event>
<event>
12    1  0.9749377E-001  0.5981383E+03  0.7818608E-02  0.9909276E-01
         21   -1    0    0  501  502  0.00000000000E+00  0.00000000000E+00  0.42910958047E+03  0.42910958047E+03  0.00000000000E+00 0. -1.
         21   -1    0    0  502  503 -0.00000000000E+00 -0.00000000000E+00 -0.93638925975E+03  0.93638925975E+03  0.00000000000E+00 0.  1.
         -6    2    1    2    0  503  0.35565402738E+03  0.47915808473E+03 -0.11605735864E+03  0.63149755268E+03  0.17099003242E+03 0.  0.
        -24    2    3    3    0    0  0.34116021600E+02  0.50445296973E+02 -0.27988545090E+02  0.88395767125E+02  0.57635250263E+02 0.  0.
          6    2    1    2  501    0 -0.35565402738E+03 -0.47915808473E+03 -0.39122232064E+03  0.73400128754E+03  0.17210673605E+03 0.  0.
         24    2    5    5    0    0 -0.15828481913E+03 -0.23874385107E+03 -0.28005326654E+03  0.40364654382E+03  0.49477164913E+02 0.  0.
         14    1    6    6    0    0 -0.50204776345E+02 -0.82574838823E+02 -0.63624700731E+02  0.11570318110E+03  0.00000000000E+00 0. -1.
        -13    1    6    6    0    0 -0.10808004279E+03 -0.15616901225E+03 -0.21642856580E+03  0.28794336272E+03  0.00000000000E+00 0.  1.
          5    1    5    5  501    0 -0.19736920825E+03 -0.24041423365E+03 -0.11116905411E+03  0.33035474372E+03  0.47000000000E+01 0. -1.
         11    1    4    4    0    0  0.10024032438E+02  0.28179567257E+02 -0.42951425208E+02  0.52339222047E+02  0.00000000000E+00 0. -1.
        -12    1    4    4    0    0  0.24091989161E+02  0.22265729716E+02  0.14962880118E+02  0.36056545078E+02  0.00000000000E+00 0.  1.
         -5    1    3    3    0  503  0.32153800578E+03  0.42871278776E+03 -0.88068813548E+02  0.54310178555E+03  0.47000000000E+01 0.  1.
</event>
<event>
12    1  0.9749377E-001  0.4616833E+03  0.7818608E-02  0.1024294E+00
         21   -1    0    0  503  502  0.00000000000E+00  0.00000000000E+00  0.20075464319E+04  0.20075464319E+04  0.00000000000E+00 0. -1.
         21   -1    0    0  501  503 -0.00000000000E+00 -0.00000000000E+00 -0.11567118452E+03  0.11567118452E+03  0.00000000000E+00 0.  1.
          6    2    1    2  501    0  0.21880372485E+03  0.39237895829E+03  0.88375989972E+03  0.10061687976E+04  0.17177826414E+03 0.  0.
         24    2    3    3    0    0  0.12547917544E+03  0.15865196380E+03  0.51864270988E+03  0.56269339605E+03  0.81964189512E+02 0.  0.
         -6    2    1    2    0  502 -0.21880372485E+03 -0.39237895829E+03  0.10081153476E+04  0.11170488188E+04  0.17223586292E+03 0.  0.
        -24    2    5    5    0    0 -0.37022941188E+02 -0.71999214494E+02  0.23470363287E+03  0.26038365427E+03  0.78480998126E+02 0.  0.
         14    1    4    4    0    0  0.76193286961E+02  0.65724152713E+02  0.16060130532E+03  0.18952007941E+03  0.00000000000E+00 0. -1.
        -13    1    4    4    0    0  0.49285888477E+02  0.92927811084E+02  0.35804140456E+03  0.37317331665E+03  0.00000000000E+00 0.  1.
          5    1    3    3  501    0  0.93324549411E+02  0.23372699450E+03  0.36511718984E+03  0.44347540157E+03  0.47000000000E+01 0. -1.
         13    1    6    6    0    0 -0.19545977427E+02 -0.76864873872E+02  0.22738776968E+03  0.24082244884E+03  0.00000000000E+00 0. -1.
        -14    1    6    6    0    0 -0.17476963761E+02  0.48656593777E+01  0.73158631945E+01  0.19561205427E+02  0.00000000000E+00 0.  1.
         -5    1    5    5    0  502 -0.18178078366E+03 -0.32037974380E+03  0.77341171475E+03  0.85666516449E+03  0.47000000000E+01 0.  1.
</event>
<event>
12    1  0.9749377E-001  0.6148436E+03  0.7818608E-02  0.9875080E-01
         21   -1    0    0  503  502  0.00000000000E+00  0.00000000000E+00  0.13357164270E+04  0.13357164270E+04  0.00000000000E+00 0. -1.
         21   -1    0    0  501  503 -0.00000000000E+00 -0.00000000000E+00 -0.40264438890E+03  0.40264438890E+03  0.00000000000E+00 0.  1.
          6    2    1    2  501    0  0.16120379193E+03  0.57416055841E+03  0.33836526374E+01  0.62053965567E+03  0.17149637252E+03 0.  0.
         24    2    3    3    0    0  0.15880287945E+03  0.32014201301E+03 -0.18708417883E+02  0.36550762755E+03  0.74408049844E+02 0.  0.
         -6    2    1    2    0  502 -0.16120379193E+03 -0.57416055841E+03  0.92968838543E+03  0.11178211602E+04  0.17192045494E+03 0.  0.
        -24    2    5    5    0    0 -0.82938985701E+02 -0.19024860972E+03  0.42422247918E+03  0.47826534823E+03  0.75495845124E+02 0.  0.
         12    1    4    4    0    0  0.83916947349E+00  0.50854112269E+02 -0.15924570524E+02  0.53295749234E+02  0.00000000000E+00 0. -1.
        -11    1    4    4    0    0  0.15796370998E+03  0.26928790075E+03 -0.27838473585E+01  0.31221187832E+03  0.00000000000E+00 0.  1.
          5    1    3    3  501    0  0.24009124818E+01  0.25401854539E+03  0.22092070520E+02  0.25503202812E+03  0.47000000000E+01 0. -1.
         13    1    6    6    0    0  0.14458423278E+02 -0.26699593641E+02  0.64181072869E+02  0.71000876184E+02  0.00000000000E+00 0. -1.
        -14    1    6    6    0    0 -0.97397408979E+02 -0.16354901608E+03  0.36004140631E+03  0.40726447205E+03  0.00000000000E+00 0.  1.
         -5    1    5    5    0  502 -0.78264806231E+02 -0.38391194869E+03  0.50546590626E+03  0.63955581197E+03  0.47000000000E+01 0.  1.
</event>
<event>
12    1  0.9749377E-001  0.2711864E+03  0.7818608E-02  0.1100603E+00
         21   -1    0    0  503  502  0.00000000000E+00  0.00000000000E+00  0.35511548808E+03  0.35511548808E+03  0.00000000000E+00 0. -1.
         21   -1    0    0  501  503 -0.00000000000E+00 -0.00000000000E+00 -0.55234149245E+03  0.55234149245E+03  0.00000000000E+00 0.  1.
          6    2    1    2  501    0  0.19409091669E+03  0.15027039494E+03 -0.43242291778E+03  0.52624184719E+03  0.17230329765E+03 0.  0.
         24    2    3    3    0    0  0.20387756047E+03  0.13550021118E+03 -0.43728245347E+03  0.50727762266E+03  0.78665592469E+02 0.  0.
         -6    2    1    2    0  502 -0.19409091669E+03 -0.15027039494E+03  0.23519691340E+03  0.38121513334E+03  0.17249612829E+03 0.  0.
        -24    2    5    5    0    0 -0.33604521337E+02 -0.13596677111E+02  0.79311752627E+02  0.11899793026E+03  0.80969252307E+02 0.  0.
         12    1    4    4    0    0  0.84308943837E+02  0.65191525442E+02 -0.11707289939E+03  0.15831612922E+03  0.00000000000E+00 0. -1.
        -11    1    4    4    0    0  0.11956861664E+03  0.70308685743E+02 -0.32020955408E+03  0.34896149344E+03  0.00000000000E+00 0.  1.
          5    1    3    3  501    0 -0.97866437866E+01  0.14770183758E+02  0.48595356995E+01  0.18964224531E+02  0.47000000000E+01 0. -1.
         11    1    6    6    0    0 -0.46589060073E+02  0.31776962674E+01  0.11705773042E+02  0.48142116640E+02  0.00000000000E+00 0. -1.
        -12    1    6    6    0    0  0.12984538736E+02 -0.16774373379E+02  0.67605979586E+02  0.70855813623E+02  0.00000000000E+00 0.  1.
         -5    1    5    5    0  502 -0.16048639535E+03 -0.13667371783E+03  0.15588516078E+03  0.26221720308E+03  0.47000000000E+01 0.  1.
</event>
<event>
12    1  0.9749377E-001  0.7407800E+03  0.7818608E-02  0.9649927E-01
         21   -1    0    0  501  502  0.00000000000E+00  0.00000000000E+00  0.11798790675E+04  0.11798790675E+04  0.00000000000E+00 0. -1.
         21   -1    0    0  502  503 -0.00000000000E+00 -0.00000000000E+00 -0.18227137442E+04  0.18227137442E+04  0.00000000000E+00 0.  1.
         -6    2    1    2    0  503 -0.12103581539E+03 -0.71580119346E+03  0.97121360556E+03  0.12245900449E+04  0.17130059345E+03 0.  0.
        -24    2    3    3    0    0 -0.10429395317E+03 -0.27664023880E+03  0.38265267045E+03  0.49003664428E+03  0.79409043210E+02 0.  0.
          6    2    1    2  501    0  0.12103581539E+03  0.71580119346E+03 -0.16140482822E+04  0.17780027668E+04  0.17064865699E+03 0.  0.
         24    2    5    5    0    0  0.13913433664E+03  0.47819871795E+03 -0.11678473106E+04  0.12721372808E+04  0.80209368484E+02 0.  0.
         14    1    6    6    0    0  0.82188556659E+02  0.34203165638E+03 -0.73551916583E+03  0.81530917823E+03  0.00000000000E+00 0. -1.
        -13    1    6    6    0    0  0.56945779980E+02  0.13616706158E+03 -0.43232814478E+03  0.45682810256E+03  0.00000000000E+00 0.  1.
          5    1    5    5  501    0 -0.18098521251E+02  0.23760247551E+03 -0.44620097162E+03  0.50586548599E+03  0.47000000000E+01 0. -1.
         11    1    4    4    0    0 -0.32692624088E+02 -0.18597130781E+03  0.21131810627E+03  0.28338926768E+03  0.00000000000E+00 0. -1.
        -12    1    4    4    0    0 -0.71601329077E+02 -0.90668930986E+02  0.17133456417E+03  0.20664737659E+03  0.00000000000E+00 0.  1.
         -5    1    3    3    0  503 -0.16741862223E+02 -0.43916095466E+03  0.58856093511E+03  0.73455340064E+03  0.47000000000E+01 0.  1.
</event>
<event>
12    1  0.9749377E-001  0.7133565E+03  0.7818608E-02  0.9694660E-01
         21   -1    0    0  501  502  0.00000000000E+00  0.00000000000E+00  0.18328005186E+04  0.18328005186E+04  0.00000000000E+00 0. -1.
         21   -1    0    0  502  503 -0.00000000000E+00 -0.00000000000E+00 -0.30054907055E+03  0.30054907055E+03  0.00000000000E+00 0.  1.
         -6    2    1    2    0  503  0.23036142125E+03  0.66969024215E+03  0.56420403707E+03  0.92163204263E+03  0.17183719543E+03 0.  0.
        -24    2    3    3    0    0  0.17422053834E+03  0.46293582850E+03  0.47135071160E+03  0.68808757931E+03  0.81428779848E+02 0.  0.
          6    2    1    2  501    0 -0.23036142125E+03 -0.66969024215E+03  0.96804741100E+03  0.12117175465E+04  0.17202388738E+03 0.  0.
         24    2    5    5    0    0 -0.21926174264E+03 -0.65155814136E+03  0.96800754765E+03  0.11899444546E+04  0.79532819213E+02 0.  0.
         14    1    6    6    0    0 -0.82258281246E+02 -0.32909561346E+03  0.42605404453E+03  0.54460297143E+03  0.00000000000E+00 0. -1.
        -13    1    6    6    0    0 -0.13700346139E+03 -0.32246252790E+03  0.54195350313E+03  0.64534148316E+03  0.00000000000E+00 0.  1.
          5    1    5    5  501    0 -0.11099678617E+02 -0.18132100791E+02  0.39863349621E-01  0.21773091962E+02  0.47000000000E+01 0. -1.
         11    1    4    4    0    0  0.15316655756E+03  0.45219674408E+03  0.45329693834E+03  0.65834641642E+03  0.00000000000E+00 0. -1.
        -12    1    4    4    0    0  0.21053980782E+02  0.10739084422E+02  0.18053773263E+02  0.29741162890E+02  0.00000000000E+00 0.  1.
         -5    1    3    3    0  503  0.56140882910E+02  0.20675441365E+03  0.92853325463E+02  0.23354446332E+03  0.47000000000E+01 0.  1.
</event>
<event>
12    1  0.9749377E-001  0.2490534E+03  0.7818608E-02  0.1113905E+00
         21   -1    0    0  501  502  0.00000000000E+00  0.00000000000E+00  0.74608370921E+02  0.74608370921E+02  0.00000000000E+00 0.  1.
         21   -1    0    0  502  503 -0.00000000000E+00 -0.00000000000E+00 -0.98540516271E+03  0.98540516271E+03  0.00000000000E+00 0. -1.
         -6    2    1    2    0  503 -0.63631929143E+02 -0.20441345947E+03 -0.40121347533E+03  0.48247452770E+03  0.16116926591E+03 0.  0.
        -24    2    3    3    0    0 -0.34674988907E+02 -0.16094940546E+03 -0.38724010463E+03  0.42820691796E+03  0.79367499507E+02 0.  0.
          6    2    1    2  501    0  0.63631929143E+02  0.20441345947E+03 -0.50958331645E+03  0.57753900592E+03  0.16745823999E+03 0.  0.
         24    2    5    5    0    0  0.44898038175E+02  0.25951329376E+02 -0.19218122595E+03  0.21289415459E+03  0.75504914565E+02 0.  0.
         12    1    6    6    0    0 -0.16805419704E+02  0.15808672949E+02 -0.91586649807E+02  0.94448137592E+02  0.00000000000E+00 0. -1.
        -11    1    6    6    0    0  0.61703457880E+02  0.10142656428E+02 -0.10059457614E+03  0.11844601700E+03  0.00000000000E+00 0.  1.
          5    1    5    5  501    0  0.18733890968E+02  0.17846213009E+03 -0.31740209050E+03  0.36464485133E+03  0.47000000000E+01 0. -1.
         13    1    4    4    0    0  0.46663958246E+01  0.68070707598E+01 -0.36577471417E+02  0.37496971578E+02  0.00000000000E+00 0. -1.
        -14    1    4    4    0    0 -0.39341384731E+02 -0.16775647622E+03 -0.35066263321E+03  0.39070994638E+03  0.00000000000E+00 0.  1.
         -5    1    3    3    0  503 -0.28956940236E+02 -0.43464054009E+02 -0.13973370703E+02  0.54267609746E+02  0.47000000000E+01 0.  1.
</event>
<event>
12    1  0.9749377E-001  0.4309719E+03  0.7818608E-02  0.1033553E+00
         21   -1    0    0  501  502  0.00000000000E+00  0.00000000000E+00  0.33430155309E+03  0.33430155309E+03  0.00000000000E+00 0. -1.
         21   -1    0    0  502  503 -0.00000000000E+00 -0.00000000000E+00 -0.98813522541E+03  0.98813522541E+03  0.00000000000E+00 0.  1.
         -6    2    1    2    0  503  0.12916981898E+03  0.40062552453E+03  0.77173525097E+02  0.46176302208E+03  0.17344648323E+03 0.  0.
        -24    2    3    3    0    0  0.10233771171E+03  0.35574878632E+03  0.11616751102E+03  0.39636803335E+03  0.81132737176E+02 0.  0.
          6    2    1    2  501    0 -0.12916981898E+03 -0.40062552453E+03 -0.73100719741E+03  0.86067375642E+03  0.17088633438E+03 0.  0.
         24    2    5    5    0    0 -0.10102776115E+03 -0.28425389685E+03 -0.63483322236E+03  0.70703178746E+03  0.76640993377E+02 0.  0.
         12    1    6    6    0    0 -0.10519972612E+03 -0.19455332970E+03 -0.43755754108E+03  0.49028010589E+03  0.00000000000E+00 0. -1.
        -11    1    6    6    0    0  0.41719649728E+01 -0.89700567145E+02 -0.19727568128E+03  0.21675168157E+03  0.00000000000E+00 0.  1.
          5    1    5    5  501    0 -0.28142057832E+02 -0.11637162769E+03 -0.96173975051E+02  0.15364196896E+03  0.47000000000E+01 0. -1.
         11    1    4    4    0    0  0.65915595216E+02  0.96511065073E+02  0.28532624381E+02  0.12030528678E+03  0.00000000000E+00 0. -1.
        -12    1    4    4    0    0  0.36422116497E+02  0.25923772125E+03  0.87634886637E+02  0.27606274657E+03  0.00000000000E+00 0.  1.
         -5    1    3    3    0  503  0.26832107266E+02  0.44876738213E+02 -0.38993985920E+02  0.65394988729E+02  0.47000000000E+01 0.  1.
</event>
<event>
12    1  0.9749377E-001  0.4333370E+03  0.7818608E-02  0.1032811E+00
         21   -1    0    0  501  502  0.00000000000E+00  0.00000000000E+00  0.12039558372E+03  0.12039558372E+03  0.00000000000E+00 0. -1.
         21   -1    0    0  502  503 -0.00000000000E+00 -0.00000000000E+00 -0.17001098423E+04  0.17001098423E+04  0.00000000000E+00 0.  1.
         -6    2    1    2    0  503  0.10178396106E+03  0.40708231771E+03 -0.78142232364E+03  0.90396692906E+03  0.17452613796E+03 0.  0.
        -24    2    3    3    0    0  0.82822742293E+02  0.36619864301E+03 -0.76456666481E+03  0.85562227156E+03  0.81032301424E+02 0.  0.
          6    2    1    2  501    0 -0.10178396106E+03 -0.40708231771E+03 -0.79829193491E+03  0.91653849694E+03  0.16339159989E+03 0.  0.
         24    2    5    5    0    0 -0.12913088848E+03 -0.37980366613E+03 -0.69632502925E+03  0.80739950702E+03  0.78101257421E+02 0.  0.
         14    1    6    6    0    0 -0.11352909396E+03 -0.23142813194E+03 -0.47593380731E+03  0.54125855593E+03  0.00000000000E+00 0. -1.
        -13    1    6    6    0    0 -0.15601794518E+02 -0.14837553418E+03 -0.22039122194E+03  0.26614095109E+03  0.00000000000E+00 0.  1.
          5    1    5    5  501    0  0.27346927420E+02 -0.27278651580E+02 -0.10196690566E+03  0.10913898993E+03  0.47000000000E+01 0. -1.
         11    1    4    4    0    0  0.28162285394E+02  0.13585637137E+03 -0.19984672221E+03  0.24328744385E+03  0.00000000000E+00 0. -1.
        -12    1    4    4    0    0  0.54660456899E+02  0.23034227164E+03 -0.56471994261E+03  0.61233482771E+03  0.00000000000E+00 0.  1.
         -5    1    3    3    0  503  0.18961218764E+02  0.40883674700E+02 -0.16855658833E+02  0.48344657499E+02  0.47000000000E+01 0.  1.
</event>
<event>
12    1  0.9749377E-001  0.1798204E+03  0.7818608E-02  0.1167977E+00
         21   -1    0    0  503  502  0.00000000000E+00  0.00000000000E+00  0.10541779086E+03  0.10541779086E+03  0.00000000000E+00 0.  1.
         21   -1    0    0  501  503 -0.00000000000E+00 -0.00000000000E+00 -0.89031597788E+03  0.89031597788E+03  0.00000000000E+00 0. -1.
          6    2    1    2  501    0  0.12029330846E+03  0.64364368246E+02 -0.53187641310E+02  0.23174694602E+03  0.17962313282E+03 0.  0.
         24    2    3    3    0    0  0.26928954835E+02  0.31758362820E+02 -0.88858070174E+02  0.12651138353E+03  0.79847425197E+02 0.  0.
         -6    2    1    2    0  502 -0.12029330846E+03 -0.64364368246E+02 -0.73171054571E+03  0.76398682271E+03  0.17222743862E+03 0.  0.
        -24    2    5    5    0    0 -0.11008413791E+03 -0.10636546803E+03 -0.60122897352E+03  0.62645191722E+03  0.86796288994E+02 0.  0.
         12    1    4    4    0    0  0.26730187857E+00  0.32462281936E+02 -0.93913031330E+02  0.99365631143E+02  0.00000000000E+00 0. -1.
        -11    1    4    4    0    0  0.26661652957E+02 -0.70391911624E+00  0.50549611556E+01  0.27145752390E+02  0.00000000000E+00 0.  1.
          5    1    3    3  501    0  0.93364353625E+02  0.32606005426E+02  0.35670428864E+02  0.10523556249E+03  0.47000000000E+01 0. -1.
         13    1    6    6    0    0 -0.10675722843E+02 -0.32404128192E+02 -0.28140246617E+03  0.28346313084E+03  0.00000000000E+00 0. -1.
        -14    1    6    6    0    0 -0.99408415066E+02 -0.73961339841E+02 -0.31982650735E+03  0.34298878638E+03  0.00000000000E+00 0.  1.
         -5    1    5    5    0  502 -0.10209170551E+02  0.42001099787E+02 -0.13048157219E+03  0.13753490549E+03  0.47000000000E+01 0.  1.
</event>
<event>
12    1  0.9749377E-001  0.1684959E+03  0.7818608E-02  0.1179426E+00
         21   -1    0    0  501  502  0.00000000000E+00  0.00000000000E+00  0.29143800067E+03  0.29143800067E+03  0.00000000000E+00 0. -1.
         21   -1    0    0  502  503 -0.00000000000E+00 -0.00000000000E+00 -0.14494727562E+03  0.14494727562E+03  0.00000000000E+00 0.  1.
         -6    2    1    2    0  503  0.32743634830E+02 -0.87710379431E+02  0.13113179754E+03  0.24049024519E+03  0.17853502017E+03 0.  0.
        -24    2    3    3    0    0  0.70385109325E+02 -0.99139194436E+02  0.56677971009E+02  0.15615187493E+03  0.79927292946E+02 0.  0.
          6    2    1    2  501    0 -0.32743634830E+02  0.87710379431E+02  0.15358927518E+02  0.19589503110E+03  0.17138760245E+03 0.  0.
         24    2    5    5    0    0 -0.55502374398E+02  0.11531931894E+03 -0.11876168219E+02  0.15068381338E+03  0.78648009259E+02 0.  0.
         12    1    6    6    0    0 -0.20182630790E+02  0.36064966804E+02  0.33102069313E+02  0.52950612924E+02  0.00000000000E+00 0. -1.
        -11    1    6    6    0    0 -0.35319743609E+02  0.79254352135E+02 -0.44978237533E+02  0.97733200461E+02  0.00000000000E+00 0.  1.
          5    1    5    5  501    0  0.22758739568E+02 -0.27608939508E+02  0.27235095738E+02  0.45211217715E+02  0.47000000000E+01 0. -1.
         13    1    4    4    0    0  0.34492476853E+02 -0.89661031985E+02  0.67586146562E+02  0.11745943480E+03  0.00000000000E+00 0. -1.
        -14    1    4    4    0    0  0.35892632472E+02 -0.94781624504E+01 -0.10908175554E+02  0.38692440129E+02  0.00000000000E+00 0.  1.
         -5    1    3    3    0  503 -0.37641474495E+02  0.11428815005E+02  0.74453826526E+02  0.84338370265E+02  0.47000000000E+01 0.  1.
</event>
<event>
12    1  0.9749377E-001  0.3925439E+03  0.7818608E-02  0.1046392E+00
         21   -1    0    0  503  502  0.00000000000E+00  0.00000000000E+00  0.36245576359E+03  0.36245576359E+03  0.00000000000E+00 0. -1.
         21   -1    0    0  501  503 -0.00000000000E+00 -0.00000000000E+00 -0.95164392220E+03  0.95164392220E+03  0.00000000000E+00 0.  1.
          6    2    1    2  501    0 -0.37980035035E+03  0.44495970281E+02 -0.75436604334E+03  0.86293618921E+03  0.17135501687E+03 0.  0.
         24    2    3    3    0    0 -0.11715438805E+03  0.57076086830E+02 -0.22693053091E+03  0.27357087752E+03  0.79754177590E+02 0.  0.
         -6    2    1    2    0  502  0.37980035035E+03 -0.44495970281E+02  0.16517788472E+03  0.45116349659E+03  0.17331061581E+03 0.  0.
        -24    2    5    5    0    0  0.28820697274E+03 -0.28851482590E+02  0.18926974871E+03  0.35505624021E+03  0.79663220816E+02 0.  0.
         14    1    4    4    0    0 -0.43294438154E+02  0.46102861596E+02 -0.47107069913E+02  0.78860371912E+02  0.00000000000E+00 0. -1.
        -13    1    4    4    0    0 -0.73859949896E+02  0.10973225234E+02 -0.17982346099E+03  0.19471050561E+03  0.00000000000E+00 0.  1.
          5    1    3    3  501    0 -0.26264596230E+03 -0.12580116549E+02 -0.52743551243E+03  0.58936531169E+03  0.47000000000E+01 0. -1.
         13    1    6    6    0    0  0.25738421195E+03 -0.16413233172E+02  0.13419898144E+03  0.29073251178E+03  0.00000000000E+00 0. -1.
        -14    1    6    6    0    0  0.30822760787E+02 -0.12438249418E+02  0.55070767275E+02  0.64323728432E+02  0.00000000000E+00 0.  1.
         -5    1    5    5    0  502  0.91593377614E+02 -0.15644487691E+02 -0.24091863990E+02  0.96107256377E+02  0.47000000000E+01 0.  1.
</event>
<event>
12    1  0.9749377E-001  0.4086719E+03  0.7818608E-02  0.1040818E+00
         21   -1    0    0  501  502  0.00000000000E+00  0.00000000000E+00  0.11418301271E+04  0.11418301271E+04  0.00000000000E+00 0.  1.
         21   -1    0    0  502  503 -0.00000000000E+00 -0.00000000000E+00 -0.18385804570E+03  0.18385804570E+03  0.00000000000E+00 0. -1.
         -6    2    1    2    0  503 -0.33496332492E+02  0.38229878880E+03  0.21196456819E+03  0.46937344665E+03  0.16765466305E+03 0.  0.
        -24    2    3    3    0    0 -0.60663161480E+02  0.37573651504E+03  0.18831434026E+03  0.43246107318E+03  0.81867827458E+02 0.  0.
          6    2    1    2  501    0  0.33496332492E+02 -0.38229878880E+03  0.74600751326E+03  0.85631472619E+03  0.17167798999E+03 0.  0.
         24    2    5    5    0    0  0.68690875973E+02 -0.33111338346E+03  0.69014692108E+03  0.77264216576E+03  0.79489838881E+02 0.  0.
         12    1    6    6    0    0  0.44967136236E+02 -0.67130729007E+02  0.19360534956E+03  0.20978944086E+03  0.00000000000E+00 0. -1.
        -11    1    6    6    0    0  0.23723739737E+02 -0.26398265445E+03  0.49654157152E+03  0.56285272490E+03  0.00000000000E+00 0.  1.
          5    1    5    5  501    0 -0.35194543481E+02 -0.51185405344E+02  0.55860592178E+02  0.83672560434E+02  0.47000000000E+01 0. -1.
         13    1    4    4    0    0 -0.34714006451E+02  0.17103886379E+03  0.13127589646E+03  0.21838662084E+03  0.00000000000E+00 0. -1.
        -14    1    4    4    0    0 -0.25949155030E+02  0.20469765124E+03  0.57038443803E+02  0.21407445234E+03  0.00000000000E+00 0.  1.
         -5    1    3    3    0  503  0.27166828988E+02  0.65622737629E+01  0.23650227929E+02  0.36912373471E+02  0.47000000000E+01 0.  1.
</event>
<event>
12    1  0.9749377E-001  0.3481807E+03  0.7818608E-02  0.1063364E+00
         21   -1    0    0  503  502  0.00000000000E+00  0.00000000000E+00  0.16185004038E+03  0.16185004038E+03  0.00000000000E+00 0.  1.
         21   -1    0    0  501  503 -0.00000000000E+00 -0.00000000000E+00 -0.10907053503E+04  0.10907053503E+04  0.00000000000E+00 0. -1.
          6    2    1    2  501    0 -0.29187802991E+03 -0.15276666106E+03 -0.17399046109E+03  0.41115537088E+03  0.17391268320E+03 0.  0.
         24    2    3    3    0    0 -0.12694413130E+03 -0.14207822363E+03 -0.10846029483E+03  0.23329664521E+03  0.79766252343E+02 0.  0.
         -6    2    1    2    0  502  0.29187802991E+03  0.15276666106E+03 -0.75486484881E+03  0.84140001978E+03  0.17205410846E+03 0.  0.
        -24    2    5    5    0    0  0.18277733321E+03  0.10059197856E+03 -0.62553132957E+03  0.66427179302E+03  0.80257529520E+02 0.  0.
         12    1    4    4    0    0 -0.13140493597E+03 -0.11993151909E+03 -0.11229364019E+03  0.21038224283E+03  0.00000000000E+00 0. -1.
        -11    1    4    4    0    0  0.44608046745E+01 -0.22146704531E+02  0.38333453613E+01  0.22914402384E+02  0.00000000000E+00 0.  1.
          5    1    3    3  501    0 -0.16493389861E+03 -0.10688437437E+02 -0.65530166261E+02  0.17785872567E+03  0.47000000000E+01 0. -1.
         11    1    6    6    0    0  0.13465396261E+03  0.83394751416E+02 -0.35179143037E+03  0.38580252033E+03  0.00000000000E+00 0. -1.
        -12    1    6    6    0    0  0.48123370595E+02  0.17197227140E+02 -0.27373989921E+03  0.27846927270E+03  0.00000000000E+00 0.  1.
         -5    1    5    5    0  502  0.10910069670E+03  0.52174682506E+02 -0.12933351924E+03  0.17712822676E+03  0.47000000000E+01 0.  1.
</event>
<event>
12    1  0.9749377E-001  0.5223894E+03  0.7818608E-02  0.1008095E+00
         21   -1    0    0  501  502  0.00000000000E+00  0.00000000000E+00  0.18098850676E+03  0.18098850676E+03  0.00000000000E+00 0.  1.
         21   -1    0    0  502  503 -0.00000000000E+00 -0.00000000000E+00 -0.17115231635E+04  0.17115231635E+04  0.00000000000E+00 0. -1.
         -6    2    1    2    0  503  0.46681533347E+03  0.18950923337E+03 -0.49773658728E+03  0.73079783463E+03  0.18025942328E+03 0.  0.
        -24    2    3    3    0    0  0.30176058891E+03  0.83533647564E+02 -0.22040936718E+03  0.39108270323E+03  0.79549156712E+02 0.  0.
          6    2    1    2  501    0 -0.46681533347E+03 -0.18950923337E+03 -0.10327980694E+04  0.11617138356E+04  0.17051943736E+03 0.  0.
         24    2    5    5    0    0 -0.17559197840E+03 -0.13817368685E+02 -0.37734219399E+03  0.42325383770E+03  0.75718011114E+02 0.  0.
         14    1    6    6    0    0 -0.16385746882E+03 -0.31942001880E+02 -0.30427472484E+03  0.34706291900E+03  0.00000000000E+00 0. -1.
        -13    1    6    6    0    0 -0.11734509579E+02  0.18124633195E+02 -0.73067469153E+02  0.76190918697E+02  0.00000000000E+00 0.  1.
          5    1    5    5  501    0 -0.29122335507E+03 -0.17569186468E+03 -0.65545587542E+03  0.73845999789E+03  0.47000000000E+01 0. -1.
         13    1    4    4    0    0  0.28332658114E+02 -0.11276588673E+02 -0.39074490813E+02  0.49565278171E+02  0.00000000000E+00 0. -1.
        -14    1    4    4    0    0  0.27342793079E+03  0.94810236236E+02 -0.18133487637E+03  0.34151742506E+03  0.00000000000E+00 0.  1.
         -5    1    3    3    0  503  0.16505474456E+03  0.10597558580E+03 -0.27732722010E+03  0.33971513139E+03  0.47000000000E+01 0.  1.
</event>
<event>
12    1  0.9749377E-001  0.3882317E+03  0.7818608E-02  0.1047933E+00
         21   -1    0    0  501  502  0.00000000000E+00  0.00000000000E+00  0.19593763687E+03  0.19593763687E+03  0.00000000000E+00 0.  1.
         21   -1    0    0  502  503 -0.00000000000E+00 -0.00000000000E+00 -0.18728631180E+04  0.18728631180E+04  0.00000000000E+00 0. -1.
         -6    2    1    2    0  503 -0.31258925421E+02 -0.37552612482E+03 -0.83547870418E+02  0.42242568806E+03  0.17165728775E+03 0.  0.
        -24    2    3    3    0    0 -0.25943974133E+02 -0.28679574279E+03  0.17780496746E+01  0.29912146249E+03  0.80904882341E+02 0.  0.
          6    2    1    2  501    0  0.31258925421E+02  0.37552612482E+03 -0.15933776107E+04  0.16463750668E+04  0.17234169393E+03 0.  0.
         24    2    5    5    0    0 -0.13742635107E+02  0.19559171216E+03 -0.10469978509E+04  0.10693530003E+04  0.94161359261E+02 0.  0.
         14    1    6    6    0    0  0.20098571434E+02  0.15514555764E+03 -0.63468397617E+03  0.65368023240E+03  0.00000000000E+00 0. -1.
        -13    1    6    6    0    0 -0.33841206541E+02  0.40446154517E+02 -0.41231387475E+03  0.41567276791E+03  0.00000000000E+00 0.  1.
          5    1    5    5  501    0  0.45001560528E+02  0.17993441267E+03 -0.54637975980E+03  0.57702206650E+03  0.47000000000E+01 0. -1.
         13    1    4    4    0    0  0.12558787884E+02 -0.23555389078E+02  0.18621585741E+02  0.32547549266E+02  0.00000000000E+00 0. -1.
        -14    1    4    4    0    0 -0.38502762017E+02 -0.26324035371E+03 -0.16843536066E+02  0.26657391322E+03  0.00000000000E+00 0.  1.
         -5    1    3    3    0  503 -0.53149512880E+01 -0.88730382034E+02 -0.85325920092E+02  0.12330422557E+03  0.47000000000E+01 0.  1.
</event>
<event>
12    1  0.9749377E-001  0.2485564E+03  0.7818608E-02  0.1114221E+00
         21   -1    0    0  501  502  0.00000000000E+00  0.00000000000E+00  0.59151875192E+03  0.59151875192E+03  0.00000000000E+00 0.  1.
         21   -1    0    0  502  503 -0.00000000000E+00 -0.00000000000E+00 -0.19949477926E+03  0.19949477926E+03  0.00000000000E+00 0. -1.
         -6    2    1    2    0  503  0.20385563760E+03 -0.44128323809E+02  0.43949356349E+03  0.51593558353E+03  0.17184441817E+03 0.  0.
        -24    2    3    3    0    0  0.83454315532E+02  0.14711629514E+02  0.30476028701E+03  0.32584675099E+03  0.78206251476E+02 0.  0.
          6    2    1    2  501    0 -0.20385563760E+03  0.44128323809E+02 -0.47469590831E+02  0.27507794766E+03  0.17294532457E+03 0.  0.
         24    2    5    5    0    0 -0.13323581349E+03  0.88741044649E+02  0.16141357135E+01  0.17807920215E+03  0.77992575305E+02 0.  0.
         14    1    6    6    0    0 -0.73088398273E+02  0.85861055931E+02 -0.19174834837E+02  0.11437529969E+03  0.00000000000E+00 0. -1.
        -13    1    6    6    0    0 -0.60147415221E+02  0.28799887182E+01  0.20788970550E+02  0.63703902466E+02  0.00000000000E+00 0.  1.
          5    1    5    5  501    0 -0.70619824107E+02 -0.44612720840E+02 -0.49083726545E+02  0.96998745503E+02  0.47000000000E+01 0. -1.
         11    1    4    4    0    0  0.13672299498E+02 -0.23229809367E+02  0.32430411530E+02  0.42169745183E+02  0.00000000000E+00 0. -1.
        -12    1    4    4    0    0  0.69782016035E+02  0.37941438881E+02  0.27232987548E+03  0.28367700581E+03  0.00000000000E+00 0.  1.
         -5    1    3    3    0  503  0.12040132207E+03 -0.58839953322E+02  0.13473327648E+03  0.19008883253E+03  0.47000000000E+01 0.  1.
</event>
<event>
12    1  0.9749377E-001  0.4146488E+03  0.7818608E-02  0.1038822E+00
         21   -1    0    0  503  502  0.00000000000E+00  0.00000000000E+00  0.24284478356E+03  0.24284478356E+03  0.00000000000E+00 0. -1.
         21   -1    0    0  501  503 -0.00000000000E+00 -0.00000000000E+00 -0.79412907636E+03  0.79412907636E+03  0.00000000000E+00 0.  1.
          6    2    1    2  501    0  0.39034070444E+03 -0.87146988573E+02 -0.20740805628E+03  0.48221783094E+03  0.17191704834E+03 0.  0.
         24    2    3    3    0    0  0.39473035115E+03 -0.85719055863E+02 -0.17139489267E+03  0.44560709558E+03  0.77650935271E+02 0.  0.
         -6    2    1    2    0  502 -0.39034070444E+03  0.87146988573E+02 -0.34387623652E+03  0.55475602898E+03  0.17188054713E+03 0.  0.
        -24    2    5    5    0    0 -0.25601319494E+03  0.68016374600E+02 -0.14012310945E+03  0.30991467833E+03  0.79016699768E+02 0.  0.
         14    1    4    4    0    0  0.86425891956E+02  0.13000825122E+02 -0.42229925990E+02  0.97066074935E+02  0.00000000000E+00 0. -1.
        -13    1    4    4    0    0  0.30830445919E+03 -0.98719880985E+02 -0.12916496668E+03  0.34854102065E+03  0.00000000000E+00 0.  1.
          5    1    3    3  501    0 -0.43896467048E+01 -0.14279327096E+01 -0.36013163616E+02  0.36610735361E+02  0.47000000000E+01 0. -1.
         11    1    6    6    0    0 -0.19756617451E+03  0.84826595693E+02 -0.11756079637E+03  0.24504792488E+03  0.00000000000E+00 0. -1.
        -12    1    6    6    0    0 -0.58447020434E+02 -0.16810221093E+02 -0.22562313087E+02  0.64866753446E+02  0.00000000000E+00 0.  1.
         -5    1    5    5    0  502 -0.13432750950E+03  0.19130613973E+02 -0.20375312706E+03  0.24484135065E+03  0.47000000000E+01 0.  1.
</event>
<event>
12    1  0.9749377E-001  0.2678586E+03  0.7818608E-02  0.1102511E+00
         21   -1    0    0  501  502  0.00000000000E+00  0.00000000000E+00  0.60378638089E+03  0.60378638089E+03  0.00000000000E+00 0.  1.
         21   -1    0    0  502  503 -0.00000000000E+00 -0.00000000000E+00 -0.14300316968E+03  0.14300316968E+03  0.00000000000E+00 0. -1.
         -6    2    1    2    0  503 -0.85306856324E+02 -0.21483904577E+03  0.30120928383E+03  0.41720698800E+03  0.17292068369E+03 0.  0.
        -24    2    3    3    0    0 -0.11033459302E+03 -0.10916054030E+03  0.24089519421E+03  0.29289201091E+03  0.60543286032E+02 0.  0.
          6    2    1    2  501    0  0.85306856324E+02  0.21483904577E+03  0.15957392738E+03  0.32958256256E+03  0.17241737709E+03 0.  0.
         24    2    5    5    0    0  0.94422925488E+02  0.13148045507E+03  0.42948961207E+02  0.18586328726E+03  0.80608618387E+02 0.  0.
         12    1    6    6    0    0  0.91180072596E+02  0.70146333937E+02  0.47087447343E+02  0.12430422962E+03  0.00000000000E+00 0. -1.
        -11    1    6    6    0    0  0.32428528925E+01  0.61334121135E+02 -0.41384861360E+01  0.61559057642E+02  0.00000000000E+00 0.  1.
          5    1    5    5  501    0 -0.91160691640E+01  0.83358590699E+02  0.11662496617E+03  0.14371927530E+03  0.47000000000E+01 0. -1.
         11    1    4    4    0    0 -0.80224316104E+02 -0.11035344488E+03  0.19505215276E+03  0.23803185919E+03  0.00000000000E+00 0. -1.
        -12    1    4    4    0    0 -0.30110276917E+02  0.11929045815E+01  0.45843041448E+02  0.54860151719E+02  0.00000000000E+00 0.  1.
         -5    1    3    3    0  503  0.25027736696E+02 -0.10567850548E+03  0.60314089620E+02  0.12431497710E+03  0.47000000000E+01 0.  1.
</event>
<event>
12    1  0.9749377E-001  0.5715210E+03  0.7818608E-02  0.9966318E-01
         21   -1    0    0  503  502  0.00000000000E+00  0.00000000000E+00  0.29652283979E+03  0.29652283979E+03  0.00000000000E+00 0.  1.
         21   -1    0    0  501  503 -0.00000000000E+00 -0.00000000000E+00 -0.11652536708E+04  0.11652536708E+04  0.00000000000E+00 0. -1.
          6    2    1    2  501    0 -0.50326195525E+03  0.23953246674E+03 -0.52953983767E+03  0.78787294073E+03  0.17228735541E+03 0.  0.
         24    2    3    3    0    0 -0.42428236459E+03  0.18562575410E+03 -0.50433276866E+03  0.68887195216E+03  0.75634512311E+02 0.  0.
         -6    2    1    2    0  502  0.50326195525E+03 -0.23953246674E+03 -0.33919099332E+03  0.67390356983E+03  0.16866266112E+03 0.  0.
        -24    2    5    5    0    0  0.50690940108E+03 -0.21373925713E+03 -0.32610253427E+03  0.64437407131E+03  0.78952327247E+02 0.  0.
         12    1    4    4    0    0 -0.38923219580E+03  0.14720412564E+03 -0.43250263666E+03  0.60019104256E+03  0.00000000000E+00 0. -1.
        -11    1    4    4    0    0 -0.35050168789E+02  0.38421628458E+02 -0.71830131995E+02  0.88680909602E+02  0.00000000000E+00 0.  1.
          5    1    3    3  501    0 -0.78979590667E+02  0.53906712643E+02 -0.25207069012E+02  0.99000988571E+02  0.47000000000E+01 0. -1.
         13    1    6    6    0    0  0.22301422938E+03 -0.12277439920E+03 -0.18410067445E+03  0.31416867753E+03  0.00000000000E+00 0. -1.
        -14    1    6    6    0    0  0.28389517170E+03 -0.90964857934E+02 -0.14200185982E+03  0.33020539378E+03  0.00000000000E+00 0.  1.
         -5    1    5    5    0  502 -0.36474458228E+01 -0.25793209607E+02 -0.13088459046E+02  0.29529498524E+02  0.47000000000E+01 0.  1.
</event>
<event>
12    1  0.9749377E-001  0.1063578E+04  0.7818608E-02  0.9241437E-01
         21   -1    0    0  501  502  0.00000000000E+00  0.00000000000E+00  0.65979395506E+03  0.65979395506E+03  0.00000000000E+00 0.  1.
         21   -1    0    0  502  503 -0.00000000000E+00 -0.00000000000E+00 -0.21751839032E+04  0.21751839032E+04  0.00000000000E+00 0. -1.
         -6    2    1    2    0  503  0.93668413603E+03 -0.49408845135E+03 -0.13887587300E+04  0.17548070798E+04  0.17086985917E+03 0.  0.
        -24    2    3    3    0    0  0.48286636453E+03 -0.20122295595E+03 -0.61622685372E+03  0.81217864931E+03  0.79044412556E+02 0.  0.
          6    2    1    2  501    0 -0.93668413603E+03  0.49408845135E+03 -0.12663121814E+03  0.10801707785E+04  0.17097624629E+03 0.  0.
         24    2    5    5    0    0 -0.38432108614E+03  0.21935327916E+03  0.47929065237E+01  0.44939447559E+03  0.78191204174E+02 0.  0.
         14    1    6    6    0    0 -0.43150579505E+01  0.12018116862E+02  0.10401651128E+02  0.16469644933E+02  0.00000000000E+00 0. -1.
        -13    1    6    6    0    0 -0.38000602819E+03  0.20733516229E+03 -0.56087446048E+01  0.43292483066E+03  0.00000000000E+00 0.  1.
          5    1    5    5  501    0 -0.55236304988E+03  0.27473517220E+03 -0.13142412467E+03  0.63077630287E+03  0.47000000000E+01 0. -1.
         11    1    4    4    0    0  0.20615886023E+03 -0.66100638996E+02 -0.30807499259E+03  0.37653814042E+03  0.00000000000E+00 0. -1.
        -12    1    4    4    0    0  0.27670750430E+03 -0.13512231695E+03 -0.30815186113E+03  0.43564050890E+03  0.00000000000E+00 0.  1.
         -5    1    3    3    0  503  0.45381777150E+03 -0.29286549540E+03 -0.77253187631E+03  0.94262843053E+03  0.47000000000E+01 0.  1.
</event>
<event>
12    1  0.9749377E-001  0.3143231E+03  0.7818608E-02  0.1078292E+00
         21   -1    0    0  501  502  0.00000000000E+00  0.00000000000E+00  0.50802886432E+03  0.50802886432E+03  0.00000000000E+00 0.  1.
         21   -1    0    0  502  503 -0.00000000000E+00 -0.00000000000E+00 -0.28297469474E+03  0.28297469474E+03  0.00000000000E+00 0. -1.
         -6    2    1    2    0  503  0.22183664341E+03 -0.18790006285E+03 -0.67632377951E+02  0.34415685313E+03  0.17132387759E+03 0.  0.
        -24    2    3    3    0    0  0.14948758735E+03 -0.20184023994E+03 -0.47274095739E+02  0.26757184086E+03  0.79207503812E+02 0.  0.
          6    2    1    2  501    0 -0.22183664341E+03  0.18790006285E+03  0.29268654753E+03  0.44684670593E+03  0.17172254808E+03 0.  0.
         24    2    5    5    0    0 -0.15025406898E+03  0.14509762541E+03  0.28645892644E+03  0.36307924878E+03  0.78346781794E+02 0.  0.
         14    1    6    6    0    0 -0.76309539308E+02  0.61378684301E+02  0.72944104850E+02  0.12211196136E+03  0.00000000000E+00 0. -1.
        -13    1    6    6    0    0 -0.73944529671E+02  0.83718941107E+02  0.21351482159E+03  0.24096728742E+03  0.00000000000E+00 0.  1.
          5    1    5    5  501    0 -0.71582574427E+02  0.42802437439E+02  0.62276210959E+01  0.83767457147E+02  0.47000000000E+01 0. -1.
         11    1    4    4    0    0 -0.80197621174E+01 -0.17053101873E+02 -0.11679186752E+02  0.22170436872E+02  0.00000000000E+00 0. -1.
        -12    1    4    4    0    0  0.15750734947E+03 -0.18478713807E+03 -0.35594908988E+02  0.24540140399E+03  0.00000000000E+00 0.  1.
         -5    1    3    3    0  503  0.72349056056E+02  0.13940177097E+02 -0.20358282211E+02  0.76585012269E+02  0.47000000000E+01 0.  1.
</event>
<event>
12    1  0.9749377E-001  0.3957565E+03  0.7818608E-02  0.1045259E+00
         21   -1    0    0  503  502  0.00000000000E+00  0.00000000000E+00  0.74995091257E+03  0.74995091257E+03  0.00000000000E+00 0. -1.
         21   -1    0    0  501  503 -0.00000000000E+00 -0.00000000000E+00 -0.55463289832E+03  0.55463289832E+03  0.00000000000E+00 0.  1.
          6    2    1    2  501    0 -0.27393297864E+03  0.25064922709E+03 -0.40228035883E+03  0.58003993816E+03  0.19170949619E+03 0.  0.
         24    2    3    3    0    0 -0.10560112531E+03  0.38972676048E+02 -0.98791805205E+02  0.17350584698E+03  0.87601318572E+02 0.  0.
         -6    2    1    2    0  502  0.27393297864E+03 -0.25064922709E+03  0.59759837309E+03  0.72454387273E+03  0.17313490741E+03 0.  0.
        -24    2    5    5    0    0  0.25664359151E+03 -0.17147470412E+03  0.40519584603E+03  0.51571774790E+03  0.80694576255E+02 0.  0.
         14    1    4    4    0    0 -0.54557916728E+02 -0.13541221878E+02 -0.80218867930E+02  0.97954059333E+02  0.00000000000E+00 0. -1.
        -13    1    4    4    0    0 -0.51043208583E+02  0.52513897927E+02 -0.18572937275E+02  0.75551787648E+02  0.00000000000E+00 0.  1.
          5    1    3    3  501    0 -0.16833185333E+03  0.21167655104E+03 -0.30348855363E+03  0.40653409118E+03  0.47000000000E+01 0. -1.
         13    1    6    6    0    0  0.23451772795E+03 -0.14429596647E+03  0.39025908034E+03  0.47762123116E+03  0.00000000000E+00 0. -1.
        -14    1    6    6    0    0  0.22125863565E+02 -0.27178737644E+02  0.14936765690E+02  0.38096516740E+02  0.00000000000E+00 0.  1.
         -5    1    5    5    0  502  0.17289387127E+02 -0.79174522971E+02  0.19240252706E+03  0.20882612483E+03  0.47000000000E+01 0.  1.
</event>
<event>
12    1  0.9749377E-001  0.2965802E+03  0.7818608E-02  0.1086963E+00
         21   -1    0    0  501  502  0.00000000000E+00  0.00000000000E+00  0.31327791910E+03  0.31327791910E+03  0.00000000000E+00 0.  1.
         21   -1    0    0  502  503 -0.00000000000E+00 -0.00000000000E+00 -0.32110959776E+03  0.32110959776E+03  0.00000000000E+00 0. -1.
         -6    2    1    2    0  503  0.44595486281E+02  0.26144590879E+03  0.23059347250E+02  0.31695484893E+03  0.17200558754E+03 0.  0.
        -24    2    3    3    0    0  0.54486361085E+01  0.12186318990E+03 -0.48541643431E+02  0.15520008653E+03  0.82767451486E+02 0.  0.
          6    2    1    2  501    0 -0.44595486281E+02 -0.26144590879E+03 -0.30891025908E+02  0.31743266793E+03  0.17165815613E+03 0.  0.
         24    2    5    5    0    0  0.23576582453E+02 -0.21693573677E+03 -0.38843970177E+02  0.23549411966E+03  0.79571711369E+02 0.  0.
         12    1    6    6    0    0 -0.25073545954E+02 -0.82679455026E+02 -0.33282632867E+02  0.92586762772E+02  0.00000000000E+00 0. -1.
        -11    1    6    6    0    0  0.48650128407E+02 -0.13425628174E+03 -0.55613373102E+01  0.14290735689E+03  0.00000000000E+00 0.  1.
          5    1    5    5  501    0 -0.68172068734E+02 -0.44510172026E+02  0.79529442692E+01  0.81938548265E+02  0.47000000000E+01 0. -1.
         11    1    4    4    0    0 -0.82178938669E+01  0.12334710464E+03 -0.22356560414E+02  0.12562586436E+03  0.00000000000E+00 0. -1.
        -12    1    4    4    0    0  0.13666529975E+02 -0.14839147424E+01 -0.26185083017E+02  0.29574222173E+02  0.00000000000E+00 0.  1.
         -5    1    3    3    0  503  0.39146850172E+02  0.13958271890E+03  0.71600990682E+02  0.16175476240E+03  0.47000000000E+01 0.  1.
</event>
<event>
12    1  0.9749377E-001  0.5793295E+03  0.7818608E-02  0.9949244E-01
         21   -1    0    0  501  502  0.00000000000E+00  0.00000000000E+00  0.29008561696E+03  0.29008561696E+03  0.00000000000E+00 0. -1.
         21   -1    0    0  502  503 -0.00000000000E+00 -0.00000000000E+00 -0.11779109301E+04  0.11779109301E+04  0.00000000000E+00 0.  1.
         -6    2    1    2    0  503  0.55811493128E+03  0.85548907262E+01 -0.46853498546E+03  0.74916237453E+03  0.17364840382E+03 0.  0.
        -24    2    3    3    0    0  0.49855110678E+03 -0.45105249314E+02 -0.41765478225E+03  0.65409321604E+03  0.53054015380E+02 0.  0.
          6    2    1    2  501    0 -0.55811493128E+03 -0.85548907262E+01 -0.41929032773E+03  0.71883417257E+03  0.17132637290E+03 0.  0.
         24    2    5    5    0    0 -0.12089774461E+03  0.20754088789E+02 -0.96355186069E+02  0.17447484242E+03  0.78167460632E+02 0.  0.
         12    1    6    6    0    0 -0.90533140216E+01 -0.16940546755E+02 -0.38513734369E+02  0.43037801456E+02  0.00000000000E+00 0. -1.
        -11    1    6    6    0    0 -0.11184443059E+03  0.37694635544E+02 -0.57841451701E+02  0.13143704096E+03  0.00000000000E+00 0.  1.
          5    1    5    5  501    0 -0.43721718667E+03 -0.29308979515E+02 -0.32293514166E+03  0.54435933015E+03  0.47000000000E+01 0. -1.
         13    1    4    4    0    0  0.19091705423E+03 -0.40808704005E+02 -0.17639428893E+03  0.26311521637E+03  0.00000000000E+00 0. -1.
        -14    1    4    4    0    0  0.30763405255E+03 -0.42965453091E+01 -0.24126049332E+03  0.39097799967E+03  0.00000000000E+00 0.  1.
         -5    1    3    3    0  503  0.59563824498E+02  0.53660140040E+02 -0.50880203209E+02  0.95069158493E+02  0.47000000000E+01 0.  1.
</event>
<event>
12    1  0.9749377E-001  0.3388406E+03  0.7818608E-02  0.1067291E+00
         21   -1    0    0  503  502  0.00000000000E+00  0.00000000000E+00  0.36550952363E+03  0.36550952363E+03  0.00000000000E+00 0. -1.
         21   -1    0    0  501  503 -0.00000000000E+00 -0.00000000000E+00 -0.35833977425E+03  0.35833977425E+03  0.00000000000E+00 0.  1.
          6    2    1    2  501    0  0.28639901416E+03 -0.12180539360E+03 -0.62989996532E+02  0.36108575626E+03  0.17191345057E+03 0.  0.
         24    2    3    3    0    0  0.25956099187E+03 -0.81543302990E+02 -0.99849861777E+02  0.30007710895E+03  0.77814250984E+02 0.  0.
         -6    2    1    2    0  502 -0.28639901416E+03  0.12180539360E+03  0.70159745914E+02  0.36276354163E+03  0.17266744906E+03 0.  0.
        -24    2    5    5    0    0 -0.19498737205E+03  0.14941233792E+03  0.70519230354E+02  0.26715783616E+03  0.77821755263E+02 0.  0.
         12    1    4    4    0    0  0.47377185436E+02  0.11909701472E+02 -0.34184172834E+01  0.48970646981E+02  0.00000000000E+00 0. -1.
        -11    1    4    4    0    0  0.21218380643E+03 -0.93453004462E+02 -0.96431444493E+02  0.25110646197E+03  0.00000000000E+00 0.  1.
          5    1    3    3  501    0  0.26838022297E+02 -0.40262090607E+02  0.36859865245E+02  0.61008647311E+02  0.47000000000E+01 0. -1.
         11    1    6    6    0    0 -0.11779758216E+03  0.52782114496E+02  0.10000254527E+02  0.12946901971E+03  0.00000000000E+00 0. -1.
        -12    1    6    6    0    0 -0.77189789893E+02  0.96630223421E+02  0.60518975827E+02  0.13768881646E+03  0.00000000000E+00 0.  1.
         -5    1    5    5    0  502 -0.91411642112E+02 -0.27606944320E+02 -0.35948444016E+00  0.95605705464E+02  0.47000000000E+01 0.  1.
</event>
<event>
12    1  0.9749377E-001  0.8152631E+03  0.7818608E-02  0.9538183E-01
         21   -1    0    0  503  502  0.00000000000E+00  0.00000000000E+00  0.21768923250E+04  0.21768923250E+04  0.00000000000E+00 0. -1.
         21   -1    0    0  501  503 -0.00000000000E+00 -0.00000000000E+00 -0.53409874483E+03  0.53409874483E+03  0.00000000000E+00 0.  1.
          6    2    1    2  501    0  0.57783122358E+03  0.55576521249E+03 -0.59627451654E+02  0.82136099126E+03  0.16826928009E+03 0.  0.
         24    2    3    3    0    0  0.31790086085E+03  0.22112404437E+03 -0.50055730064E+02  0.39749519561E+03  0.74431539642E+02 0.  0.
         -6    2    1    2    0  502 -0.57783122358E+03 -0.55576521249E+03  0.17024210318E+04  0.18896300785E+04  0.17233853270E+03 0.  0.
        -24    2    5    5    0    0 -0.36430237979E+03 -0.25945128993E+03  0.91207722514E+03  0.10189625584E+04  0.79803728711E+02 0.  0.
         12    1    4    4    0    0  0.25818962912E+03  0.14068344893E+03 -0.33052344978E+02  0.29588202868E+03  0.00000000000E+00 0. -1.
        -11    1    4    4    0    0  0.59711231732E+02  0.80440595433E+02 -0.17003385086E+02  0.10161316693E+03  0.00000000000E+00 0.  1.
          5    1    3    3  501    0  0.25993036273E+03  0.33464116812E+03 -0.95717215895E+01  0.42386579565E+03  0.47000000000E+01 0. -1.
         11    1    6    6    0    0 -0.34338304460E+03 -0.24631963243E+03  0.89233247872E+03  0.98734114126E+03  0.00000000000E+00 0. -1.
        -12    1    6    6    0    0 -0.20919335189E+02 -0.13131657498E+02  0.19744746418E+02  0.31621417180E+02  0.00000000000E+00 0.  1.
         -5    1    5    5    0  502 -0.21352884379E+03 -0.29631392256E+03  0.79034380663E+03  0.87066752008E+03  0.47000000000E+01 0.  1.
</event>
<event>
12    1  0.9749377E-001  0.2298285E+03  0.7818608E-02  0.1126761E+00
         21   -1    0    0  501  502  0.00000000000E+00  0.00000000000E+00  0.82914596557E+03  0.82914596557E+03  0.00000000000E+00 0.  1.
         21   -1    0    0  502  503 -0.00000000000E+00 -0.00000000000E+00 -0.75413442922E+02  0.75413442922E+02  0.00000000000E+00 0. -1.
         -6    2    1    2    0  503 -0.36491655349E+02 -0.17218984278E+03  0.45824113046E+03  0.51966992992E+03  0.17056060373E+03 0.  0.
        -24    2    3    3    0    0  0.30202284017E+01 -0.12994181606E+02  0.15417223454E+03  0.17414940815E+03  0.79880960941E+02 0.  0.
          6    2    1    2  501    0  0.36491655349E+02  0.17218984278E+03  0.29549139218E+03  0.38488947857E+03  0.17275348041E+03 0.  0.
         24    2    5    5    0    0  0.65994020411E+02  0.13942953723E+03  0.14029585855E+03  0.22348510805E+03  0.80416783144E+02 0.  0.
         12    1    6    6    0    0  0.57336874967E+02  0.34869302155E+02  0.71299624274E+02  0.97913338649E+02  0.00000000000E+00 0. -1.
        -11    1    6    6    0    0  0.86571454440E+01  0.10456023507E+03  0.68996234276E+02  0.12557176940E+03  0.00000000000E+00 0.  1.
          5    1    5    5  501    0 -0.29502365062E+02  0.32760305555E+02  0.15519553364E+03  0.16140437053E+03  0.47000000000E+01 0. -1.
         11    1    4    4    0    0  0.29313523819E+02 -0.34472945187E+02  0.69601620504E+02  0.83018384743E+02  0.00000000000E+00 0. -1.
        -12    1    4    4    0    0 -0.26293295417E+02  0.21478763581E+02  0.84570614038E+02  0.91131023409E+02  0.00000000000E+00 0.  1.
         -5    1    3    3    0  503 -0.39511883750E+02 -0.15919566118E+03  0.30406889592E+03  0.34552052177E+03  0.47000000000E+01 0.  1.
</event>
<event>
12    1  0.9749377E-001  0.5464410E+03  0.7818608E-02  0.1002321E+00
         21   -1    0    0  503  502  0.00000000000E+00  0.00000000000E+00  0.33350583966E+03  0.33350583966E+03  0.00000000000E+00 0. -1.
         21   -1    0    0  501  503 -0.00000000000E+00 -0.00000000000E+00 -0.15250833140E+04  0.15250833140E+04  0.00000000000E+00 0.  1.
          6    2    1    2  501    0  0.29273413110E+03  0.44297843484E+03 -0.18048042960E+02  0.55914598289E+03  0.17434257391E+03 0.  0.
         24    2    3    3    0    0  0.10970932480E+03  0.19137224656E+03 -0.67589113960E+02  0.24405843725E+03  0.79603767267E+02 0.  0.
         -6    2    1    2    0  502 -0.29273413110E+03 -0.44297843484E+03 -0.11735294314E+04  0.12994431708E+04  0.17163351221E+03 0.  0.
        -24    2    5    5    0    0 -0.25069643104E+03 -0.27093037307E+03 -0.86261194613E+03  0.94158918320E+03  0.78986408515E+02 0.  0.
         14    1    4    4    0    0 -0.80757214456E+01  0.19934351604E+01  0.47767321544E+01  0.95920920909E+01  0.00000000000E+00 0. -1.
        -13    1    4    4    0    0  0.11778504624E+03  0.18937881140E+03 -0.72365846114E+02  0.23446634516E+03  0.00000000000E+00 0.  1.
          5    1    3    3  501    0  0.18302480631E+03  0.25160618828E+03  0.49541070999E+02  0.31508754564E+03  0.47000000000E+01 0. -1.
         11    1    6    6    0    0 -0.79836411009E+02 -0.12595696682E+03 -0.27739044979E+03  0.31493566271E+03  0.00000000000E+00 0. -1.
        -12    1    6    6    0    0 -0.17086002003E+03 -0.14497340625E+03 -0.58522149634E+03  0.62665352049E+03  0.00000000000E+00 0.  1.
         -5    1    5    5    0  502 -0.42037700059E+02 -0.17204806177E+03 -0.31091748523E+03  0.35785398756E+03  0.47000000000E+01 0.  1.
</event>
<event>
12    1  0.9749377E-001  0.1748761E+03  0.7818608E-02  0.1172856E+00
         21   -1    0    0  501  502  0.00000000000E+00  0.00000000000E+00  0.48985312573E+02  0.48985312573E+02  0.00000000000E+00 0. -1.
         21   -1    0    0  502  503 -0.00000000000E+00 -0.00000000000E+00 -0.91719304612E+03  0.91719304612E+03  0.00000000000E+00 0.  1.
         -6    2    1    2    0  503  0.62397430461E+02  0.78109897514E+02 -0.26906557045E+03  0.33494683882E+03  0.17262244412E+03 0.  0.
        -24    2    3    3    0    0  0.79641919444E+02  0.47697966516E+02 -0.86578222551E+02  0.14908134958E+03  0.78176267687E+02 0.  0.
          6    2    1    2  501    0 -0.62397430461E+02 -0.78109897514E+02 -0.59914216310E+03  0.63123151988E+03  0.17171867884E+03 0.  0.
         24    2    5    5    0    0 -0.84318520430E+02 -0.11002540209E+03 -0.46748804659E+03  0.49392154205E+03  0.78728736800E+02 0.  0.
         14    1    6    6    0    0 -0.82444070274E+02 -0.48100324464E+02 -0.32048330283E+03  0.33439529501E+03  0.00000000000E+00 0. -1.
        -13    1    6    6    0    0 -0.18744501561E+01 -0.61925077630E+02 -0.14700474377E+03  0.15952624703E+03  0.00000000000E+00 0.  1.
          5    1    5    5  501    0  0.21921089969E+02  0.31915504581E+02 -0.13165411651E+03  0.13730997783E+03  0.47000000000E+01 0. -1.
         13    1    4    4    0    0  0.80360998750E+02  0.10705099784E+02 -0.42510050985E+02  0.91540120801E+02  0.00000000000E+00 0. -1.
        -14    1    4    4    0    0 -0.71907930563E+00  0.36992866731E+02 -0.44068171566E+02  0.57541228777E+02  0.00000000000E+00 0.  1.
         -5    1    3    3    0  503 -0.17244488983E+02  0.30411930998E+02 -0.18248734790E+03  0.18586548924E+03  0.47000000000E+01 0.  1.
</event>
<event>
12    1  0.9749377E-001  0.3285253E+03  0.7818608E-02  0.1071791E+00
         21   -1    0    0  503  502  0.00000000000E+00  0.00000000000E+00  0.11817142422E+03  0.11817142422E+03  0.00000000000E+00 0. -1.
         21   -1    0    0  501  503 -0.00000000000E+00 -0.00000000000E+00 -0.98850086798E+03  0.98850086798E+03  0.00000000000E+00 0.  1.
          6    2    1    2  501    0  0.49449683548E+02 -0.28596413684E+03 -0.52330419358E+03  0.62257001139E+03  0.17182951233E+03 0.  0.
         24    2    3    3    0    0 -0.32629327761E+02 -0.35290588389E+02 -0.14115135959E+03  0.15820262395E+03  0.52860810179E+02 0.  0.
         -6    2    1    2    0  502 -0.49449683548E+02  0.28596413684E+03 -0.34702525019E+03  0.48410228081E+03  0.17235932019E+03 0.  0.
        -24    2    5    5    0    0  0.35375358568E+02  0.16460250172E+03 -0.16260481237E+03  0.24755012561E+03  0.80593672914E+02 0.  0.
         14    1    4    4    0    0 -0.65973308807E+00 -0.26875589892E+02 -0.10833842602E+03  0.11162413329E+03  0.00000000000E+00 0. -1.
        -13    1    4    4    0    0 -0.31969594673E+02 -0.84149984968E+01 -0.32812933571E+02  0.46578490666E+02  0.00000000000E+00 0.  1.
          5    1    3    3  501    0  0.82079011309E+02 -0.25067354845E+03 -0.38215283399E+03  0.46436738744E+03  0.47000000000E+01 0. -1.
         11    1    6    6    0    0 -0.19907972728E+02  0.12972149382E+02 -0.32419145305E+02  0.40194589437E+02  0.00000000000E+00 0. -1.
        -12    1    6    6    0    0  0.55283331296E+02  0.15163035234E+03 -0.13018566707E+03  0.20735553617E+03  0.00000000000E+00 0.  1.
         -5    1    5    5    0  502 -0.84825042116E+02  0.12136163512E+03 -0.18442043782E+03  0.23655215520E+03  0.47000000000E+01 0.  1.
</event>
<event>
12    1  0.9749377E-001  0.2037771E+03  0.7818608E-02  0.1146591E+00
         21   -1    0    0  503  502  0.00000000000E+00  0.00000000000E+00  0.31550374385E+02  0.31550374385E+02  0.00000000000E+00 0. -1.
         21   -1    0    0  501  503 -0.00000000000E+00 -0.00000000000E+00 -0.16138002863E+04  0.16138002863E+04  0.00000000000E+00 0. -1.
          6    2    1    2  501    0  0.10468345950E+03  0.96813537456E+02 -0.70648178297E+03  0.74340998244E+03  0.18223722065E+03 0.  0.
         24    2    3    3    0    0  0.10843005879E+03  0.12476835598E+03 -0.68066778553E+03  0.70488776354E+03  0.78955079801E+02 0.  0.
         -6    2    1    2    0  502 -0.10468345950E+03 -0.96813537456E+02 -0.87576812890E+03  0.90194067821E+03  0.16185080684E+03 0.  0.
        -24    2    5    5    0    0  0.46511088122E+01 -0.31045871630E+02 -0.42140588288E+03  0.42998032574E+03  0.79464982434E+02 0.  0.
         14    1    4    4    0    0  0.14625780545E+02  0.40969903530E+02 -0.31940433754E+03  0.32235318718E+03  0.00000000000E+00 0. -1.
        -13    1    4    4    0    0  0.93804278243E+02  0.83798452451E+02 -0.36126344800E+03  0.38253457636E+03  0.00000000000E+00 0.  1.
          5    1    3    3  501    0 -0.37465992889E+01 -0.27954818524E+02 -0.25813997441E+02  0.38522218898E+02  0.47000000000E+01 0. -1.
         11    1    6    6    0    0 -0.12074231546E+02  0.22698893602E+02 -0.19475593491E+03  0.19644566939E+03  0.00000000000E+00 0. -1.
        -12    1    6    6    0    0  0.16725340358E+02 -0.53744765232E+02 -0.22664994797E+03  0.23353465635E+03  0.00000000000E+00 0.  1.
         -5    1    5    5    0  502 -0.10933456831E+03 -0.65767665826E+02 -0.45436224602E+03  0.47196035247E+03  0.47000000000E+01 0.  1.
</event>
<event>
12    1  0.9749377E-001  0.3158526E+03  0.7818608E-02  0.1077574E+00
         21   -1    0    0  501  502  0.00000000000E+00  0.00000000000E+00  0.70158086713E+03  0.70158086713E+03  0.00000000000E+00 0. -1.
         21   -1    0    0  502  503 -0.00000000000E+00 -0.00000000000E+00 -0.20878986453E+03  0.20878986453E+03  0.00000000000E+00 0.  1.
         -6    2    1    2    0  503 -0.11695975585E+03  0.23551622144E+03  0.49738889155E+03  0.59514560426E+03  0.19404923546E+03 0.  0.
        -24    2    3    3    0    0 -0.76107168280E+01  0.18803460309E+03  0.34067821019E+03  0.39818864432E+03  0.84128583716E+02 0.  0.
          6    2    1    2  501    0  0.11695975585E+03 -0.23551622144E+03 -0.45978889537E+01  0.31522512740E+03  0.17377648090E+03 0.  0.
         24    2    5    5    0    0  0.46961186035E+02 -0.52085647432E+02  0.31919182698E+02  0.11546987271E+03  0.86001102413E+02 0.  0.
         12    1    6    6    0    0  0.54405435543E+01  0.23573124252E+02  0.26445836228E+01  0.24336916890E+02  0.00000000000E+00 0. -1.
        -11    1    6    6    0    0  0.41520642481E+02 -0.75658771684E+02  0.29274599075E+02  0.91132955816E+02  0.00000000000E+00 0.  1.
          5    1    5    5  501    0  0.69998569811E+02 -0.18343057401E+03 -0.36517071651E+02  0.19975525469E+03  0.47000000000E+01 0. -1.
         11    1    4    4    0    0 -0.42465153187E+02  0.65028042476E+02  0.14398985605E+03  0.16360016561E+03  0.00000000000E+00 0. -1.
        -12    1    4    4    0    0  0.34854436359E+02  0.12300656061E+03  0.19668835414E+03  0.23458847871E+03  0.00000000000E+00 0.  1.
         -5    1    3    3    0  503 -0.10934903902E+03  0.47481618348E+02  0.15671068137E+03  0.19695695994E+03  0.47000000000E+01 0.  1.
</event>
<event>
12    1  0.9749377E-001  0.3868615E+03  0.7818608E-02  0.1048426E+00
         21   -1    0    0  501  502  0.00000000000E+00  0.00000000000E+00  0.46686467239E+03  0.46686467239E+03  0.00000000000E+00 0.  1.
         21   -1    0    0  502  503 -0.00000000000E+00 -0.00000000000E+00 -0.36974442182E+03  0.36974442182E+03  0.00000000000E+00 0. -1.
         -6    2    1    2    0  503 -0.87255180825E+01 -0.36606517770E+03 -0.46840418902E+02  0.40729498033E+03  0.17209104325E+03 0.  0.
        -24    2    3    3    0    0  0.25156658995E+02 -0.13478097189E+03 -0.62854087772E+02  0.17294713338E+03  0.84624504237E+02 0.  0.
          6    2    1    2  501    0  0.87255180825E+01  0.36606517770E+03  0.14396066947E+03  0.42931411388E+03  0.17177335366E+03 0.  0.
         24    2    5    5    0    0  0.68565423121E+02  0.24057905268E+03  0.68802666697E+02  0.27120529948E+03  0.78987402081E+02 0.  0.
         12    1    6    6    0    0  0.21872144828E+02  0.74799539370E+01  0.14709160178E+02  0.27398901865E+02  0.00000000000E+00 0. -1.
        -11    1    6    6    0    0  0.46693278293E+02  0.23309909874E+03  0.54093506519E+02  0.24380639762E+03  0.00000000000E+00 0.  1.
          5    1    5    5  501    0 -0.59839905038E+02  0.12548612503E+03  0.75158002773E+02  0.15810881440E+03  0.47000000000E+01 0. -1.
         13    1    4    4    0    0 -0.47255486535E+01 -0.47196008572E+02 -0.64896264294E+02  0.80382331109E+02  0.00000000000E+00 0. -1.
        -14    1    4    4    0    0  0.29882207648E+02 -0.87584963322E+02  0.20421765219E+01  0.92564802269E+02  0.00000000000E+00 0.  1.
         -5    1    3    3    0  503 -0.33882177077E+02 -0.23128420581E+03  0.16013668870E+02  0.23434784695E+03  0.47000000000E+01 0.  1.
</event>
<event>
12    1  0.9749377E-001  0.3074516E+03  0.7818608E-02  0.1081574E+00
         21   -1    0    0  503  502  0.00000000000E+00  0.00000000000E+00  0.35533868052E+03  0.35533868052E+03  0.00000000000E+00 0. -1.
         21   -1    0    0  501  503 -0.00000000000E+00 -0.00000000000E+00 -0.40552510814E+03  0.40552510814E+03  0.00000000000E+00 0.  1.
          6    2    1    2  501    0 -0.23267318616E+03  0.17876056127E+03 -0.19460797814E+03  0.39169343860E+03  0.17163721876E+03 0.  0.
         24    2    3    3    0    0 -0.13535377728E+03  0.31000425791E+02 -0.11750435333E+03  0.19863597581E+03  0.79795403444E+02 0.  0.
         -6    2    1    2    0  502  0.23267318616E+03 -0.17876056127E+03  0.14442155052E+03  0.36917035005E+03  0.17128051050E+03 0.  0.
        -24    2    5    5    0    0  0.15633079895E+03 -0.10998980925E+03  0.21243698802E+02  0.20869465229E+03  0.81025220248E+02 0.  0.
         12    1    4    4    0    0 -0.58043070909E+02  0.18632624083E+02 -0.10199025465E+03  0.11881996804E+03  0.00000000000E+00 0. -1.
        -11    1    4    4    0    0 -0.77310706369E+02  0.12367801708E+02 -0.15514098679E+02  0.79816007770E+02  0.00000000000E+00 0.  1.
          5    1    3    3  501    0 -0.97319408886E+02  0.14776013548E+03 -0.77103624809E+02  0.19305746279E+03  0.47000000000E+01 0. -1.
         13    1    6    6    0    0 -0.46453126892E-01 -0.10405462799E+02  0.20847804299E+02  0.23300359612E+02  0.00000000000E+00 0. -1.
        -14    1    6    6    0    0  0.15637725207E+03 -0.99584346447E+02  0.39589450316E+00  0.18539429267E+03  0.00000000000E+00 0.  1.
         -5    1    5    5    0  502  0.76342387217E+02 -0.68770752020E+02  0.12317785172E+03  0.16047569777E+03  0.47000000000E+01 0.  1.
</event>
<event>
12    1  0.9749377E-001  0.4142613E+03  0.7818608E-02  0.1038950E+00
         21   -1    0    0  501  502  0.00000000000E+00  0.00000000000E+00  0.31721414685E+03  0.31721414685E+03  0.00000000000E+00 0.  1.
         21   -1    0    0  502  503 -0.00000000000E+00 -0.00000000000E+00 -0.61149632748E+03  0.61149632748E+03  0.00000000000E+00 0. -1.
         -6    2    1    2    0  503 -0.11138936408E+03  0.37024733901E+03 -0.16144885518E+02  0.42315977855E+03  0.17120998329E+03 0.  0.
        -24    2    3    3    0    0  0.20889260800E+01  0.20579234449E+03 -0.21687191427E+02  0.22322085109E+03  0.83680113673E+02 0.  0.
          6    2    1    2  501    0  0.11138936408E+03 -0.37024733901E+03 -0.27813729512E+03  0.50555069578E+03  0.16950064482E+03 0.  0.
         24    2    5    5    0    0  0.11327189183E+03 -0.18734215729E+03 -0.19774412550E+03  0.30569324376E+03  0.80112512937E+02 0.  0.
         14    1    6    6    0    0  0.10942677991E+03 -0.19252153745E+03 -0.17557462614E+03  0.28260433806E+03  0.00000000000E+00 0. -1.
        -13    1    6    6    0    0  0.38451119255E+01  0.51793801571E+01 -0.22169499363E+02  0.23088905702E+02  0.00000000000E+00 0.  1.
          5    1    5    5  501    0 -0.18825277498E+01 -0.18290518171E+03 -0.80393169615E+02  0.19985745202E+03  0.47000000000E+01 0. -1.
         13    1    4    4    0    0  0.21813585645E+02  0.16197664135E+02  0.11908552277E+02  0.29664970242E+02  0.00000000000E+00 0. -1.
        -14    1    4    4    0    0 -0.19724659565E+02  0.18959468036E+03 -0.33595743704E+02  0.19355588084E+03  0.00000000000E+00 0.  1.
         -5    1    3    3    0  503 -0.11347829016E+03  0.16445499452E+03  0.55423059093E+01  0.19993892746E+03  0.47000000000E+01 0.  1.
</event>
<event>
12    1  0.9749377E-001  0.2730486E+03  0.7818608E-02  0.1099547E+00
         21   -1    0    0  501  502  0.00000000000E+00  0.00000000000E+00  0.23439329417E+03  0.23439329417E+03  0.00000000000E+00 0. -1.
         21   -1    0    0  502  503 -0.00000000000E+00 -0.00000000000E+00 -0.36097543903E+03  0.36097543903E+03  0.00000000000E+00 0.  1.
         -6    2    1    2    0  503 -0.14285406666E+03 -0.17811479375E+03 -0.46096429806E+02  0.29784587691E+03  0.18562090786E+03 0.  0.
        -24    2    3    3    0    0 -0.82631219689E+02 -0.18487646171E+03 -0.75736192790E+02  0.23022105158E+03  0.79110916635E+02 0.  0.
          6    2    1    2  501    0  0.14285406666E+03  0.17811479375E+03 -0.80485715056E+02  0.29752285629E+03  0.17294431351E+03 0.  0.
         24    2    5    5    0    0  0.97446154528E+02  0.19285856750E+02 -0.36194504780E+02  0.12643132810E+03  0.69333550644E+02 0.  0.
         14    1    6    6    0    0  0.80870875868E+02  0.49078465140E+01 -0.54676003551E+02  0.97742779198E+02  0.00000000000E+00 0. -1.
        -13    1    6    6    0    0  0.16575278660E+02  0.14378010236E+02  0.18481498771E+02  0.28688548898E+02  0.00000000000E+00 0.  1.
          5    1    5    5  501    0  0.45407912131E+02  0.15882893700E+03 -0.44291210276E+02  0.17109152820E+03  0.47000000000E+01 0. -1.
         13    1    4    4    0    0 -0.45061082425E+02 -0.22385734679E+02 -0.22835187328E+02  0.55254574895E+02  0.00000000000E+00 0. -1.
        -14    1    4    4    0    0 -0.37570137264E+02 -0.16249072703E+03 -0.52901005461E+02  0.17496647669E+03  0.00000000000E+00 0.  1.
         -5    1    3    3    0  503 -0.60222846970E+02  0.67616679595E+01  0.29639762984E+02  0.67624825327E+02  0.47000000000E+01 0.  1.
</event>
<event>
12    1  0.9749377E-001  0.2625832E+03  0.7818608E-02  0.1105601E+00
         21   -1    0    0  503  502  0.00000000000E+00  0.00000000000E+00  0.54312610435E+02  0.54312610435E+02  0.00000000000E+00 0.  1.
         21   -1    0    0  501  503 -0.00000000000E+00 -0.00000000000E+00 -0.14225237890E+04  0.14225237890E+04  0.00000000000E+00 0. -1.
          6    2    1    2  501    0  0.13390713228E+03  0.16369911438E+03 -0.53948923767E+03  0.60436103442E+03  0.17168314489E+03 0.  0.
         24    2    3    3    0    0  0.58000236276E+01  0.91603502127E+02 -0.20028022861E+03  0.23463944942E+03  0.80738215073E+02 0.  0.
         -6    2    1    2    0  502 -0.13390713228E+03 -0.16369911438E+03 -0.82872194092E+03  0.87247536504E+03  0.17235047755E+03 0.  0.
        -24    2    5    5    0    0 -0.11639906222E+03 -0.19177219197E+03 -0.69845005652E+03  0.73798564771E+03  0.80405344815E+02 0.  0.
         12    1    4    4    0    0 -0.10583055259E+02 -0.10157623118E+02 -0.52180338542E+02  0.54203008186E+02  0.00000000000E+00 0. -1.
        -11    1    4    4    0    0  0.16383078887E+02  0.10176112525E+03 -0.14809989007E+03  0.18043644123E+03  0.00000000000E+00 0.  1.
          5    1    3    3  501    0  0.12810710865E+03  0.72095612254E+02 -0.33920900905E+03  0.36972158500E+03  0.47000000000E+01 0. -1.
         13    1    6    6    0    0 -0.72301393156E+02 -0.86114599542E+02 -0.23373249853E+03  0.25937250544E+03  0.00000000000E+00 0. -1.
        -14    1    6    6    0    0 -0.44097669066E+02 -0.10565759242E+03 -0.46471755799E+03  0.47861314227E+03  0.00000000000E+00 0.  1.
         -5    1    5    5    0  502 -0.17508070057E+02  0.28073077585E+02 -0.13027188440E+03  0.13448971733E+03  0.47000000000E+01 0.  1.
</event>
<event>
12    1  0.9749377E-001  0.2367911E+03  0.7818608E-02  0.1121949E+00
         21   -1    0    0  503  502  0.00000000000E+00  0.00000000000E+00  0.85933168880E+03  0.85933168880E+03  0.00000000000E+00 0. -1.
         21   -1    0    0  501  503 -0.00000000000E+00 -0.00000000000E+00 -0.92356933768E+02  0.92356933768E+02  0.00000000000E+00 0.  1.
          6    2    1    2  501    0 -0.20513414171E+03  0.59703219402E+01  0.53081955451E+03  0.59417619279E+03  0.17076383628E+03 0.  0.
         24    2    3    3    0    0 -0.26168411427E+02 -0.22530270104E+01  0.20499731319E+03  0.22231791464E+03  0.81923713713E+02 0.  0.
         -6    2    1    2    0  502  0.20513414171E+03 -0.59703219402E+01  0.23615520052E+03  0.35751242978E+03  0.17300346203E+03 0.  0.
        -24    2    5    5    0    0  0.64432900500E+02  0.40135719166E+02  0.13701475680E+03  0.17926113557E+03  0.87172452800E+02 0.  0.
         14    1    4    4    0    0 -0.27019036034E+02  0.13467557099E+01  0.21236112636E+03  0.21407729923E+03  0.00000000000E+00 0. -1.
        -13    1    4    4    0    0  0.85062460657E+00 -0.35997827202E+01 -0.73638131710E+01  0.82406154061E+01  0.00000000000E+00 0.  1.
          5    1    3    3  501    0 -0.17896573029E+03  0.82233489506E+01  0.32582224132E+03  0.37185827815E+03  0.47000000000E+01 0. -1.
         11    1    6    6    0    0  0.43350874901E+02 -0.22887075637E+02  0.54234200811E+02  0.73105848765E+02  0.00000000000E+00 0. -1.
        -12    1    6    6    0    0  0.21082025599E+02  0.63022794804E+02  0.82780555985E+02  0.10615528681E+03  0.00000000000E+00 0.  1.
         -5    1    5    5    0  502  0.14070124121E+03 -0.46106041107E+02  0.99140443724E+02  0.17825129421E+03  0.47000000000E+01 0.  1.
</event>
<event>
12    1  0.9749377E-001  0.4552381E+03  0.7818608E-02  0.1026171E+00
         21   -1    0    0  503  502  0.00000000000E+00  0.00000000000E+00  0.38320917937E+03  0.38320917937E+03  0.00000000000E+00 0.  1.
         21   -1    0    0  501  503 -0.00000000000E+00 -0.00000000000E+00 -0.75136050456E+03  0.75136050456E+03  0.00000000000E+00 0. -1.
          6    2    1    2  501    0 -0.27054615516E+03 -0.34709233311E+03  0.84796415216E+02  0.48036055524E+03  0.17288007757E+03 0.  0.
         24    2    3    3    0    0 -0.14823201726E+03 -0.16568068306E+03  0.10843780197E+03  0.26024254082E+03  0.80898723583E+02 0.  0.
         -6    2    1    2    0  502  0.27054615516E+03  0.34709233311E+03 -0.45294774041E+03  0.65420912869E+03  0.17076187732E+03 0.  0.
        -24    2    5    5    0    0  0.11335291955E+03  0.24557782787E+03 -0.23648986841E+03  0.36804307821E+03  0.79817890533E+02 0.  0.
         14    1    4    4    0    0 -0.70410331737E+01  0.31247661146E+01 -0.81367640067E+01  0.11204786474E+02  0.00000000000E+00 0. -1.
        -13    1    4    4    0    0 -0.14119098409E+03 -0.16880544918E+03  0.11657456597E+03  0.24903775435E+03  0.00000000000E+00 0.  1.
          5    1    3    3  501    0 -0.12231413790E+03 -0.18141165005E+03 -0.23641386750E+02  0.22011801442E+03  0.47000000000E+01 0. -1.
         13    1    6    6    0    0  0.10663448775E+03  0.16915806516E+03 -0.20097287782E+03  0.28350566591E+03  0.00000000000E+00 0. -1.
        -14    1    6    6    0    0  0.67184318057E+01  0.76419762701E+02 -0.35516990590E+02  0.84537412297E+02  0.00000000000E+00 0.  1.
         -5    1    5    5    0  502  0.15719323561E+03  0.10151450525E+03 -0.21645787200E+03  0.28616605048E+03  0.47000000000E+01 0.  1.
</event>
<event>
12    1  0.9749377E-001  0.3787031E+03  0.7818608E-02  0.1051414E+00
         21   -1    0    0  503  502  0.00000000000E+00  0.00000000000E+00  0.51309874398E+03  0.51309874398E+03  0.00000000000E+00 0.  1.
         21   -1    0    0  501  503 -0.00000000000E+00 -0.00000000000E+00 -0.30116316222E+03  0.30116316222E+03  0.00000000000E+00 0. -1.
          6    2    1    2  501    0 -0.24261582987E+03  0.25164851901E+03  0.13087803587E+03  0.41349156858E+03  0.17792357626E+03 0.  0.
         24    2    3    3    0    0 -0.21441590381E+03  0.16600400351E+03  0.15172545575E+03  0.32082591269E+03  0.79857018127E+02 0.  0.
         -6    2    1    2    0  502  0.24261582987E+03 -0.25164851901E+03  0.81057545897E+02  0.40077033763E+03  0.17848562898E+03 0.  0.
        -24    2    5    5    0    0  0.18747673141E+03 -0.26661939070E+03  0.73988088387E+02  0.34300776837E+03  0.77114639450E+02 0.  0.
         14    1    4    4    0    0 -0.18977246416E+03  0.17328441931E+03  0.13781681767E+03  0.29160684725E+03  0.00000000000E+00 0. -1.
        -13    1    4    4    0    0 -0.24643439654E+02 -0.72804158032E+01  0.13908638084E+02  0.29219065447E+02  0.00000000000E+00 0.  1.
          5    1    3    3  501    0 -0.28199926059E+02  0.85644515498E+02 -0.20847419883E+02  0.92665655883E+02  0.47000000000E+01 0. -1.
         11    1    6    6    0    0  0.99301549854E+02 -0.16488894757E+03  0.79539095871E+02  0.20826816993E+03  0.00000000000E+00 0. -1.
        -12    1    6    6    0    0  0.88175181561E+02 -0.10173044313E+03 -0.55510074839E+01  0.13473959844E+03  0.00000000000E+00 0.  1.
         -5    1    5    5    0  502  0.55139098455E+02  0.14970871696E+02  0.70694575103E+01  0.57762569257E+02  0.47000000000E+01 0.  1.
</event>
<event>
12    1  0.9749377E-001  0.2998189E+03  0.7818608E-02  0.1085331E+00
         21   -1    0    0  503  502  0.00000000000E+00  0.00000000000E+00  0.29521408150E+03  0.29521408150E+03  0.00000000000E+00 0.  1.
         21   -1    0    0  501  503 -0.00000000000E+00 -0.00000000000E+00 -0.44461660525E+03  0.44461660525E+03  0.00000000000E+00 0. -1.
          6    2    1    2  501    0 -0.20372527004E+03 -0.18784146755E+03 -0.23823988297E+03  0.40400515706E+03  0.17226004328E+03 0.  0.
         24    2    3    3    0    0 -0.16600237484E+03 -0.17368961657E+03 -0.25566307123E+03  0.35985825233E+03  0.80059255679E+02 0.  0.
         -6    2    1    2    0  502  0.20372527004E+03  0.18784146755E+03  0.88837359228E+02  0.33582552969E+03  0.16762549750E+03 0.  0.
        -24    2    5    5    0    0  0.20992954057E+03  0.20526219476E+03  0.85960382452E+02  0.31652937191E+03  0.81232230863E+02 0.  0.
         14    1    4    4    0    0 -0.10681583067E+03 -0.72952202025E+02 -0.17610593343E+03  0.21850616753E+03  0.00000000000E+00 0. -1.
        -13    1    4    4    0    0 -0.59186544171E+02 -0.10073741454E+03 -0.79557137802E+02  0.14135208479E+03  0.00000000000E+00 0.  1.
          5    1    3    3  501    0 -0.37722895201E+02 -0.14151850981E+02  0.17423188260E+02  0.44146904735E+02  0.47000000000E+01 0. -1.
         13    1    6    6    0    0  0.16805046197E+03  0.17023461749E+03  0.10136789075E+03  0.25980036958E+03  0.00000000000E+00 0. -1.
        -14    1    6    6    0    0  0.41879078601E+02  0.35027577275E+02 -0.15407508294E+02  0.56729002336E+02  0.00000000000E+00 0.  1.
         -5    1    5    5    0  502 -0.62042705263E+01 -0.17420727215E+02  0.28769767764E+01  0.19296157774E+02  0.47000000000E+01 0.  1.
</event>
<event>
12    1  0.9749377E-001  0.5821889E+03  0.7818608E-02  0.9943063E-01
         21   -1    0    0  503  502  0.00000000000E+00  0.00000000000E+00  0.40998523954E+03  0.40998523954E+03  0.00000000000E+00 0. -1.
         21   -1    0    0  501  503 -0.00000000000E+00 -0.00000000000E+00 -0.14696066927E+04  0.14696066927E+04  0.00000000000E+00 0.  1.
          6    2    1    2  501    0  0.47195320560E+03  0.30331171859E+03  0.85459983815E+02  0.59294442994E+03  0.17187746001E+03 0.  0.
         24    2    3    3    0    0  0.92477139760E+02  0.83085094956E+02  0.17525528957E+02  0.14894101728E+03  0.80131941703E+02 0.  0.
         -6    2    1    2    0  502 -0.47195320560E+03 -0.30331171859E+03 -0.11450814370E+04  0.12866475023E+04  0.17179194080E+03 0.  0.
        -24    2    5    5    0    0 -0.25228153596E+03 -0.10149892542E+03 -0.61175420568E+03  0.67554679735E+03  0.90400564138E+02 0.  0.
         14    1    4    4    0    0  0.16598917962E+02 -0.11899985651E+02  0.18216480291E+02  0.27367387348E+02  0.00000000000E+00 0. -1.
        -13    1    4    4    0    0  0.75878221798E+02  0.94985080607E+02 -0.69095133464E+00  0.12157362993E+03  0.00000000000E+00 0.  1.
          5    1    3    3  501    0  0.37947606584E+03  0.22022662364E+03  0.67934454858E+02  0.44400341266E+03  0.47000000000E+01 0. -1.
         11    1    6    6    0    0 -0.54314699535E+02 -0.63721323954E+02 -0.15141843977E+03  0.17302611830E+03  0.00000000000E+00 0. -1.
        -12    1    6    6    0    0 -0.19796683643E+03 -0.37777601465E+02 -0.46033576591E+03  0.50252067905E+03  0.00000000000E+00 0.  1.
         -5    1    5    5    0  502 -0.21967166964E+03 -0.20181279318E+03 -0.53332723128E+03  0.61110070492E+03  0.47000000000E+01 0.  1.
</event>
<event>
12    1  0.9749377E-001  0.2834264E+03  0.7818608E-02  0.1093832E+00
         21   -1    0    0  503  502  0.00000000000E+00  0.00000000000E+00  0.83204301796E+03  0.83204301796E+03  0.00000000000E+00 0.  1.
         21   -1    0    0  501  503 -0.00000000000E+00 -0.00000000000E+00 -0.10589943757E+03  0.10589943757E+03  0.00000000000E+00 0. -1.
          6    2    1    2  501    0  0.16264882303E+01 -0.23260440363E+03  0.47122694438E+03  0.55283751099E+03  0.17165962366E+03 0.  0.
         24    2    3    3    0    0 -0.58712041928E+02 -0.15712207499E+03  0.36303332710E+03  0.40769527393E+03  0.79295582991E+02 0.  0.
         -6    2    1    2    0  502 -0.16264882303E+01  0.23260440363E+03  0.25491663601E+03  0.38510494454E+03  0.17092651328E+03 0.  0.
        -24    2    5    5    0    0  0.59857679172E+02  0.13500314374E+03  0.18221333975E+03  0.24867119483E+03  0.82624883525E+02 0.  0.
         14    1    4    4    0    0 -0.73673123292E+02 -0.87947856319E+02  0.22810422437E+03  0.25533133709E+03  0.00000000000E+00 0. -1.
        -13    1    4    4    0    0  0.14961081364E+02 -0.69174218667E+02  0.13492910274E+03  0.15236393684E+03  0.00000000000E+00 0.  1.
          5    1    3    3  501    0  0.60338530159E+02 -0.75482328641E+02  0.10819361728E+03  0.14514223706E+03  0.47000000000E+01 0. -1.
         13    1    6    6    0    0 -0.20256816960E+02  0.40331336651E+02  0.51760380705E+02  0.68673811312E+02  0.00000000000E+00 0. -1.
        -14    1    6    6    0    0  0.80114496132E+02  0.94671807088E+02  0.13045295905E+03  0.17999738351E+03  0.00000000000E+00 0.  1.
         -5    1    5    5    0  502 -0.61484167403E+02  0.97601259889E+02  0.72703296259E+02  0.13643374971E+03  0.47000000000E+01 0.  1.
</event>
<event>
12    1  0.9749377E-001  0.2614130E+03  0.7818608E-02  0.1106297E+00
         21   -1    0    0  503  502  0.00000000000E+00  0.00000000000E+00  0.13007696528E+04  0.13007696528E+04  0.00000000000E+00 0. -1.
         21   -1    0    0  501  503 -0.00000000000E+00 -0.00000000000E+00 -0.16088147820E+03  0.16088147820E+03  0.00000000000E+00 0.  1.
          6    2    1    2  501    0 -0.41516814189E+02 -0.24062387169E+03  0.16556835412E+02  0.29926020941E+03  0.17221803230E+03 0.  0.
         24    2    3    3    0    0  0.17140334310E+02 -0.86549659294E+02 -0.37252585608E+02  0.12577514439E+03  0.81529118889E+02 0.  0.
         -6    2    1    2    0  502  0.41516814189E+02  0.24062387169E+03  0.11233313391E+04  0.11623909215E+04  0.17220877872E+03 0.  0.
        -24    2    5    5    0    0 -0.10801196802E+02  0.74037389957E+02  0.27536933831E+03  0.29662543652E+03  0.80994914338E+02 0.  0.
         14    1    4    4    0    0 -0.21140202587E+02 -0.11451042332E+02 -0.33713986463E+02  0.41408542828E+02  0.00000000000E+00 0. -1.
        -13    1    4    4    0    0  0.38280536896E+02 -0.75098616962E+02 -0.35385991450E+01  0.84366601559E+02  0.00000000000E+00 0.  1.
          5    1    3    3  501    0 -0.58657148499E+02 -0.15407421240E+03  0.53809421021E+02  0.17348506503E+03  0.47000000000E+01 0. -1.
         11    1    6    6    0    0 -0.67013188819E+01  0.34811697657E+02  0.25516487590E+02  0.43678977866E+02  0.00000000000E+00 0. -1.
        -12    1    6    6    0    0 -0.40998779201E+01  0.39225692300E+02  0.24985285072E+03  0.25294645866E+03  0.00000000000E+00 0.  1.
         -5    1    5    5    0  502  0.52318010991E+02  0.16658648174E+03  0.84796200084E+03  0.86576548501E+03  0.47000000000E+01 0.  1.
</event>
<event>
12    1  0.9749377E-001  0.3833402E+03  0.7818608E-02  0.1049706E+00
         21   -1    0    0  503  502  0.00000000000E+00  0.00000000000E+00  0.16940206672E+03  0.16940206672E+03  0.00000000000E+00 0. -1.
         21   -1    0    0  501  503 -0.00000000000E+00 -0.00000000000E+00 -0.16397125804E+04  0.16397125804E+04  0.00000000000E+00 0.  1.
          6    2    1    2  501    0 -0.35803055125E+03  0.53119327022E+02 -0.13200094654E+04  0.13795042538E+04  0.17204493318E+03 0.  0.
         24    2    3    3    0    0 -0.15950160478E+03 -0.30405280270E+02 -0.49761027465E+03  0.52935566589E+03  0.78969567426E+02 0.  0.
         -6    2    1    2    0  502  0.35803055125E+03 -0.53119327022E+02 -0.15030104829E+03  0.42961039332E+03  0.17597484593E+03 0.  0.
        -24    2    5    5    0    0  0.10718378244E+03 -0.48207001007E+02 -0.13519703104E+02  0.14381420937E+03  0.81776930001E+02 0.  0.
         12    1    4    4    0    0 -0.15583144864E+03 -0.43591642391E+02 -0.48277205571E+03  0.50916846863E+03  0.00000000000E+00 0. -1.
        -11    1    4    4    0    0 -0.36701561466E+01  0.13186362121E+02 -0.14838218941E+02  0.20187197267E+02  0.00000000000E+00 0.  1.
          5    1    3    3  501    0 -0.19852894646E+03  0.83524607292E+02 -0.82239919074E+03  0.85014858792E+03  0.47000000000E+01 0. -1.
         13    1    6    6    0    0 -0.27551596106E+01  0.25144142176E+01 -0.22121452070E+02  0.22433720713E+02  0.00000000000E+00 0. -1.
        -14    1    6    6    0    0  0.10993894205E+03 -0.50721415224E+02  0.86017489652E+01  0.12138048865E+03  0.00000000000E+00 0.  1.
         -5    1    5    5    0  502  0.25084676881E+03 -0.49123260153E+01 -0.13678134519E+03  0.28579618395E+03  0.47000000000E+01 0.  1.
</event>
<event>
12    1  0.9749377E-001  0.7297490E+03  0.7818608E-02  0.9667668E-01
         21   -1    0    0  503  502  0.00000000000E+00  0.00000000000E+00  0.37111872964E+03  0.37111872964E+03  0.00000000000E+00 0.  1.
         21   -1    0    0  501  503 -0.00000000000E+00 -0.00000000000E+00 -0.15590628910E+04  0.15590628910E+04  0.00000000000E+00 0. -1.
          6    2    1    2  501    0  0.12427839917E+03  0.71400729982E+03 -0.78873631754E+03  0.10850299542E+04  0.17301294250E+03 0.  0.
         24    2    3    3    0    0  0.84903790246E+02  0.27004456783E+03 -0.37845548229E+03  0.47921998320E+03  0.79312785925E+02 0.  0.
         -6    2    1    2    0  502 -0.12427839917E+03 -0.71400729982E+03 -0.39920784379E+03  0.84515166639E+03  0.17222918441E+03 0.  0.
        -24    2    5    5    0    0 -0.19577470571E+01 -0.25284056554E+03 -0.11049891499E+03  0.28746713701E+03  0.80592557291E+02 0.  0.
         12    1    4    4    0    0  0.73375573254E+02  0.24621597565E+03 -0.29264430657E+03  0.38941876121E+03  0.00000000000E+00 0. -1.
        -11    1    4    4    0    0  0.11528216992E+02  0.23828592180E+02 -0.85811175721E+02  0.89801221990E+02  0.00000000000E+00 0.  1.
          5    1    3    3  501    0  0.39374608920E+02  0.44396273199E+03 -0.41028083525E+03  0.60580997103E+03  0.47000000000E+01 0. -1.
         11    1    6    6    0    0  0.53605682724E+01 -0.53276510133E+02 -0.62081770326E+02  0.81983342400E+02  0.00000000000E+00 0. -1.
        -12    1    6    6    0    0 -0.73183153296E+01 -0.19956405541E+03 -0.48417144660E+02  0.20548379461E+03  0.00000000000E+00 0.  1.
         -5    1    5    5    0  502 -0.12232065211E+03 -0.46116673427E+03 -0.28870892880E+03  0.55768452937E+03  0.47000000000E+01 0.  1.
</event>
<event>
12    1  0.9749377E-001  0.6889274E+03  0.7818608E-02  0.9736357E-01
         21   -1    0    0  503  502  0.00000000000E+00  0.00000000000E+00  0.10149111317E+04  0.10149111317E+04  0.00000000000E+00 0. -1.
         21   -1    0    0  501  503 -0.00000000000E+00 -0.00000000000E+00 -0.10636433009E+04  0.10636433009E+04  0.00000000000E+00 0.  1.
          6    2    1    2  501    0  0.14029549317E+03 -0.65631630248E+03  0.75032530627E+03  0.10210525179E+04  0.17066418708E+03 0.  0.
         24    2    3    3    0    0  0.31040136725E+01 -0.25811201857E+03  0.29667620122E+03  0.40201475306E+03  0.83472416259E+02 0.  0.
         -6    2    1    2    0  502 -0.14029549317E+03  0.65631630248E+03 -0.79905747545E+03  0.10575019146E+04  0.17141626558E+03 0.  0.
        -24    2    5    5    0    0 -0.14290767287E+03  0.35424048820E+03 -0.46865110421E+03  0.60978874618E+03  0.79369585201E+02 0.  0.
         14    1    4    4    0    0 -0.27158979488E+02 -0.12449832256E+03  0.98324706530E+02  0.16095089438E+03  0.00000000000E+00 0. -1.
        -13    1    4    4    0    0  0.30262993160E+02 -0.13361369601E+03  0.19835149469E+03  0.24106385868E+03  0.00000000000E+00 0.  1.
          5    1    3    3  501    0  0.13719147949E+03 -0.39820428391E+03  0.45364910505E+03  0.61903776483E+03  0.47000000000E+01 0. -1.
         13    1    6    6    0    0 -0.64752383911E+02  0.70175576932E+02 -0.11815212284E+03  0.15191249768E+03  0.00000000000E+00 0. -1.
        -14    1    6    6    0    0 -0.78155288958E+02  0.28406491127E+03 -0.35049898137E+03  0.45787624851E+03  0.00000000000E+00 0.  1.
         -5    1    5    5    0  502  0.26121797034E+01  0.30207581429E+03 -0.33040637124E+03  0.44771316846E+03  0.47000000000E+01 0.  1.
</event>
<event>
12    1  0.9749377E-001  0.4914531E+03  0.7818608E-02  0.1016034E+00
         21   -1    0    0  501  502  0.00000000000E+00  0.00000000000E+00  0.68083875265E+03  0.68083875265E+03  0.00000000000E+00 0. -1.
         21   -1    0    0  502  503 -0.00000000000E+00 -0.00000000000E+00 -0.41791276998E+03  0.41791276998E+03  0.00000000000E+00 0.  1.
         -6    2    1    2    0  503  0.36241637937E+03 -0.31805345303E+03 -0.23822922905E+02  0.51250616977E+03  0.17202154333E+03 0.  0.
        -24    2    3    3    0    0  0.76624291724E+02 -0.12128913479E+03  0.12281018412E+02  0.16362381298E+03  0.77714814947E+02 0.  0.
          6    2    1    2  501    0 -0.36241637937E+03  0.31805345303E+03  0.28674890557E+03  0.58624535286E+03  0.17016182852E+03 0.  0.
         24    2    5    5    0    0 -0.85900661921E+02  0.61741169612E+02  0.54120591702E+02  0.14319349242E+03  0.79902703842E+02 0.  0.
         12    1    6    6    0    0 -0.38625925896E+02  0.59278172672E+01  0.58011755151E+02  0.69946157182E+02  0.00000000000E+00 0. -1.
        -11    1    6    6    0    0 -0.47274736026E+02  0.55813352345E+02 -0.38911634487E+01  0.73247335237E+02  0.00000000000E+00 0.  1.
          5    1    5    5  501    0 -0.27651571745E+03  0.25631228342E+03  0.23262831387E+03  0.44305186044E+03  0.47000000000E+01 0. -1.
         11    1    4    4    0    0  0.69202724219E+02 -0.12074110312E+03  0.31783098187E+02  0.14275011857E+03  0.00000000000E+00 0. -1.
        -12    1    4    4    0    0  0.74215675050E+01 -0.54803167131E+00 -0.19502079776E+02  0.20873694415E+02  0.00000000000E+00 0.  1.
         -5    1    3    3    0  503  0.28579208765E+03 -0.19676431824E+03 -0.36103941317E+02  0.34888235678E+03  0.47000000000E+01 0.  1.
</event>
<event>
12    1  0.9749377E-001  0.2884794E+03  0.7818608E-02  0.1091146E+00
         21   -1    0    0  501  502  0.00000000000E+00  0.00000000000E+00  0.22009037912E+03  0.22009037912E+03  0.00000000000E+00 0. -1.
         21   -1    0    0  502  503 -0.00000000000E+00 -0.00000000000E+00 -0.48814815209E+03  0.48814815209E+03  0.00000000000E+00 0.  1.
         -6    2    1    2    0  503 -0.24076805196E+03 -0.70281310694E+02 -0.26678512562E+03  0.40455001838E+03  0.17198167531E+03 0.  0.
        -24    2    3    3    0    0 -0.21586781293E+03 -0.14575987843E+01 -0.21814068841E+03  0.31654378851E+03  0.77547229799E+02 0.  0.
          6    2    1    2  501    0  0.24076805196E+03  0.70281310694E+02 -0.12726473545E+01  0.30368851283E+03  0.17122025499E+03 0.  0.
         24    2    5    5    0    0  0.58456676430E+02  0.69143195433E+02 -0.70263515182E+01  0.12122227469E+03  0.80296362123E+02 0.  0.
         12    1    6    6    0    0  0.55661955226E+02  0.45091683583E+02 -0.38647805161E+02  0.81395122899E+02  0.00000000000E+00 0. -1.
        -11    1    6    6    0    0  0.27947212037E+01  0.24051511850E+02  0.31621453643E+02  0.39827151786E+02  0.00000000000E+00 0.  1.
          5    1    5    5  501    0  0.18231137553E+03  0.11381152601E+01  0.57537041637E+01  0.18246623815E+03  0.47000000000E+01 0. -1.
         11    1    4    4    0    0 -0.94008472709E+01 -0.15848617273E+02 -0.42483684050E+01  0.18910400128E+02  0.00000000000E+00 0. -1.
        -12    1    4    4    0    0 -0.20646696566E+03  0.14391018489E+02 -0.21389232001E+03  0.29763338838E+03  0.00000000000E+00 0.  1.
         -5    1    3    3    0  503 -0.24900239027E+02 -0.68823711909E+02 -0.48644437206E+02  0.88006229868E+02  0.47000000000E+01 0.  1.
</event>
<event>
12    1  0.9749377E-001  0.2477267E+03  0.7818608E-02  0.1114750E+00
         21   -1    0    0  503  502  0.00000000000E+00  0.00000000000E+00  0.11719417273E+04  0.11719417273E+04  0.00000000000E+00 0. -1.
         21   -1    0    0  501  503 -0.00000000000E+00 -0.00000000000E+00 -0.13359155824E+03  0.13359155824E+03  0.00000000000E+00 0.  1.
          6    2    1    2  501    0 -0.87830669431E+01 -0.21257087663E+03  0.48057026067E+02  0.27800282567E+03  0.17237335488E+03 0.  0.
         24    2    3    3    0    0  0.53726473699E+02 -0.16550659012E+03  0.11164879107E+02  0.19136790060E+03  0.78854635266E+02 0.  0.
         -6    2    1    2    0  502  0.87830669431E+01  0.21257087663E+03  0.99029314304E+03  0.10275304599E+04  0.17284333090E+03 0.  0.
        -24    2    5    5    0    0  0.51361620274E+02  0.93949030157E+02  0.67354269323E+03  0.68659496290E+03  0.79299729991E+02 0.  0.
         14    1    4    4    0    0 -0.51288986795E+01 -0.65309485288E+02  0.32647094594E+02  0.73194721502E+02  0.00000000000E+00 0. -1.
        -13    1    4    4    0    0  0.58855372379E+02 -0.10019710483E+03 -0.21482215487E+02  0.11817317909E+03  0.00000000000E+00 0.  1.
          5    1    3    3  501    0 -0.62509540642E+02 -0.47064286508E+02  0.36892146959E+02  0.86634925077E+02  0.47000000000E+01 0. -1.
         11    1    6    6    0    0  0.46560566626E+02  0.65395744834E+02  0.26170565922E+03  0.27374137771E+03  0.00000000000E+00 0. -1.
        -12    1    6    6    0    0  0.48010536476E+01  0.28553285323E+02  0.41183703401E+03  0.41285358519E+03  0.00000000000E+00 0.  1.
         -5    1    5    5    0  502 -0.42578553331E+02  0.11862184647E+03  0.31675044981E+03  0.34093549701E+03  0.47000000000E+01 0.  1.
</event>
<event>
12    1  0.9749377E-001  0.2632224E+03  0.7818608E-02  0.1105222E+00
         21   -1    0    0  501  502  0.00000000000E+00  0.00000000000E+00  0.81434547922E+02  0.81434547922E+02  0.00000000000E+00 0.  1.
         21   -1    0    0  502  503 -0.00000000000E+00 -0.00000000000E+00 -0.92819871764E+03  0.92819871764E+03  0.00000000000E+00 0. -1.
         -6    2    1    2    0  503  0.14410385488E+03 -0.15207521353E+03 -0.33898189975E+03  0.43392479899E+03  0.17172423028E+03 0.  0.
        -24    2    3    3    0    0  0.15409241737E+03 -0.68431690603E+02 -0.24029462496E+03  0.30408921638E+03  0.79381202827E+02 0.  0.
          6    2    1    2  501    0 -0.14410385488E+03  0.15207521353E+03 -0.50778226997E+03  0.57570846656E+03  0.17235026319E+03 0.  0.
         24    2    5    5    0    0 -0.27683412911E+02  0.70091269013E+01 -0.16540101691E+03  0.18603565350E+03  0.80226359558E+02 0.  0.
         12    1    6    6    0    0 -0.44247291363E+02 -0.22981350373E+02 -0.83435944788E+02  0.97198364907E+02  0.00000000000E+00 0. -1.
        -11    1    6    6    0    0  0.16563878453E+02  0.29990477274E+02 -0.81965072119E+02  0.88837288590E+02  0.00000000000E+00 0.  1.
          5    1    5    5  501    0 -0.11642044196E+03  0.14506608663E+03 -0.34238125306E+03  0.38967281307E+03  0.47000000000E+01 0. -1.
         11    1    4    4    0    0  0.30840784363E+02 -0.29395623947E+02 -0.12059348396E+03  0.12789857333E+03  0.00000000000E+00 0. -1.
        -12    1    4    4    0    0  0.12325163301E+03 -0.39036066656E+02 -0.11970114100E+03  0.17619064305E+03  0.00000000000E+00 0.  1.
         -5    1    3    3    0  503 -0.99885624978E+01 -0.83643522927E+02 -0.98687274786E+02  0.12983558262E+03  0.47000000000E+01 0.  1.
</event>
<event>
12    1  0.9749377E-001  0.3997869E+03  0.7818608E-02  0.1043853E+00
         21   -1    0    0  501  502  0.00000000000E+00  0.00000000000E+00  0.14121967734E+04  0.14121967734E+04  0.00000000000E+00 0. -1.
         21   -1    0    0  502  503 -0.00000000000E+00 -0.00000000000E+00 -0.16551226852E+03  0.16551226852E+03  0.00000000000E+00 0.  1.
         -6    2    1    2    0  503  0.31549024186E+03 -0.22485366195E+03  0.10037345051E+04  0.10892632376E+04  0.17005346820E+03 0.  0.
        -24    2    3    3    0    0  0.12337864762E+03 -0.41900918835E+02  0.45277155370E+03  0.47773986546E+03  0.79090590590E+02 0.  0.
          6    2    1    2  501    0 -0.31549024186E+03  0.22485366195E+03  0.24294999983E+03  0.48844580437E+03  0.17164305808E+03 0.  0.
         24    2    5    5    0    0 -0.29866111118E+03  0.20568102225E+03  0.26370711564E+03  0.45522295667E+03  0.78634313102E+02 0.  0.
         14    1    6    6    0    0 -0.17990653450E+03  0.76451382477E+02  0.13432297799E+03  0.23717891444E+03  0.00000000000E+00 0. -1.
        -13    1    6    6    0    0 -0.11875457668E+03  0.12922963977E+03  0.12938413765E+03  0.21804404223E+03  0.00000000000E+00 0.  1.
          5    1    5    5  501    0 -0.16829130670E+02  0.19172639708E+02 -0.20757115805E+02  0.33222847696E+02  0.47000000000E+01 0. -1.
         11    1    4    4    0    0  0.10017847723E+03 -0.50980330560E+02  0.42835128276E+03  0.44285386173E+03  0.00000000000E+00 0. -1.
        -12    1    4    4    0    0  0.23200170391E+02  0.90794117247E+01  0.24420270933E+02  0.34886003725E+02  0.00000000000E+00 0.  1.
         -5    1    3    3    0  503  0.19211159423E+03 -0.18295274312E+03  0.55096295137E+03  0.61152337211E+03  0.47000000000E+01 0.  1.
</event>
<event>
12    1  0.9749377E-001  0.2911590E+03  0.7818608E-02  0.1089746E+00
         21   -1    0    0  503  502  0.00000000000E+00  0.00000000000E+00  0.55088339436E+03  0.55088339436E+03  0.00000000000E+00 0. -1.
         21   -1    0    0  501  503 -0.00000000000E+00 -0.00000000000E+00 -0.20402124186E+03  0.20402124186E+03  0.00000000000E+00 0.  1.
          6    2    1    2  501    0 -0.14379207533E+03  0.21753870012E+03  0.31218528766E+03  0.44068509196E+03  0.16954188114E+03 0.  0.
         24    2    3    3    0    0 -0.15578669476E+03  0.13785409507E+03  0.26190421221E+03  0.34558628163E+03  0.86964451847E+02 0.  0.
         -6    2    1    2    0  502  0.14379207533E+03 -0.21753870012E+03  0.34676864838E+02  0.31421954426E+03  0.17184932372E+03 0.  0.
        -24    2    5    5    0    0  0.79765016541E+02 -0.20970228253E+03 -0.48634931550E+01  0.23841450743E+03  0.80500426255E+02 0.  0.
         14    1    4    4    0    0 -0.43205294786E+02  0.56509909269E+02  0.15423183312E+03  0.16984559367E+03  0.00000000000E+00 0. -1.
        -13    1    4    4    0    0 -0.11258139998E+03  0.81344185803E+02  0.10767237909E+03  0.17574068796E+03  0.00000000000E+00 0.  1.
          5    1    3    3  501    0  0.11994619430E+02  0.79684605046E+02  0.50281075454E+02  0.95098810326E+02  0.47000000000E+01 0. -1.
         13    1    6    6    0    0  0.68162834815E+02 -0.13432379288E+03  0.31556012656E+02  0.15389878271E+03  0.00000000000E+00 0. -1.
        -14    1    6    6    0    0  0.11602181726E+02 -0.75378489648E+02 -0.36419505811E+02  0.84515724726E+02  0.00000000000E+00 0.  1.
         -5    1    5    5    0  502  0.64027058793E+02 -0.78364175901E+01  0.39540357993E+02  0.75805036828E+02  0.47000000000E+01 0.  1.
</event>
<event>
12    1  0.9749377E-001  0.6488558E+03  0.7818608E-02  0.9808929E-01
         21   -1    0    0  501  502  0.00000000000E+00  0.00000000000E+00  0.72376738455E+03  0.72376738455E+03  0.00000000000E+00 0. -1.
         21   -1    0    0  502  503 -0.00000000000E+00 -0.00000000000E+00 -0.64934452134E+03  0.64934452134E+03  0.00000000000E+00 0.  1.
         -6    2    1    2    0  503  0.18000741276E+03 -0.60847793364E+03  0.22810644120E+03  0.69797559759E+03  0.18024794573E+03 0.  0.
        -24    2    3    3    0    0  0.10428812953E+03 -0.51382698181E+03  0.22569658225E+03  0.57664913735E+03  0.81799139151E+02 0.  0.
          6    2    1    2  501    0 -0.18000741276E+03  0.60847793364E+03 -0.15368357799E+03  0.67513630830E+03  0.17187881855E+03 0.  0.
         24    2    5    5    0    0 -0.17122384374E+03  0.41170163296E+03 -0.15291208603E+03  0.47810649128E+03  0.79924162219E+02 0.  0.
         12    1    6    6    0    0 -0.17998156147E+02  0.11043795533E+03 -0.14332730406E+02  0.11280914308E+03  0.00000000000E+00 0. -1.
        -11    1    6    6    0    0 -0.15322568760E+03  0.30126367763E+03 -0.13857935562E+03  0.36529734820E+03  0.00000000000E+00 0.  1.
          5    1    5    5  501    0 -0.87835690151E+01  0.19677630068E+03 -0.77149196206E+00  0.19702981701E+03  0.47000000000E+01 0. -1.
         11    1    4    4    0    0  0.33732353752E+02 -0.49891378238E+02  0.38140957519E+02  0.71286421937E+02  0.00000000000E+00 0. -1.
        -12    1    4    4    0    0  0.70555775777E+02 -0.46393560357E+03  0.18755562473E+03  0.50536271541E+03  0.00000000000E+00 0.  1.
         -5    1    3    3    0  503  0.75719283232E+02 -0.94650951824E+02  0.24098589494E+01  0.12132646024E+03  0.47000000000E+01 0.  1.
</event>
<event>
12    1  0.9749377E-001  0.3467712E+03  0.7818608E-02  0.1063948E+00
         21   -1    0    0  501  502  0.00000000000E+00  0.00000000000E+00  0.11685218899E+04  0.11685218899E+04  0.00000000000E+00 0. -1.
         21   -1    0    0  502  503 -0.00000000000E+00 -0.00000000000E+00 -0.19282300638E+03  0.19282300638E+03  0.00000000000E+00 0.  1.
         -6    2    1    2    0  503 -0.51739516358E+02  0.30842316020E+03  0.48041008051E+02  0.36734600749E+03  0.18663688667E+03 0.  0.
        -24    2    3    3    0    0  0.23231919832E+02  0.18617283016E+03 -0.30019212195E+02  0.20400174704E+03  0.74266512671E+02 0.  0.
          6    2    1    2  501    0  0.51739516358E+02 -0.30842316020E+03  0.92765787548E+03  0.99399888881E+03  0.17228706775E+03 0.  0.
         24    2    5    5    0    0 -0.18733889516E+02 -0.25361030913E+03  0.73565144703E+03  0.78219825580E+03  0.77342823477E+02 0.  0.
         12    1    6    6    0    0 -0.98537672008E+01 -0.54180534495E+01  0.85347785459E+02  0.86085402444E+02  0.00000000000E+00 0. -1.
        -11    1    6    6    0    0 -0.88801223152E+01 -0.24819225568E+03  0.65030366157E+03  0.69611285335E+03  0.00000000000E+00 0.  1.
          5    1    5    5  501    0  0.70473405875E+02 -0.54812851062E+02  0.19200642845E+03  0.21180063301E+03  0.47000000000E+01 0. -1.
         13    1    4    4    0    0 -0.23177599451E+02  0.28711243529E+02 -0.12274573134E+02  0.38887038546E+02  0.00000000000E+00 0. -1.
        -14    1    4    4    0    0  0.46409519283E+02  0.15746158663E+03 -0.17744639062E+02  0.16511470849E+03  0.00000000000E+00 0.  1.
         -5    1    3    3    0  503 -0.74971436191E+02  0.12225033003E+03  0.78060220246E+02  0.16334426045E+03  0.47000000000E+01 0.  1.
</event>
<event>
12    1  0.9749377E-001  0.3344541E+03  0.7818608E-02  0.1069183E+00
         21   -1    0    0  503  502  0.00000000000E+00  0.00000000000E+00  0.36739700421E+03  0.36739700421E+03  0.00000000000E+00 0.  1.
         21   -1    0    0  501  503 -0.00000000000E+00 -0.00000000000E+00 -0.44919807045E+03  0.44919807045E+03  0.00000000000E+00 0. -1.
          6    2    1    2  501    0  0.20952194248E+03 -0.20795687306E+03 -0.25266962490E+03  0.42445469303E+03  0.17080498134E+03 0.  0.
         24    2    3    3    0    0  0.22073301413E+03 -0.22146901741E+03 -0.23261857868E+03  0.39739179171E+03  0.77699702526E+02 0.  0.
         -6    2    1    2    0  502 -0.20952194248E+03  0.20795687306E+03  0.17086855866E+03  0.39214038163E+03  0.19347482818E+03 0.  0.
        -24    2    5    5    0    0 -0.60982765228E+02  0.51716724461E+02  0.13038684611E+03  0.17274181678E+03  0.80283798990E+02 0.  0.
         12    1    4    4    0    0  0.14821472014E+03 -0.19491522332E+03 -0.18104281311E+03  0.30452593933E+03  0.00000000000E+00 0. -1.
        -11    1    4    4    0    0  0.72518293995E+02 -0.26553794094E+02 -0.51575765575E+02  0.92865852386E+02  0.00000000000E+00 0.  1.
          5    1    3    3  501    0 -0.11211071660E+02  0.13512144352E+02 -0.20051046223E+02  0.27062901311E+02  0.47000000000E+01 0. -1.
         11    1    6    6    0    0 -0.18486775876E+02 -0.21497946199E+02  0.27419564568E+02  0.39443061420E+02  0.00000000000E+00 0. -1.
        -12    1    6    6    0    0 -0.42495989351E+02  0.73214670661E+02  0.10296728154E+03  0.13329875536E+03  0.00000000000E+00 0.  1.
         -5    1    5    5    0  502 -0.14853917725E+03  0.15624014860E+03  0.40481712551E+02  0.21939856486E+03  0.47000000000E+01 0.  1.
</event>
<event>
12    1  0.9749377E-001  0.3626147E+03  0.7818608E-02  0.1057553E+00
         21   -1    0    0  503  502  0.00000000000E+00  0.00000000000E+00  0.90721422650E+02  0.90721422650E+02  0.00000000000E+00 0.  1.
         21   -1    0    0  501  503 -0.00000000000E+00 -0.00000000000E+00 -0.15826584070E+04  0.15826584070E+04  0.00000000000E+00 0. -1.
          6    2    1    2  501    0  0.28227697542E+03 -0.16239829509E+03 -0.94421681481E+03  0.10134156122E+04  0.17150018227E+03 0.  0.
         24    2    3    3    0    0  0.65718147838E+02 -0.97368638252E+02 -0.37055280051E+03  0.39678032825E+03  0.79534421792E+02 0.  0.
         -6    2    1    2    0  502 -0.28227697542E+03  0.16239829509E+03 -0.54772016958E+03  0.65996421752E+03  0.17176113397E+03 0.  0.
        -24    2    5    5    0    0 -0.29785316023E+03  0.16529227688E+03 -0.50214740295E+03  0.61148783438E+03  0.75679029124E+02 0.  0.
         14    1    4    4    0    0 -0.15335775049E+01 -0.68569269252E+02 -0.18740795336E+03  0.19956411884E+03  0.00000000000E+00 0. -1.
        -13    1    4    4    0    0  0.67251725342E+02 -0.28799369000E+02 -0.18314484715E+03  0.19721620941E+03  0.00000000000E+00 0.  1.
          5    1    3    3  501    0  0.21655882758E+03 -0.65029656843E+02 -0.57366401430E+03  0.61663528392E+03  0.47000000000E+01 0. -1.
         13    1    6    6    0    0 -0.16578612379E+03  0.86158048324E+02 -0.20877296878E+03  0.28016852183E+03  0.00000000000E+00 0. -1.
        -14    1    6    6    0    0 -0.13206703645E+03  0.79134228558E+02 -0.29337443416E+03  0.33131931255E+03  0.00000000000E+00 0.  1.
         -5    1    5    5    0  502  0.15576184814E+02 -0.28939817877E+01 -0.45572766631E+02  0.48476383140E+02  0.47000000000E+01 0.  1.
</event>
<event>
12    1  0.9749377E-001  0.4625636E+03  0.7818608E-02  0.1024040E+00
         21   -1    0    0  503  502  0.00000000000E+00  0.00000000000E+00  0.10000593922E+04  0.10000593922E+04  0.00000000000E+00 0.  1.
         21   -1    0    0  501  503 -0.00000000000E+00 -0.00000000000E+00 -0.22743215344E+03  0.22743215344E+03  0.00000000000E+00 0. -1.
          6    2    1    2  501    0 -0.34671767000E+03  0.27999924262E+03  0.34023071969E+03  0.58670928777E+03  0.17279504382E+03 0.  0.
         24    2    3    3    0    0 -0.31601968885E+03  0.29548836274E+03  0.29602782247E+03  0.53051084462E+03  0.81409264424E+02 0.  0.
         -6    2    1    2    0  502  0.34671767000E+03 -0.27999924262E+03  0.43239651902E+03  0.64078225783E+03  0.15818480879E+03 0.  0.
        -24    2    5    5    0    0  0.16441106118E+03 -0.15344072429E+03  0.14994012895E+03  0.28153796703E+03  0.78781544164E+02 0.  0.
         14    1    4    4    0    0 -0.29326705095E+03  0.29673400529E+03  0.27657463962E+03  0.50054986200E+03  0.00000000000E+00 0. -1.
        -13    1    4    4    0    0 -0.22752637897E+02 -0.12456425531E+01  0.19453182852E+02  0.29960982623E+02  0.00000000000E+00 0.  1.
          5    1    3    3  501    0 -0.30697981152E+02 -0.15489120114E+02  0.44202897224E+02  0.56198443143E+02  0.47000000000E+01 0. -1.
         13    1    6    6    0    0  0.52225822671E+02 -0.24941179127E+02  0.76235289480E+02  0.95715298318E+02  0.00000000000E+00 0. -1.
        -14    1    6    6    0    0  0.11218523851E+03 -0.12849954516E+03  0.73704839471E+02  0.18582266871E+03  0.00000000000E+00 0.  1.
         -5    1    5    5    0  502  0.18230660881E+03 -0.12655851834E+03  0.28245639007E+03  0.35924429080E+03  0.47000000000E+01 0.  1.
</event>
<event>
12    1  0.9749377E-001  0.4250867E+03  0.7818608E-02  0.1035423E+00
         21   -1    0    0  501  502  0.00000000000E+00  0.00000000000E+00  0.45504303156E+03  0.45504303156E+03  0.00000000000E+00 0.  1.
         21   -1    0    0  502  503 -0.00000000000E+00 -0.00000000000E+00 -0.44118278197E+03  0.44118278197E+03  0.00000000000E+00 0. -1.
         -6    2    1    2    0  503 -0.21541922256E+03  0.35045292812E+03  0.47736512294E+02  0.44860999208E+03  0.17248030065E+03 0.  0.
        -24    2    3    3    0    0 -0.14508447930E+03  0.15070905687E+03 -0.21878585009E+02  0.22564599951E+03  0.81698951370E+02 0.  0.
          6    2    1    2  501    0  0.21541922256E+03 -0.35045292812E+03 -0.33876262703E+02  0.44761582144E+03  0.17317513145E+03 0.  0.
         24    2    5    5    0    0  0.18452967548E+03 -0.20059904612E+03  0.24911088708E+02  0.28363901590E+03  0.74426813481E+02 0.  0.
         12    1    6    6    0    0  0.16110811832E+03 -0.14994511703E+03 -0.53526006895E+01  0.22015452356E+03  0.00000000000E+00 0. -1.
        -11    1    6    6    0    0  0.23421557156E+02 -0.50653929087E+02  0.30263689397E+02  0.63484492339E+02  0.00000000000E+00 0.  1.
          5    1    5    5  501    0  0.30889547086E+02 -0.14985388200E+03 -0.58787351410E+02  0.16397680554E+03  0.47000000000E+01 0. -1.
         11    1    4    4    0    0 -0.89109085745E+02  0.98713826129E+02  0.25975407843E+02  0.13549749239E+03  0.00000000000E+00 0. -1.
        -12    1    4    4    0    0 -0.55975393555E+02  0.51995230739E+02 -0.47853992852E+02  0.90148507115E+02  0.00000000000E+00 0.  1.
         -5    1    3    3    0  503 -0.70334743263E+02  0.19974387125E+03  0.69615097303E+02  0.22296399258E+03  0.47000000000E+01 0.  1.
</event>
<event>
12    1  0.9749377E-001  0.3270474E+03  0.7818608E-02  0.1072451E+00
         21   -1    0    0  501  502  0.00000000000E+00  0.00000000000E+00  0.56849032094E+03  0.56849032094E+03  0.00000000000E+00 0.  1.
         21   -1    0    0  502  503 -0.00000000000E+00 -0.00000000000E+00 -0.23677205285E+03  0.23677205285E+03  0.00000000000E+00 0. -1.
         -6    2    1    2    0  503 -0.20004049928E+03 -0.21484448405E+03  0.31446767498E+03  0.46579370369E+03  0.17860431716E+03 0.  0.
        -24    2    3    3    0    0 -0.19961531989E+03 -0.13529371701E+03  0.28210610336E+03  0.37978285186E+03  0.80625648610E+02 0.  0.
          6    2    1    2  501    0  0.20004049928E+03  0.21484448405E+03  0.17250593108E+02  0.33946867010E+03  0.16960849428E+03 0.  0.
         24    2    5    5    0    0  0.14502071648E+03  0.22689726671E+03 -0.48681223188E+00  0.28023057747E+03  0.77560052318E+02 0.  0.
         12    1    6    6    0    0  0.86954854867E+02  0.79310788931E+02  0.22954330303E+02  0.11990933786E+03  0.00000000000E+00 0. -1.
        -11    1    6    6    0    0  0.58065861611E+02  0.14758647778E+03 -0.23441142535E+02  0.16032123962E+03  0.00000000000E+00 0.  1.
          5    1    5    5  501    0  0.55019782802E+02 -0.12052782658E+02  0.17737405340E+02  0.59238092623E+02  0.47000000000E+01 0. -1.
         11    1    4    4    0    0 -0.12283583043E+03 -0.91820873943E+02  0.11815769075E+03  0.19359998453E+03  0.00000000000E+00 0. -1.
        -12    1    4    4    0    0 -0.76779489463E+02 -0.43472843064E+02  0.16394841261E+03  0.18618286732E+03  0.00000000000E+00 0.  1.
         -5    1    3    3    0  503 -0.42517939217E+00 -0.79550767048E+02  0.32361571619E+02  0.86010851833E+02  0.47000000000E+01 0.  1.
</event>
<event>
12    1  0.9749377E-001  0.2343297E+03  0.7818608E-02  0.1123629E+00
         21   -1    0    0  501  502  0.00000000000E+00  0.00000000000E+00  0.39631026066E+03  0.39631026066E+03  0.00000000000E+00 0. -1.
         21   -1    0    0  502  503 -0.00000000000E+00 -0.00000000000E+00 -0.17857322521E+03  0.17857322521E+03  0.00000000000E+00 0.  1.
         -6    2    1    2    0  503  0.18715939455E+03 -0.72982580438E+02  0.77609035513E+02  0.27601404299E+03  0.17264267584E+03 0.  0.
        -24    2    3    3    0    0  0.18974731627E+03 -0.42937094610E+02  0.10574904707E+03  0.23450044513E+03  0.77200775141E+02 0.  0.
          6    2    1    2  501    0 -0.18715939455E+03  0.72982580438E+02  0.14012799993E+03  0.29886944288E+03  0.17126585037E+03 0.  0.
         24    2    5    5    0    0 -0.20114417162E+03  0.50013270784E+02  0.15201589179E+03  0.26909403107E+03  0.79639570382E+02 0.  0.
         12    1    6    6    0    0 -0.71442573163E+02  0.48197531303E+02  0.30687313693E+02  0.91480896943E+02  0.00000000000E+00 0. -1.
        -11    1    6    6    0    0 -0.12970159845E+03  0.18157394818E+01  0.12132857809E+03  0.17761313413E+03  0.00000000000E+00 0.  1.
          5    1    5    5  501    0  0.13984777065E+02  0.22969309653E+02 -0.11887891857E+02  0.29775411807E+02  0.47000000000E+01 0. -1.
         13    1    4    4    0    0  0.40534767226E+02 -0.14475805206E+02  0.63711970855E+02  0.76888435546E+02  0.00000000000E+00 0. -1.
        -14    1    4    4    0    0  0.14921254905E+03 -0.28461289404E+02  0.42037076215E+02  0.15761200958E+03  0.00000000000E+00 0.  1.
         -5    1    3    3    0  503 -0.25879217213E+01 -0.30045485828E+02 -0.28140011557E+02  0.41513597867E+02  0.47000000000E+01 0.  1.
</event>
<event>
12    1  0.9749377E-001  0.3753075E+03  0.7818608E-02  0.1052682E+00
         21   -1    0    0  501  502  0.00000000000E+00  0.00000000000E+00  0.36559121348E+03  0.36559121348E+03  0.00000000000E+00 0. -1.
         21   -1    0    0  502  503 -0.00000000000E+00 -0.00000000000E+00 -0.44452301607E+03  0.44452301607E+03  0.00000000000E+00 0.  1.
         -6    2    1    2    0  503 -0.56901368293E+02  0.35521597666E+03  0.44442764863E+02  0.40077631585E+03  0.17096882819E+03 0.  0.
        -24    2    3    3    0    0 -0.26047707562E+02  0.70014458605E+02  0.32311081822E+02  0.11361586939E+03  0.79272014511E+02 0.  0.
          6    2    1    2  501    0  0.56901368293E+02 -0.35521597666E+03 -0.12337456746E+03  0.40933791369E+03  0.15139381725E+03 0.  0.
         24    2    5    5    0    0  0.86962455853E+02 -0.23186879549E+03 -0.11104657063E+03  0.28169675421E+03  0.75472600550E+02 0.  0.
         14    1    6    6    0    0  0.76311146254E+02 -0.16387813412E+03 -0.44954938600E+02  0.18628038112E+03  0.00000000000E+00 0. -1.
        -13    1    6    6    0    0  0.10651309598E+02 -0.67990661373E+02 -0.66091632026E+02  0.95416373092E+02  0.00000000000E+00 0.  1.
          5    1    5    5  501    0 -0.30061087559E+02 -0.12334718117E+03 -0.12327996830E+02  0.12764115948E+03  0.47000000000E+01 0. -1.
         13    1    4    4    0    0 -0.35429517045E+02  0.69090389446E+02 -0.23652440503E+01  0.77680930551E+02  0.00000000000E+00 0. -1.
        -14    1    4    4    0    0  0.93818094837E+01  0.92406915933E+00  0.34676325873E+02  0.35934938834E+02  0.00000000000E+00 0.  1.
         -5    1    3    3    0  503 -0.30853660731E+02  0.28520151806E+03  0.12131683041E+02  0.28716044647E+03  0.47000000000E+01 0.  1.
</event>
<event>
12    1  0.9749377E-001  0.5210450E+03  0.7818608E-02  0.1008427E+00
         21   -1    0    0  501  502  0.00000000000E+00  0.00000000000E+00  0.26986079383E+03  0.26986079383E+03  0.00000000000E+00 0. -1.
         21   -1    0    0  502  503 -0.00000000000E+00 -0.00000000000E+00 -0.11611144653E+04  0.11611144653E+04  0.00000000000E+00 0.  1.
         -6    2    1    2    0  503  0.77687273314E+02  0.49679922953E+03 -0.67104346206E+03  0.85585933139E+03  0.17132156974E+03 0.  0.
        -24    2    3    3    0    0  0.10069039530E+03  0.47364558802E+03 -0.58287562951E+03  0.76172702326E+03  0.77494256186E+02 0.  0.
          6    2    1    2  501    0 -0.77687273314E+02 -0.49679922953E+03 -0.22021020941E+03  0.57511592773E+03  0.17152552900E+03 0.  0.
         24    2    5    5    0    0 -0.17050251412E+02 -0.39776565438E+03 -0.12509832740E+03  0.42493983931E+03  0.80100241192E+02 0.  0.
         14    1    6    6    0    0  0.12756890754E+02 -0.85259420315E+01 -0.83921377824E+01  0.17488794292E+02  0.00000000000E+00 0. -1.
        -13    1    6    6    0    0 -0.29807142165E+02 -0.38923971235E+03 -0.11670618962E+03  0.40745104502E+03  0.00000000000E+00 0.  1.
          5    1    5    5  501    0 -0.60637021903E+02 -0.99033575152E+02 -0.95111882010E+02  0.15017608842E+03  0.47000000000E+01 0. -1.
         11    1    4    4    0    0  0.38809977838E+02  0.30640216694E+03 -0.41048368043E+03  0.51369772647E+03  0.00000000000E+00 0. -1.
        -12    1    4    4    0    0  0.61880417463E+02  0.16724342108E+03 -0.17239194908E+03  0.24802929680E+03  0.00000000000E+00 0.  1.
         -5    1    3    3    0  503 -0.23003121986E+02  0.23153641514E+02 -0.88167832550E+02  0.94132308125E+02  0.47000000000E+01 0.  1.
</event>
<event>
12    1  0.9749377E-001  0.3516706E+03  0.7818608E-02  0.1061931E+00
         21   -1    0    0  501  502  0.00000000000E+00  0.00000000000E+00  0.12589127025E+04  0.12589127025E+04  0.00000000000E+00 0. -1.
         21   -1    0    0  502  503 -0.00000000000E+00 -0.00000000000E+00 -0.11147647730E+03  0.11147647730E+03  0.00000000000E+00 0.  1.
         -6    2    1    2    0  503  0.18366718695E+03  0.27760033850E+03  0.56432896036E+03  0.67718529718E+03  0.17122256776E+03 0.  0.
        -24    2    3    3    0    0  0.66600597499E+02  0.44545165738E+02  0.14963514150E+03  0.18727474073E+03  0.79128007463E+02 0.  0.
          6    2    1    2  501    0 -0.18366718695E+03 -0.27760033850E+03  0.58310726487E+03  0.69320388265E+03  0.17240057158E+03 0.  0.
         24    2    5    5    0    0 -0.64823944298E+02 -0.10399366635E+03  0.34812024491E+03  0.37776136413E+03  0.80617100663E+02 0.  0.
         12    1    6    6    0    0 -0.22291048640E+01  0.11912534532E+02  0.13476817704E+02  0.18124624214E+02  0.00000000000E+00 0. -1.
        -11    1    6    6    0    0 -0.62594839434E+02 -0.11590620088E+03  0.33464342721E+03  0.35963673992E+03  0.00000000000E+00 0.  1.
          5    1    5    5  501    0 -0.11884324265E+03 -0.17360667215E+03  0.23498701996E+03  0.31544251852E+03  0.47000000000E+01 0. -1.
         13    1    4    4    0    0  0.53899643329E+02  0.50784080242E+02  0.15528371600E+03  0.17203844574E+03  0.00000000000E+00 0. -1.
        -14    1    4    4    0    0  0.12700954170E+02 -0.62389145045E+01 -0.56485745031E+01  0.15236294988E+02  0.00000000000E+00 0.  1.
         -5    1    3    3    0  503  0.11706658945E+03  0.23305517276E+03  0.41469381886E+03  0.48991055645E+03  0.47000000000E+01 0.  1.
</event>
<event>
12    1  0.9749377E-001  0.4026703E+03  0.7818608E-02  0.1042859E+00
         21   -1    0    0  503  502  0.00000000000E+00  0.00000000000E+00  0.15591910598E+03  0.15591910598E+03  0.00000000000E+00 0. -1.
         21   -1    0    0  501  503 -0.00000000000E+00 -0.00000000000E+00 -0.11463954585E+04  0.11463954585E+04  0.00000000000E+00 0.  1.
          6    2    1    2  501    0  0.33790833548E+02  0.38369293790E+03 -0.53632451796E+03  0.68237070233E+03  0.17211535609E+03 0.  0.
         24    2    3    3    0    0 -0.26972800218E+02  0.17307241432E+03 -0.32686023014E+03  0.37913712567E+03  0.78903469271E+02 0.  0.
         -6    2    1    2    0  502 -0.33790833548E+02 -0.38369293790E+03 -0.45415183455E+03  0.61994386215E+03  0.17237868884E+03 0.  0.
        -24    2    5    5    0    0  0.15471794031E+02 -0.32838784755E+03 -0.41779951121E+03  0.53730585088E+03  0.77866494663E+02 0.  0.
         12    1    4    4    0    0 -0.29232788987E+02  0.40698991259E+02 -0.43431571637E+02  0.66311878697E+02  0.00000000000E+00 0. -1.
        -11    1    4    4    0    0  0.22599887693E+01  0.13237342306E+03 -0.28342865850E+03  0.31282524697E+03  0.00000000000E+00 0.  1.
          5    1    3    3  501    0  0.60763633766E+02  0.21062052358E+03 -0.20946428782E+03  0.30323357666E+03  0.47000000000E+01 0. -1.
         13    1    6    6    0    0  0.18650990001E+02 -0.18420333957E+03 -0.17418562328E+03  0.25420338529E+03  0.00000000000E+00 0. -1.
        -14    1    6    6    0    0 -0.31791959709E+01 -0.14418450798E+03 -0.24361388793E+03  0.28310246559E+03  0.00000000000E+00 0.  1.
         -5    1    5    5    0  502 -0.49262627578E+02 -0.55305090347E+02 -0.36352323337E+02  0.82638011268E+02  0.47000000000E+01 0.  1.
</event>
<event>
12    1  0.9749377E-001  0.9902286E+03  0.7818608E-02  0.9319327E-01
         21   -1    0    0  501  502  0.00000000000E+00  0.00000000000E+00  0.76365565901E+03  0.76365565901E+03  0.00000000000E+00 0. -1.
         21   -1    0    0  502  503 -0.00000000000E+00 -0.00000000000E+00 -0.13294768909E+04  0.13294768909E+04  0.00000000000E+00 0.  1.
         -6    2    1    2    0  503 -0.95886837694E+03  0.19945375637E+03 -0.11415016497E+03  0.10010395140E+04  0.17274108720E+03 0.  0.
        -24    2    3    3    0    0 -0.56920831350E+03  0.18313190601E+03 -0.46934129950E+02  0.60525996273E+03  0.81249066311E+02 0.  0.
          6    2    1    2  501    0  0.95886837694E+03 -0.19945375637E+03 -0.45167106688E+03  0.10920930359E+04  0.17161025942E+03 0.  0.
         24    2    5    5    0    0  0.34115595305E+03 -0.11304090949E+03 -0.18336246316E+03  0.41308831162E+03  0.88625779452E+02 0.  0.
         12    1    6    6    0    0  0.22051703355E+03 -0.10008417361E+03 -0.84194638335E+02  0.25638514196E+03  0.00000000000E+00 0. -1.
        -11    1    6    6    0    0  0.12063891950E+03 -0.12956735887E+02 -0.99167824821E+02  0.15670316966E+03  0.00000000000E+00 0.  1.
          5    1    5    5  501    0  0.61771242389E+03 -0.86412846876E+02 -0.26830860373E+03  0.67900472426E+03  0.47000000000E+01 0. -1.
         11    1    4    4    0    0 -0.28315268849E+03  0.49475229439E+02 -0.31147807347E+02  0.28912528293E+03  0.00000000000E+00 0. -1.
        -12    1    4    4    0    0 -0.28605562501E+03  0.13365667657E+03 -0.15786322603E+02  0.31613467980E+03  0.00000000000E+00 0.  1.
         -5    1    3    3    0  503 -0.38966006344E+03  0.16321850357E+02 -0.67216035021E+02  0.39577955127E+03  0.47000000000E+01 0.  1.
</event>
<event>
12    1  0.9749377E-001  0.4754179E+03  0.7818608E-02  0.1020402E+00
         21   -1    0    0  501  502  0.00000000000E+00  0.00000000000E+00  0.16839583686E+04  0.16839583686E+04  0.00000000000E+00 0.  1.
         21   -1    0    0  502  503 -0.00000000000E+00 -0.00000000000E+00 -0.14076964585E+03  0.14076964585E+03  0.00000000000E+00 0. -1.
         -6    2    1    2    0  503 -0.23950203123E+03 -0.38507964205E+03  0.68062452775E+03  0.83512071780E+03  0.16890622203E+03 0.  0.
        -24    2    3    3    0    0 -0.23391915909E+03 -0.26170967039E+03  0.49692348631E+03  0.61371728288E+03  0.80658709961E+02 0.  0.
          6    2    1    2  501    0  0.23950203123E+03  0.38507964205E+03  0.86256419503E+03  0.98960729668E+03  0.17221514861E+03 0.  0.
         24    2    5    5    0    0  0.19960450953E+03  0.21880235711E+03  0.63379316261E+03  0.70395326993E+03  0.78358162125E+02 0.  0.
         14    1    6    6    0    0  0.11570161910E+03  0.91045345634E+02  0.38213458964E+03  0.40951552379E+03  0.00000000000E+00 0. -1.
        -13    1    6    6    0    0  0.83902890431E+02  0.12775701147E+03  0.25165857297E+03  0.29443774614E+03  0.00000000000E+00 0.  1.
          5    1    5    5  501    0  0.39897521698E+02  0.16627728494E+03  0.22877103242E+03  0.28565402675E+03  0.47000000000E+01 0. -1.
         13    1    4    4    0    0 -0.15076478760E+03 -0.20885293202E+03  0.39810160104E+03  0.47416711520E+03  0.00000000000E+00 0. -1.
        -14    1    4    4    0    0 -0.83154371491E+02 -0.52856738375E+02  0.98821885275E+02  0.13955016768E+03  0.00000000000E+00 0.  1.
         -5    1    3    3    0  503 -0.55828721377E+01 -0.12336997165E+03  0.18370104144E+03  0.22140343492E+03  0.47000000000E+01 0.  1.
</event>
<event>
12    1  0.9749377E-001  0.4468685E+03  0.7818608E-02  0.1028660E+00
         21   -1    0    0  501  502  0.00000000000E+00  0.00000000000E+00  0.43099176517E+03  0.43099176517E+03  0.00000000000E+00 0.  1.
         21   -1    0    0  502  503 -0.00000000000E+00 -0.00000000000E+00 -0.49419339540E+03  0.49419339540E+03  0.00000000000E+00 0. -1.
         -6    2    1    2    0  503 -0.21419666277E+03  0.35942996396E+03 -0.11735338658E+03  0.46827585705E+03  0.17447163558E+03 0.  0.
        -24    2    3    3    0    0 -0.20781962445E+03  0.22589201094E+03 -0.60114592432E+02  0.32277183281E+03  0.79697521424E+02 0.  0.
          6    2    1    2  501    0  0.21419666277E+03 -0.35942996396E+03  0.54151756350E+02  0.45690930351E+03  0.17539552328E+03 0.  0.
         24    2    5    5    0    0  0.23265739131E+03 -0.34255250754E+03  0.31545886002E+02  0.42286870411E+03  0.79693888348E+02 0.  0.
         12    1    6    6    0    0  0.18921253503E+03 -0.22405709692E+03  0.20980843404E+01  0.29327012812E+03  0.00000000000E+00 0. -1.
        -11    1    6    6    0    0  0.43444856282E+02 -0.11849541062E+03  0.29447801661E+02  0.12959857598E+03  0.00000000000E+00 0.  1.
          5    1    5    5  501    0 -0.18460728540E+02 -0.16877456424E+02  0.22605870348E+02  0.34040599404E+02  0.47000000000E+01 0. -1.
         13    1    4    4    0    0 -0.34646406974E+02  0.60248773733E+01 -0.18759286565E+02  0.39857038224E+02  0.00000000000E+00 0. -1.
        -14    1    4    4    0    0 -0.17317321748E+03  0.21986713357E+03 -0.41355305867E+02  0.28291479459E+03  0.00000000000E+00 0.  1.
         -5    1    3    3    0  503 -0.63770383216E+01  0.13353795302E+03 -0.57238794153E+02  0.14550402424E+03  0.47000000000E+01 0.  1.
</event>
<event>
12    1  0.9749377E-001  0.2834848E+03  0.7818608E-02  0.1093801E+00
         21   -1    0    0  503  502  0.00000000000E+00  0.00000000000E+00  0.12103914548E+03  0.12103914548E+03  0.00000000000E+00 0.  1.
         21   -1    0    0  501  503 -0.00000000000E+00 -0.00000000000E+00 -0.77206015840E+03  0.77206015840E+03  0.00000000000E+00 0. -1.
          6    2    1    2  501    0  0.12741532388E+03 -0.21230456130E+03 -0.25601961807E+03  0.39574586252E+03  0.17251333675E+03 0.  0.
         24    2    3    3    0    0  0.72663702622E+02 -0.18916368307E+03 -0.12371661446E+03  0.25062723849E+03  0.80282621464E+02 0.  0.
         -6    2    1    2    0  502 -0.12741532388E+03  0.21230456130E+03 -0.39500139484E+03  0.49735344136E+03  0.17328142483E+03 0.  0.
        -24    2    5    5    0    0 -0.64635034627E+02  0.20570104416E+03 -0.35203414199E+03  0.42084693199E+03  0.81813787143E+02 0.  0.
         12    1    4    4    0    0  0.73266200922E+02 -0.89754305924E+02 -0.46892418194E+02  0.12499068171E+03  0.00000000000E+00 0. -1.
        -11    1    4    4    0    0 -0.60249829985E+00 -0.99409377144E+02 -0.76824196271E+02  0.12563655679E+03  0.00000000000E+00 0.  1.
          5    1    3    3  501    0  0.54751621260E+02 -0.23140878230E+02 -0.13230300361E+03  0.14511862403E+03  0.47000000000E+01 0. -1.
         11    1    6    6    0    0 -0.81109176887E+02  0.14806494403E+03 -0.28188592159E+03  0.32857510407E+03  0.00000000000E+00 0. -1.
        -12    1    6    6    0    0  0.16474142260E+02  0.57636100134E+02 -0.70148220408E+02  0.92271827923E+02  0.00000000000E+00 0.  1.
         -5    1    5    5    0  502 -0.62780289255E+02  0.66035171342E+01 -0.42967252850E+02  0.76506509363E+02  0.47000000000E+01 0.  1.
</event>
<event>
12    1  0.9749377E-001  0.2448714E+03  0.7818608E-02  0.1116590E+00
         21   -1    0    0  503  502  0.00000000000E+00  0.00000000000E+00  0.31105872270E+03  0.31105872270E+03  0.00000000000E+00 0.  1.
         21   -1    0    0  501  503 -0.00000000000E+00 -0.00000000000E+00 -0.77333556212E+03  0.77333556212E+03  0.00000000000E+00 0. -1.
          6    2    1    2  501    0 -0.39288525233E+02  0.21430152039E+03 -0.67748680593E+03  0.73203755020E+03  0.17152805262E+03 0.  0.
         24    2    3    3    0    0 -0.42601146099E+02  0.92746835596E+02 -0.19437548074E+03  0.23383562589E+03  0.80501175538E+02 0.  0.
         -6    2    1    2    0  502  0.39288525233E+02 -0.21430152039E+03  0.21520996650E+03  0.35235673463E+03  0.17427337403E+03 0.  0.
        -24    2    5    5    0    0  0.79050272385E+00 -0.11841955906E+03  0.40503172610E+02  0.14932963772E+03  0.81455612740E+02 0.  0.
         14    1    4    4    0    0 -0.33586840082E+01  0.89483366915E+02 -0.14816906257E+03  0.17312603737E+03  0.00000000000E+00 0. -1.
        -13    1    4    4    0    0 -0.39242462091E+02  0.32634686816E+01 -0.46206418166E+02  0.60709588522E+02  0.00000000000E+00 0.  1.
          5    1    3    3  501    0  0.33126208657E+01  0.12155468480E+03 -0.48311132519E+03  0.49820192430E+03  0.47000000000E+01 0. -1.
         13    1    6    6    0    0  0.21460269780E+02 -0.72919069476E+01  0.27368915342E+02  0.35535511999E+02  0.00000000000E+00 0. -1.
        -14    1    6    6    0    0 -0.20669767057E+02 -0.11112765211E+03  0.13134257268E+02  0.11379412572E+03  0.00000000000E+00 0.  1.
         -5    1    5    5    0  502  0.38498022509E+02 -0.95881961334E+02  0.17470679389E+03  0.20302709691E+03  0.47000000000E+01 0.  1.
</event>
<event>
12    1  0.9749377E-001  0.1977349E+03  0.7818608E-02  0.1151664E+00
         21   -1    0    0  503  502  0.00000000000E+00  0.00000000000E+00  0.15499325764E+03  0.15499325764E+03  0.00000000000E+00 0.  1.
         21   -1    0    0  501  503 -0.00000000000E+00 -0.00000000000E+00 -0.41317266503E+03  0.41317266503E+03  0.00000000000E+00 0. -1.
          6    2    1    2  501    0  0.14018332920E+03 -0.21390706022E+02  0.61348242476E+01  0.22265782551E+03  0.17155157563E+03 0.  0.
         24    2    3    3    0    0  0.11275469629E+03 -0.57129003543E+02 -0.42002052958E+02  0.15656089094E+03  0.82278767224E+02 0.  0.
         -6    2    1    2    0  502 -0.14018332920E+03  0.21390706022E+02 -0.26431423163E+03  0.34550809717E+03  0.17147858197E+03 0.  0.
        -24    2    5    5    0    0 -0.88841191245E+01  0.19430188369E+02 -0.15250699833E+03  0.17297904566E+03  0.78783919077E+02 0.  0.
         12    1    4    4    0    0  0.42085796034E+02 -0.51640937596E+02  0.11693983008E+02  0.67636897491E+02  0.00000000000E+00 0. -1.
        -11    1    4    4    0    0  0.70668900259E+02 -0.54880659472E+01 -0.53696035966E+02  0.88923993445E+02  0.00000000000E+00 0.  1.
          5    1    3    3  501    0  0.27428632903E+02  0.35738297522E+02  0.48136877206E+02  0.66096934572E+02  0.47000000000E+01 0. -1.
         11    1    6    6    0    0 -0.27528950370E+02  0.43102490266E+02 -0.10355593693E+03  0.11549675255E+03  0.00000000000E+00 0. -1.
        -12    1    6    6    0    0  0.18644831246E+02 -0.23672301897E+02 -0.48951061393E+02  0.57482293107E+02  0.00000000000E+00 0.  1.
         -5    1    5    5    0  502 -0.13129921007E+03  0.19605176527E+01 -0.11180723330E+03  0.17252905151E+03  0.47000000000E+01 0.  1.
</event>
<event>
12    1  0.9749377E-001  0.2303449E+03  0.7818608E-02  0.1126397E+00
         21   -1    0    0  501  502  0.00000000000E+00  0.00000000000E+00  0.19123634876E+04  0.19123634876E+04  0.00000000000E+00 0.  1.
         21   -1    0    0  502  503 -0.00000000000E+00 -0.00000000000E+00 -0.80098568298E+02  0.80098568298E+02  0.00000000000E+00 0. -1.
         -6    2    1    2    0  503  0.13757681783E+03 -0.15602144770E+03  0.19015397281E+03  0.32838846523E+03  0.16855378302E+03 0.  0.
        -24    2    3    3    0    0  0.90850972267E+02 -0.83124605619E+02  0.19233966833E+03  0.24164677113E+03  0.78962109670E+02 0.  0.
          6    2    1    2  501    0 -0.13757681783E+03  0.15602144770E+03  0.16421109465E+04  0.16640735907E+04  0.17129647293E+03 0.  0.
         24    2    5    5    0    0 -0.13449398389E+03  0.11866428246E+03  0.15741605499E+04  0.15863277995E+04  0.79275511428E+02 0.  0.
         12    1    6    6    0    0 -0.96064449329E+02  0.39205926720E+02  0.10083770826E+04  0.10137010525E+04  0.00000000000E+00 0. -1.
        -11    1    6    6    0    0 -0.38429534560E+02  0.79458355737E+02  0.56578346732E+03  0.57262674695E+03  0.00000000000E+00 0.  1.
          5    1    5    5  501    0 -0.30828339447E+01  0.37357165244E+02  0.67950396562E+02  0.77745791225E+02  0.47000000000E+01 0. -1.
         13    1    4    4    0    0  0.47780251728E+02 -0.88697131613E+02  0.15210050234E+03  0.18244093955E+03  0.00000000000E+00 0. -1.
        -14    1    4    4    0    0  0.43070720539E+02  0.55725259938E+01  0.40239165991E+02  0.59205831582E+02  0.00000000000E+00 0.  1.
         -5    1    3    3    0  503  0.46725845566E+02 -0.72896842082E+02 -0.21856955208E+01  0.86741694094E+02  0.47000000000E+01 0.  1.
</event>
<event>
12    1  0.9749377E-001  0.3471355E+03  0.7818608E-02  0.1063797E+00
         21   -1    0    0  501  502  0.00000000000E+00  0.00000000000E+00  0.31953791716E+03  0.31953791716E+03  0.00000000000E+00 0.  1.
         21   -1    0    0  502  503 -0.00000000000E+00 -0.00000000000E+00 -0.42696557559E+03  0.42696557559E+03  0.00000000000E+00 0. -1.
         -6    2    1    2    0  503  0.32673340014E+03 -0.15643941079E+02 -0.52298688808E+02  0.37301898025E+03  0.17148923907E+03 0.  0.
        -24    2    3    3    0    0  0.24995078449E+03  0.49238702874E+02 -0.57390460836E+02  0.27225517874E+03  0.77002420921E+02 0.  0.
          6    2    1    2  501    0 -0.32673340014E+03  0.15643941079E+02 -0.55128969629E+02  0.37348451250E+03  0.17161593786E+03 0.  0.
         24    2    5    5    0    0 -0.17477526803E+03 -0.34782502323E+02 -0.80938179052E+02  0.21124300918E+03  0.79475803345E+02 0.  0.
         14    1    6    6    0    0 -0.15939311149E+03 -0.29548688684E+02 -0.39671132716E+02  0.16689244371E+03  0.00000000000E+00 0. -1.
        -13    1    6    6    0    0 -0.15382156536E+02 -0.52338136391E+01 -0.41267046336E+02  0.44350565478E+02  0.00000000000E+00 0.  1.
          5    1    5    5  501    0 -0.15195813211E+03  0.50426443402E+02  0.25809209423E+02  0.16224150332E+03  0.47000000000E+01 0. -1.
         11    1    4    4    0    0  0.73977206729E+02  0.83944248643E+01 -0.53288033012E+02  0.91557129414E+02  0.00000000000E+00 0. -1.
        -12    1    4    4    0    0  0.17597357776E+03  0.40844278010E+02 -0.41024278243E+01  0.18069804932E+03  0.00000000000E+00 0.  1.
         -5    1    3    3    0  503  0.76782615654E+02 -0.64882643953E+02  0.50917720285E+01  0.10076380151E+03  0.47000000000E+01 0.  1.
</event>
<event>
12    1  0.9749377E-001  0.2093635E+03  0.7818608E-02  0.1142071E+00
         21   -1    0    0  501  502  0.00000000000E+00  0.00000000000E+00  0.49389610096E+02  0.49389610096E+02  0.00000000000E+00 0.  1.
         21   -1    0    0  502  503 -0.00000000000E+00 -0.00000000000E+00 -0.14301757716E+04  0.14301757716E+04  0.00000000000E+00 0. -1.
         -6    2    1    2    0  503  0.10613658268E+03  0.13301466782E+03 -0.38763284182E+03  0.45749979985E+03  0.17346172709E+03 0.  0.
        -24    2    3    3    0    0  0.54034829726E+02 -0.43967627662E+01 -0.15042444407E+03  0.17841843558E+03  0.79161420119E+02 0.  0.
          6    2    1    2  501    0 -0.10613658268E+03 -0.13301466782E+03 -0.99315331968E+03  0.10220655818E+04  0.17119188404E+03 0.  0.
         24    2    5    5    0    0 -0.76750739177E+02 -0.11800449699E+03 -0.96477297564E+03  0.97828925314E+03  0.80294651223E+02 0.  0.
         12    1    6    6    0    0 -0.37604678368E+02 -0.90093886647E+02 -0.81887467073E+03  0.82467372130E+03  0.00000000000E+00 0. -1.
        -11    1    6    6    0    0 -0.39146060809E+02 -0.27910610341E+02 -0.14589830492E+03  0.15361553184E+03  0.00000000000E+00 0.  1.
          5    1    5    5  501    0 -0.29385843503E+02 -0.15010170834E+02 -0.28380344042E+02  0.43776328704E+02  0.47000000000E+01 0. -1.
         13    1    4    4    0    0 -0.82648774843E+01  0.23120633666E+02 -0.21614865026E+02  0.32711990020E+02  0.00000000000E+00 0. -1.
        -14    1    4    4    0    0  0.62299707211E+02 -0.27517396432E+02 -0.12880957904E+03  0.14570644556E+03  0.00000000000E+00 0.  1.
         -5    1    3    3    0  503  0.52101752953E+02  0.13741143059E+03 -0.23720839775E+03  0.27908136427E+03  0.47000000000E+01 0.  1.
</event>
<event>
12    1  0.9749377E-001  0.1717455E+03  0.7818608E-02  0.1176040E+00
         21   -1    0    0  501  502  0.00000000000E+00  0.00000000000E+00  0.20144207903E+03  0.20144207903E+03  0.00000000000E+00 0. -1.
         21   -1    0    0  502  503 -0.00000000000E+00 -0.00000000000E+00 -0.36365769721E+03  0.36365769721E+03  0.00000000000E+00 0.  1.
         -6    2    1    2    0  503  0.59255521076E+02 -0.13669936787E+03  0.73328187719E+02  0.23865404036E+03  0.17140826676E+03 0.  0.
        -24    2    3    3    0    0  0.51725136651E+02 -0.15283195856E+03  0.18931942289E+02  0.18122574865E+03  0.80319712494E+02 0.  0.
          6    2    1    2  501    0 -0.59255521076E+02  0.13669936787E+03 -0.23554380590E+03  0.32644573588E+03  0.16996470229E+03 0.  0.
         24    2    5    5    0    0 -0.33831214270E+02  0.12467108522E+03 -0.25089384514E+03  0.29406072910E+03  0.82683494849E+02 0.  0.
         14    1    6    6    0    0 -0.24671696945E+01  0.68362593546E+02 -0.20168118397E+03  0.21296673706E+03  0.00000000000E+00 0. -1.
        -13    1    6    6    0    0 -0.31364044576E+02  0.56308491671E+02 -0.49212661164E+02  0.81093992042E+02  0.00000000000E+00 0.  1.
          5    1    5    5  501    0 -0.25424306806E+02  0.12028282649E+02  0.15350039237E+02  0.32385006787E+02  0.47000000000E+01 0. -1.
         13    1    4    4    0    0  0.52559766469E+02 -0.12179602409E+03  0.45626500036E+02  0.14028035515E+03  0.00000000000E+00 0. -1.
        -14    1    4    4    0    0 -0.83462981862E+00 -0.31035934470E+02 -0.26694557747E+02  0.40945393497E+02  0.00000000000E+00 0.  1.
         -5    1    3    3    0  503  0.75303844254E+01  0.16132590695E+02  0.54396245430E+02  0.57428291713E+02  0.47000000000E+01 0.  1.
</event>
<event>
12    1  0.9749377E-001  0.3905458E+03  0.7818608E-02  0.1047103E+00
         21   -1    0    0  503  502  0.00000000000E+00  0.00000000000E+00  0.45907700982E+03  0.45907700982E+03  0.00000000000E+00 0. -1.
         21   -1    0    0  501  503 -0.00000000000E+00 -0.00000000000E+00 -0.37410354759E+03  0.37410354759E+03  0.00000000000E+00 0.  1.
          6    2    1    2  501    0 -0.87613353139E+02  0.35475909076E+03  0.13524048706E+03  0.42599951948E+03  0.17220769185E+03 0.  0.
         24    2    3    3    0    0 -0.65191567474E+02  0.19747386474E+03  0.75152589258E+01  0.22209463308E+03  0.77612365004E+02 0.  0.
         -6    2    1    2    0  502  0.87613353139E+02 -0.35475909076E+03 -0.50267024827E+02  0.40718103793E+03  0.17245147647E+03 0.  0.
        -24    2    5    5    0    0  0.64735445790E+02 -0.83516745211E+02 -0.29692572434E+02  0.13415868215E+03  0.77143881583E+02 0.  0.
         14    1    4    4    0    0 -0.48526032879E+02  0.19760401460E+03  0.14571837212E+02  0.20399622765E+03  0.00000000000E+00 0. -1.
        -13    1    4    4    0    0 -0.16665534594E+02 -0.13014985847E+00 -0.70565782860E+01  0.18098405438E+02  0.00000000000E+00 0.  1.
          5    1    3    3  501    0 -0.22421785666E+02  0.15728522602E+03  0.12772522813E+03  0.20390488640E+03  0.47000000000E+01 0. -1.
         11    1    6    6    0    0  0.55197094588E+02 -0.97966065843E+02 -0.19670004406E+02  0.11415331086E+03  0.00000000000E+00 0. -1.
        -12    1    6    6    0    0  0.95383512017E+01  0.14449320632E+02 -0.10022568028E+02  0.20005371285E+02  0.00000000000E+00 0.  1.
         -5    1    5    5    0  502  0.22877907350E+02 -0.27124234555E+03 -0.20574452392E+02  0.27302235578E+03  0.47000000000E+01 0.  1.
</event>
<event>
12    1  0.9749377E-001  0.7934283E+03  0.7818608E-02  0.9569578E-01
         21   -1    0    0  503  502  0.00000000000E+00  0.00000000000E+00  0.45628430783E+03  0.45628430783E+03  0.00000000000E+00 0. -1.
         21   -1    0    0  501  503 -0.00000000000E+00 -0.00000000000E+00 -0.14299004412E+04  0.14299004412E+04  0.00000000000E+00 0.  1.
          6    2    1    2  501    0 -0.61529405410E+03 -0.48537613225E+03 -0.38910739980E+03  0.89350485411E+03  0.18102373595E+03 0.  0.
         24    2    3    3    0    0 -0.28407209802E+03 -0.20845133764E+03 -0.25175701301E+03  0.44042368610E+03  0.80265264204E+02 0.  0.
         -6    2    1    2    0  502  0.61529405410E+03  0.48537613225E+03 -0.58450873352E+03  0.99267989487E+03  0.17200625379E+03 0.  0.
        -24    2    5    5    0    0  0.51848694764E+03  0.33280068869E+03 -0.45884225153E+03  0.77253213418E+03  0.81759851319E+02 0.  0.
         12    1    4    4    0    0 -0.18701544814E+03 -0.11658280969E+03 -0.11256346673E+03  0.24746083205E+03  0.00000000000E+00 0. -1.
        -11    1    4    4    0    0 -0.97056649877E+02 -0.91868527950E+02 -0.13919354629E+03  0.19296285404E+03  0.00000000000E+00 0.  1.
          5    1    3    3  501    0 -0.33122195608E+03 -0.27692479461E+03 -0.13735038679E+03  0.45308116801E+03  0.47000000000E+01 0. -1.
         11    1    6    6    0    0  0.99300604927E+02  0.31828826295E+02 -0.95571732577E+02  0.14144836652E+03  0.00000000000E+00 0. -1.
        -12    1    6    6    0    0  0.41918634271E+03  0.30097186239E+03 -0.36327051895E+03  0.63108376766E+03  0.00000000000E+00 0.  1.
         -5    1    5    5    0  502  0.96807106459E+02  0.15257544356E+03 -0.12566648200E+03  0.22014776069E+03  0.47000000000E+01 0.  1.
</event>
<event>
12    1  0.9749377E-001  0.4533516E+03  0.7818608E-02  0.1026727E+00
         21   -1    0    0  503  502  0.00000000000E+00  0.00000000000E+00  0.72928775432E+03  0.72928775432E+03  0.00000000000E+00 0. -1.
         21   -1    0    0  501  503 -0.00000000000E+00 -0.00000000000E+00 -0.32033298660E+03  0.32033298660E+03  0.00000000000E+00 0.  1.
          6    2    1    2  501    0 -0.42676869754E+03  0.11306718333E+03  0.30726090300E+03  0.56496851917E+03  0.17281335595E+03 0.  0.
         24    2    3    3    0    0 -0.10244626115E+03  0.40199976949E+02  0.45501102009E+02  0.14184329430E+03  0.77057739925E+02 0.  0.
         -6    2    1    2    0  502  0.42676869754E+03 -0.11306718333E+03  0.10169386473E+03  0.48465222175E+03  0.17213490286E+03 0.  0.
        -24    2    5    5    0    0  0.38290868601E+03 -0.10401507764E+03  0.37899434812E+02  0.40656598406E+03  0.80133226793E+02 0.  0.
         14    1    4    4    0    0  0.16387178583E+01 -0.91178931459E+01 -0.10305842108E+02  0.13857552208E+02  0.00000000000E+00 0. -1.
        -13    1    4    4    0    0 -0.10408497901E+03  0.49317870095E+02  0.55806944117E+02  0.12798574209E+03  0.00000000000E+00 0.  1.
          5    1    3    3  501    0 -0.32432243638E+03  0.72867206384E+02  0.26175980099E+03  0.42312522487E+03  0.47000000000E+01 0. -1.
         11    1    6    6    0    0  0.86409321521E+02 -0.59630119256E+02  0.10743687154E+02  0.10553553327E+03  0.00000000000E+00 0. -1.
        -12    1    6    6    0    0  0.29649936449E+03 -0.44384958383E+02  0.27155747657E+02  0.30103045080E+03  0.00000000000E+00 0.  1.
         -5    1    5    5    0  502  0.43860011523E+02 -0.90521056945E+01  0.63794429916E+02  0.78086237690E+02  0.47000000000E+01 0.  1.
</event>
<event>
12    1  0.9749377E-001  0.1652265E+03  0.7818608E-02  0.1182919E+00
         21   -1    0    0  503  502  0.00000000000E+00  0.00000000000E+00  0.70671268574E+03  0.70671268574E+03  0.00000000000E+00 0.  1.
         21   -1    0    0  501  503 -0.00000000000E+00 -0.00000000000E+00 -0.58707046138E+03  0.58707046138E+03  0.00000000000E+00 0. -1.
          6    2    1    2  501    0  0.13019283295E+02  0.11932087032E+03  0.67194439029E+03  0.70408671787E+03  0.17269010049E+03 0.  0.
         24    2    3    3    0    0  0.64144263593E+02  0.10886018146E+03  0.39358091508E+03  0.42083505600E+03  0.78937836193E+02 0.  0.
         -6    2    1    2    0  502 -0.13019283295E+02 -0.11932087032E+03 -0.55230216593E+03  0.58969642925E+03  0.16821778844E+03 0.  0.
        -24    2    5    5    0    0  0.24738997429E+02 -0.96332800746E+02 -0.22108189165E+03  0.25550621515E+03  0.80710573483E+02 0.  0.
         12    1    4    4    0    0 -0.66156218246E+01  0.48749937129E+01  0.62611347244E+00  0.82416038432E+01  0.00000000000E+00 0. -1.
        -11    1    4    4    0    0  0.70759885417E+02  0.10398518775E+03  0.39295480161E+03  0.41259345216E+03  0.00000000000E+00 0.  1.
          5    1    3    3  501    0 -0.51124980297E+02  0.10460688862E+02  0.27836347520E+03  0.28325166187E+03  0.47000000000E+01 0. -1.
         13    1    6    6    0    0  0.62745260837E+01 -0.34928318118E+02 -0.16960821565E+03  0.17328099694E+03  0.00000000000E+00 0. -1.
        -14    1    6    6    0    0  0.18464471345E+02 -0.61404482628E+02 -0.51473675996E+02  0.82225218208E+02  0.00000000000E+00 0.  1.
         -5    1    5    5    0  502 -0.37758280724E+02 -0.22988069575E+02 -0.33122027428E+03  0.33419021410E+03  0.47000000000E+01 0.  1.
</event>
<event>
12    1  0.9749377E-001  0.1443978E+04  0.7818608E-02  0.8922586E-01
         21   -1    0    0  503  502  0.00000000000E+00  0.00000000000E+00  0.77754781604E+03  0.77754781604E+03  0.00000000000E+00 0.  1.
         21   -1    0    0  501  503 -0.00000000000E+00 -0.00000000000E+00 -0.35429887859E+04  0.35429887859E+04  0.00000000000E+00 0. -1.
          6    2    1    2  501    0  0.10188029655E+04 -0.10120425717E+04 -0.32319741982E+03  0.14821350947E+04  0.17343072711E+03 0.  0.
         24    2    3    3    0    0  0.65114859461E+03 -0.55259254944E+03 -0.17750101425E+03  0.87590610161E+03  0.79698624869E+02 0.  0.
         -6    2    1    2    0  502 -0.10188029655E+04  0.10120425717E+04 -0.24422435500E+04  0.28384015072E+04  0.17256856344E+03 0.  0.
        -24    2    5    5    0    0 -0.33475535028E+03  0.40578641838E+03 -0.91266930789E+03  0.10565240941E+04  0.80957605419E+02 0.  0.
         12    1    4    4    0    0  0.45209027997E+03 -0.33416538026E+03 -0.11329781623E+03  0.57348802758E+03  0.00000000000E+00 0. -1.
        -11    1    4    4    0    0  0.19905831464E+03 -0.21842716918E+03 -0.64203198019E+02  0.30241807403E+03  0.00000000000E+00 0.  1.
          5    1    3    3  501    0  0.36765437093E+03 -0.45945002229E+03 -0.14569640557E+03  0.60622899307E+03  0.47000000000E+01 0. -1.
         11    1    6    6    0    0 -0.28848109602E+03  0.37036568128E+03 -0.76234900221E+03  0.89530334625E+03  0.00000000000E+00 0. -1.
        -12    1    6    6    0    0 -0.46274254259E+02  0.35420737092E+02 -0.15032030568E+03  0.16122074781E+03  0.00000000000E+00 0.  1.
         -5    1    5    5    0  502 -0.68404761526E+03  0.60625615336E+03 -0.15295742421E+04  0.17818774132E+04  0.47000000000E+01 0.  1.
</event>
<event>
12    1  0.9749377E-001  0.2728118E+03  0.7818608E-02  0.1099681E+00
         21   -1    0    0  501  502  0.00000000000E+00  0.00000000000E+00  0.16703157757E+03  0.16703157757E+03  0.00000000000E+00 0.  1.
         21   -1    0    0  502  503 -0.00000000000E+00 -0.00000000000E+00 -0.67388879819E+03  0.67388879819E+03  0.00000000000E+00 0. -1.
         -6    2    1    2    0  503  0.13480879403E+03 -0.19413046347E+03 -0.46747512488E+03  0.55079115010E+03  0.17022881910E+03 0.  0.
        -24    2    3    3    0    0  0.71478698280E+02 -0.18598682047E+03 -0.41741473219E+03  0.46951905855E+03  0.80701833884E+02 0.  0.
          6    2    1    2  501    0 -0.13480879403E+03  0.19413046347E+03 -0.39382095746E+02  0.29012922567E+03  0.16359697529E+03 0.  0.
         24    2    5    5    0    0 -0.15516453013E+03  0.18745130717E+03 -0.18049923567E+02  0.25953316888E+03  0.88417430614E+02 0.  0.
         12    1    6    6    0    0 -0.37844642307E+02  0.35607093483E+00 -0.64553097129E+01  0.38392899882E+02  0.00000000000E+00 0. -1.
        -11    1    6    6    0    0 -0.11731988782E+03  0.18709523624E+03 -0.11594613854E+02  0.22114026900E+03  0.00000000000E+00 0.  1.
          5    1    5    5  501    0  0.20355736099E+02  0.66791562944E+01 -0.21332172179E+02  0.30596056786E+02  0.47000000000E+01 0. -1.
         11    1    4    4    0    0  0.36218839612E+01 -0.38105850753E+02 -0.16369415425E+03  0.16810993439E+03  0.00000000000E+00 0. -1.
        -12    1    4    4    0    0  0.67856814319E+02 -0.14788096972E+03 -0.25372057794E+03  0.30140912416E+03  0.00000000000E+00 0.  1.
         -5    1    3    3    0  503  0.63330095750E+02 -0.81436429936E+01 -0.50060392685E+02  0.81272091549E+02  0.47000000000E+01 0.  1.
</event>
<event>
12    1  0.9749377E-001  0.3488865E+03  0.7818608E-02  0.1063073E+00
         21   -1    0    0  501  502  0.00000000000E+00  0.00000000000E+00  0.19925216188E+04  0.19925216188E+04  0.00000000000E+00 0. -1.
         21   -1    0    0  502  503 -0.00000000000E+00 -0.00000000000E+00 -0.73515137595E+02  0.73515137595E+02  0.00000000000E+00 0.  1.
         -6    2    1    2    0  503  0.32915561459E+03 -0.20024871543E+02  0.72213810757E+03  0.81273732700E+03  0.17410945468E+03 0.  0.
        -24    2    3    3    0    0  0.24373523869E+03 -0.15622561114E+02  0.65396402739E+03  0.70325757470E+03  0.85154778267E+02 0.  0.
          6    2    1    2  501    0 -0.32915561459E+03  0.20024871543E+02  0.11968683736E+04  0.12532994294E+04  0.17181717553E+03 0.  0.
         24    2    5    5    0    0 -0.10754727833E+03  0.50677285278E+02  0.36681139474E+03  0.39360965780E+03  0.79014929490E+02 0.  0.
         12    1    6    6    0    0 -0.18089873212E+02 -0.13524523487E+02  0.21561367329E+02  0.31225771559E+02  0.00000000000E+00 0. -1.
        -11    1    6    6    0    0 -0.89457405123E+02  0.64201808765E+02  0.34525002741E+03  0.36238388624E+03  0.00000000000E+00 0.  1.
          5    1    5    5  501    0 -0.22160833625E+03 -0.30652413735E+02  0.83005697890E+03  0.85968977160E+03  0.47000000000E+01 0. -1.
         11    1    4    4    0    0  0.36539722006E+02  0.25303912040E+02  0.15952005437E+03  0.16559615634E+03  0.00000000000E+00 0. -1.
        -12    1    4    4    0    0  0.20719551668E+03 -0.40926473154E+02  0.49444397302E+03  0.53766141836E+03  0.00000000000E+00 0.  1.
         -5    1    3    3    0  503  0.85420375898E+02 -0.44023104290E+01  0.68174080178E+02  0.10947975230E+03  0.47000000000E+01 0.  1.
</event>
<event>
12    1  0.9749377E-001  0.2721242E+03  0.7818608E-02  0.1100070E+00
         21   -1    0    0  501  502  0.00000000000E+00  0.00000000000E+00  0.48387828111E+03  0.48387828111E+03  0.00000000000E+00 0. -1.
         21   -1    0    0  502  503 -0.00000000000E+00 -0.00000000000E+00 -0.32227682552E+03  0.32227682552E+03  0.00000000000E+00 0.  1.
         -6    2    1    2    0  503  0.22361076098E+03  0.75929090700E+02  0.35204205897E+03  0.45749741618E+03  0.17205602369E+03 0.  0.
        -24    2    3    3    0    0  0.21388537303E+03  0.11178008847E+03  0.31125447817E+03  0.40212961001E+03  0.81161148948E+02 0.  0.
          6    2    1    2  501    0 -0.22361076098E+03 -0.75929090700E+02 -0.19044060338E+03  0.34865769044E+03  0.17183585904E+03 0.  0.
         24    2    5    5    0    0 -0.96357070981E+02 -0.26019582461E+02 -0.16629761880E+03  0.20977128242E+03  0.79921143061E+02 0.  0.
         12    1    6    6    0    0 -0.78915171036E+02  0.17405165002E+02 -0.98840765436E+02  0.12767161353E+03  0.00000000000E+00 0. -1.
        -11    1    6    6    0    0 -0.17441899945E+02 -0.43424747463E+02 -0.67456853368E+02  0.82099668892E+02  0.00000000000E+00 0.  1.
          5    1    5    5  501    0 -0.12725369000E+03 -0.49909508238E+02 -0.24142984573E+02  0.13888640802E+03  0.47000000000E+01 0. -1.
         11    1    4    4    0    0  0.20146239066E+03  0.98543603739E+02  0.31166716549E+03  0.38397182024E+03  0.00000000000E+00 0. -1.
        -12    1    4    4    0    0  0.12422982365E+02  0.13236484728E+02 -0.41268732557E+00  0.18157789779E+02  0.00000000000E+00 0.  1.
         -5    1    3    3    0  503  0.97253879498E+01 -0.35850997768E+02  0.40787580801E+02  0.55367806163E+02  0.47000000000E+01 0.  1.
</event>
<event>
12    1  0.9749377E-001  0.4219793E+03  0.7818608E-02  0.1036424E+00
         21   -1    0    0  503  502  0.00000000000E+00  0.00000000000E+00  0.74396596170E+03  0.74396596170E+03  0.00000000000E+00 0.  1.
         21   -1    0    0  501  503 -0.00000000000E+00 -0.00000000000E+00 -0.27408188573E+03  0.27408188573E+03  0.00000000000E+00 0. -1.
          6    2    1    2  501    0 -0.33825331894E+03 -0.21199814314E+03  0.97242087903E+02  0.44544142462E+03  0.17205673088E+03 0.  0.
         24    2    3    3    0    0 -0.11863984640E+03 -0.13580134034E+03  0.96432878495E+01  0.19698283683E+03  0.78688168189E+02 0.  0.
         -6    2    1    2    0  502  0.33825331894E+03  0.21199814314E+03  0.37264198807E+03  0.57260642282E+03  0.17221365715E+03 0.  0.
        -24    2    5    5    0    0  0.29698520336E+03  0.13631600596E+03  0.34588252917E+03  0.48222389192E+03  0.78248919800E+02 0.  0.
         12    1    4    4    0    0 -0.44367454363E+02 -0.97150079527E+02  0.29763992260E+02  0.11087156621E+03  0.00000000000E+00 0. -1.
        -11    1    4    4    0    0 -0.74272392040E+02 -0.38651260809E+02 -0.20120704411E+02  0.86111270618E+02  0.00000000000E+00 0.  1.
          5    1    3    3  501    0 -0.21961347254E+03 -0.76196802804E+02  0.87598800054E+02  0.24845858779E+03  0.47000000000E+01 0. -1.
         11    1    6    6    0    0  0.16325940271E+03  0.11374825273E+03  0.22715137219E+03  0.30197689227E+03  0.00000000000E+00 0. -1.
        -12    1    6    6    0    0  0.13372580065E+03  0.22567753232E+02  0.11873115698E+03  0.18024699965E+03  0.00000000000E+00 0.  1.
         -5    1    5    5    0  502  0.41268115578E+02  0.75682137180E+02  0.26759458896E+02  0.90382530900E+02  0.47000000000E+01 0.  1.
</event>
<event>
12    1  0.9749377E-001  0.2837027E+03  0.7818608E-02  0.1093684E+00
         21   -1    0    0  501  502  0.00000000000E+00  0.00000000000E+00  0.56467882428E+03  0.56467882428E+03  0.00000000000E+00 0.  1.
         21   -1    0    0  502  503 -0.00000000000E+00 -0.00000000000E+00 -0.19368174746E+03  0.19368174746E+03  0.00000000000E+00 0. -1.
         -6    2    1    2    0  503 -0.20662899446E+03  0.14751653919E+03  0.32781143109E+03  0.44891429629E+03  0.17206696481E+03 0.  0.
        -24    2    3    3    0    0 -0.11979075065E+03  0.14621616725E+03  0.16006375555E+03  0.25995942283E+03  0.78927208064E+02 0.  0.
          6    2    1    2  501    0  0.20662899446E+03 -0.14751653919E+03  0.43185645737E+02  0.30944627544E+03  0.17156726581E+03 0.  0.
         24    2    5    5    0    0  0.12043462973E+03 -0.11590970929E+03 -0.35315922731E+02  0.18856184112E+03  0.79804716550E+02 0.  0.
         12    1    6    6    0    0  0.17139373319E+01 -0.46879950532E+02 -0.17550772482E+02  0.50086894071E+02  0.00000000000E+00 0. -1.
        -11    1    6    6    0    0  0.11872069240E+03 -0.69029758760E+02 -0.17765150250E+02  0.13847494705E+03  0.00000000000E+00 0.  1.
          5    1    5    5  501    0  0.86194364733E+02 -0.31606829900E+02  0.78501568468E+02  0.12088443432E+03  0.47000000000E+01 0. -1.
         13    1    4    4    0    0 -0.46881513303E+02  0.11640895355E+03  0.10772228566E+03  0.16538745897E+03  0.00000000000E+00 0. -1.
        -14    1    4    4    0    0 -0.72909237346E+02  0.29807213701E+02  0.52341469885E+02  0.94571963862E+02  0.00000000000E+00 0.  1.
         -5    1    3    3    0  503 -0.86838243814E+02  0.13003719378E+01  0.16774767554E+03  0.18895487346E+03  0.47000000000E+01 0.  1.
</event>
<event>
12    1  0.9749377E-001  0.1654157E+04  0.7818608E-02  0.8787951E-01
         21   -1    0    0  501  502  0.00000000000E+00  0.00000000000E+00  0.22852322132E+04  0.22852322132E+04  0.00000000000E+00 0.  1.
         21   -1    0    0  502  503 -0.00000000000E+00 -0.00000000000E+00 -0.12399503972E+04  0.12399503972E+04  0.00000000000E+00 0. -1.
         -6    2    1    2    0  503  0.71239335716E+03 -0.14876467922E+04  0.82549479154E+03  0.18523598415E+04  0.17087439243E+03 0.  0.
        -24    2    3    3    0    0  0.28419280552E+03 -0.49931657944E+03  0.32496593585E+03  0.66462942294E+03  0.77761257437E+02 0.  0.
          6    2    1    2  501    0 -0.71239335716E+03  0.14876467922E+04  0.21978702453E+03  0.16728227689E+04  0.17155875533E+03 0.  0.
         24    2    5    5    0    0 -0.46477162648E+03  0.93049818799E+03  0.71253865233E+02  0.10452757364E+04  0.75397010137E+02 0.  0.
         14    1    6    6    0    0 -0.21380504950E+03  0.50317888794E+03  0.20283595215E+02  0.54709507099E+03  0.00000000000E+00 0. -1.
        -13    1    6    6    0    0 -0.25096657698E+03  0.42731930005E+03  0.50970270018E+02  0.49818066540E+03  0.00000000000E+00 0.  1.
          5    1    5    5  501    0 -0.24762173068E+03  0.55714860416E+03  0.14853315930E+03  0.62754703253E+03  0.47000000000E+01 0. -1.
         11    1    4    4    0    0  0.13242516372E+03 -0.16145956753E+03  0.10312701479E+03  0.23289653736E+03  0.00000000000E+00 0. -1.
        -12    1    4    4    0    0  0.15176764179E+03 -0.33785701191E+03  0.22183892106E+03  0.43173288558E+03  0.00000000000E+00 0.  1.
         -5    1    3    3    0  503  0.42820055164E+03 -0.98833021271E+03  0.50052885569E+03  0.11877304186E+04  0.47000000000E+01 0.  1.
</event>
<event>
12    1  0.9749377E-001  0.6267770E+03  0.7818608E-02  0.9851359E-01
         21   -1    0    0  501  502  0.00000000000E+00  0.00000000000E+00  0.55078960348E+03  0.55078960348E+03  0.00000000000E+00 0. -1.
         21   -1    0    0  502  503 -0.00000000000E+00 -0.00000000000E+00 -0.76077336310E+03  0.76077336310E+03  0.00000000000E+00 0.  1.
         -6    2    1    2    0  503  0.46164197889E+03 -0.40261604059E+03 -0.22501605253E+03  0.67496577797E+03  0.17243429101E+03 0.  0.
        -24    2    3    3    0    0  0.17801391039E+03 -0.23975826517E+03 -0.11024275473E+03  0.32832109513E+03  0.80425732967E+02 0.  0.
          6    2    1    2  501    0 -0.46164197889E+03  0.40261604059E+03  0.15032292906E+02  0.63659718862E+03  0.17267604903E+03 0.  0.
         24    2    5    5    0    0 -0.25038201180E+03  0.29429942919E+03 -0.29299774834E+02  0.39503832574E+03  0.76769109335E+02 0.  0.
         12    1    6    6    0    0 -0.67707322102E+02  0.86969006227E+02  0.25978375873E+02  0.11323765064E+03  0.00000000000E+00 0. -1.
        -11    1    6    6    0    0 -0.18267468969E+03  0.20733042296E+03 -0.55278150707E+02  0.28180067510E+03  0.00000000000E+00 0.  1.
          5    1    5    5  501    0 -0.21125996710E+03  0.10831661140E+03  0.44332067740E+02  0.24155886288E+03  0.47000000000E+01 0. -1.
         11    1    4    4    0    0  0.32079227489E+02 -0.17407037342E+02 -0.38068266688E+02  0.52737792085E+02  0.00000000000E+00 0. -1.
        -12    1    4    4    0    0  0.14593468290E+03 -0.22235122783E+03 -0.72174488045E+02  0.27558330304E+03  0.00000000000E+00 0.  1.
         -5    1    3    3    0  503  0.28362806850E+03 -0.16285777542E+03 -0.11477329779E+03  0.34664468284E+03  0.47000000000E+01 0.  1.
</event>
<event>
12    1  0.9749377E-001  0.3224910E+03  0.7818608E-02  0.1074509E+00
         21   -1    0    0  503  502  0.00000000000E+00  0.00000000000E+00  0.85353321225E+03  0.85353321225E+03  0.00000000000E+00 0. -1.
         21   -1    0    0  501  503 -0.00000000000E+00 -0.00000000000E+00 -0.16905583066E+03  0.16905583066E+03  0.00000000000E+00 0.  1.
          6    2    1    2  501    0  0.61656988447E+02  0.29985129674E+03  0.53843497188E+03  0.64267108357E+03  0.17146870950E+03 0.  0.
         24    2    3    3    0    0  0.75251664192E+02  0.29724002200E+03  0.43420637223E+03  0.53742221208E+03  0.79202378217E+02 0.  0.
         -6    2    1    2    0  502 -0.61656988447E+02 -0.29985129674E+03  0.14604240971E+03  0.37991795934E+03  0.17116333139E+03 0.  0.
        -24    2    5    5    0    0  0.26015936982E+02 -0.10262873199E+03  0.34797266805E+02  0.13705821850E+03  0.79778567764E+02 0.  0.
         14    1    4    4    0    0  0.72440098265E+02  0.27212463993E+03  0.34842113563E+03  0.44799182498E+03  0.00000000000E+00 0. -1.
        -13    1    4    4    0    0  0.28115659273E+01  0.25115382065E+02  0.85785236594E+02  0.89430387099E+02  0.00000000000E+00 0.  1.
          5    1    3    3  501    0 -0.13594675745E+02  0.26112747400E+01  0.10422859965E+03  0.10524887149E+03  0.47000000000E+01 0. -1.
         11    1    6    6    0    0  0.21292323675E+02 -0.44988804500E+02 -0.23411176539E+02  0.55003988626E+02  0.00000000000E+00 0. -1.
        -12    1    6    6    0    0  0.47236133065E+01 -0.57639927490E+02  0.58208443344E+02  0.82054229875E+02  0.00000000000E+00 0.  1.
         -5    1    5    5    0  502 -0.87672925429E+02 -0.19722256475E+03  0.11124514291E+03  0.24285974084E+03  0.47000000000E+01 0.  1.
</event>
<event>
12    1  0.9749377E-001  0.8337026E+03  0.7818608E-02  0.9512476E-01
         21   -1    0    0  501  502  0.00000000000E+00  0.00000000000E+00  0.69572815450E+03  0.69572815450E+03  0.00000000000E+00 0. -1.
         21   -1    0    0  502  503 -0.00000000000E+00 -0.00000000000E+00 -0.12158983195E+04  0.12158983195E+04  0.00000000000E+00 0.  1.
         -6    2    1    2    0  503  0.73838093380E+03  0.35286392719E+03 -0.65818602351E+03  0.10640982421E+04  0.17139682816E+03 0.  0.
        -24    2    3    3    0    0  0.17119460186E+03  0.61140664778E+02 -0.15333366181E+03  0.25064830870E+03  0.79168113623E+02 0.  0.
          6    2    1    2  501    0 -0.73838093380E+03 -0.35286392719E+03  0.13801585852E+03  0.84752823192E+03  0.17186149126E+03 0.  0.
         24    2    5    5    0    0 -0.57247060964E+03 -0.20346569157E+03  0.93545569713E+02  0.61983158053E+03  0.79495459316E+02 0.  0.
         14    1    6    6    0    0 -0.20383936055E+03 -0.54065790837E+02 -0.14376625643E+01  0.21089253548E+03  0.00000000000E+00 0. -1.
        -13    1    6    6    0    0 -0.36863124909E+03 -0.14939990073E+03  0.94983232278E+02  0.40893904504E+03  0.00000000000E+00 0.  1.
          5    1    5    5  501    0 -0.16591032416E+03 -0.14939823562E+03  0.44470288811E+02  0.22769665139E+03  0.47000000000E+01 0. -1.
         11    1    4    4    0    0  0.17415900851E+03  0.70437690112E+02 -0.14083822638E+03  0.23479402557E+03  0.00000000000E+00 0. -1.
        -12    1    4    4    0    0 -0.29644066552E+01 -0.92970253342E+01 -0.12495435426E+02  0.15854283124E+02  0.00000000000E+00 0.  1.
         -5    1    3    3    0  503  0.56718633195E+03  0.29172326241E+03 -0.50485236171E+03  0.81344993337E+03  0.47000000000E+01 0.  1.
</event>
<event>
12    1  0.9749377E-001  0.7892195E+03  0.7818608E-02  0.9575754E-01
         21   -1    0    0  501  502  0.00000000000E+00  0.00000000000E+00  0.86920622458E+03  0.86920622458E+03  0.00000000000E+00 0. -1.
         21   -1    0    0  502  503 -0.00000000000E+00 -0.00000000000E+00 -0.77959919700E+03  0.77959919700E+03  0.00000000000E+00 0.  1.
         -6    2    1    2    0  503 -0.56814000291E+03  0.53291386141E+03 -0.15749191586E+03  0.81365009874E+03  0.17447788692E+03 0.  0.
        -24    2    3    3    0    0 -0.49608335000E+03  0.38561736557E+03 -0.10985177268E+03  0.64282828468E+03  0.79758064477E+02 0.  0.
          6    2    1    2  501    0  0.56814000291E+03 -0.53291386141E+03  0.24709894344E+03  0.83515532284E+03  0.17218094793E+03 0.  0.
         24    2    5    5    0    0  0.33096942936E+03 -0.24487725246E+03  0.86128109636E+02  0.42877044567E+03  0.83189012921E+02 0.  0.
         14    1    6    6    0    0  0.24548970343E+03 -0.16601283111E+03  0.25064591551E+02  0.29741164794E+03  0.00000000000E+00 0. -1.
        -13    1    6    6    0    0  0.85479725926E+02 -0.78864421346E+02  0.61063518086E+02  0.13135879772E+03  0.00000000000E+00 0.  1.
          5    1    5    5  501    0  0.23717057355E+03 -0.28803660896E+03  0.16097083380E+03  0.40638487717E+03  0.47000000000E+01 0. -1.
         11    1    4    4    0    0 -0.10485362429E+03  0.72255724412E+02 -0.54553890741E+02  0.13853266485E+03  0.00000000000E+00 0. -1.
        -12    1    4    4    0    0 -0.39122972571E+03  0.31336164116E+03 -0.55297881940E+02  0.50429561983E+03  0.00000000000E+00 0.  1.
         -5    1    3    3    0  503 -0.72056652915E+02  0.14729649584E+03 -0.47640143182E+02  0.17082181406E+03  0.47000000000E+01 0.  1.
</event>
<event>
12    1  0.1116701E+000  0.5970164E+03  0.7818608E-02  0.9911616E-01
         21   -1    0    0  503  502  0.00000000000E+00  0.00000000000E+00  0.58252479319E+03  0.58252479319E+03  0.00000000000E+00 0.  1.
         21   -1    0    0  501  503 -0.00000000000E+00 -0.00000000000E+00 -0.67854852655E+03  0.67854852655E+03  0.00000000000E+00 0. -1.
          6    2    1    2  501    0 -0.50924495632E+03  0.29900576865E+03  0.84456717234E+02  0.62013606999E+03  0.16941349706E+03 0.  0.
         24    2    3    3    0    0 -0.37497950305E+03  0.20807503731E+03  0.12319481740E+03  0.45334776030E+03  0.80264437172E+02 0.  0.
         -6    2    1    2    0  502  0.50924495632E+03 -0.29900576865E+03 -0.18048045060E+03  0.64093724976E+03  0.17173377609E+03 0.  0.
        -24    2    5    5    0    0  0.42346350569E+03 -0.24235336408E+03 -0.88968000852E+02  0.50322533787E+03  0.85228761393E+02 0.  0.
         12    1    4    4    0    0 -0.29997069197E+03  0.20004006116E+03  0.10815489672E+03  0.37642519017E+03  0.00000000000E+00 0. -1.
        -11    1    4    4    0    0 -0.75008811076E+02  0.80349761526E+01  0.15039920679E+02  0.76922570126E+02  0.00000000000E+00 0.  1.
          5    1    3    3  501    0 -0.13426545328E+03  0.90930731339E+02 -0.38738100164E+02  0.16678830969E+03  0.47000000000E+01 0. -1.
         13    1    6    6    0    0  0.52173994602E+02 -0.54082805273E+01  0.55457364894E+01  0.52745904146E+02  0.00000000000E+00 0. -1.
        -14    1    6    6    0    0  0.37128951109E+03 -0.23694508355E+03 -0.94513737341E+02  0.45047943372E+03  0.00000000000E+00 0.  1.
         -5    1    5    5    0  502  0.85781450634E+02 -0.56652404577E+02 -0.91512449745E+02  0.13771191189E+03  0.47000000000E+01 0.  1.
</event>
<event>
12    1  0.9749377E-001  0.6216093E+03  0.7818608E-02  0.9861561E-01
         21   -1    0    0  501  502  0.00000000000E+00  0.00000000000E+00  0.55506039772E+03  0.55506039772E+03  0.00000000000E+00 0.  1.
         21   -1    0    0  502  503 -0.00000000000E+00 -0.00000000000E+00 -0.77058678671E+03  0.77058678671E+03  0.00000000000E+00 0. -1.
         -6    2    1    2    0  503  0.21822296162E+03 -0.57208013801E+03  0.47221368456E+02  0.63742657132E+03  0.17083861070E+03 0.  0.
        -24    2    3    3    0    0  0.78423186156E+02 -0.38150980101E+03  0.75092465469E+01  0.39771805418E+03  0.80145726301E+02 0.  0.
          6    2    1    2  501    0 -0.21822296162E+03  0.57208013801E+03 -0.26274775744E+03  0.68822061311E+03  0.17237831354E+03 0.  0.
         24    2    5    5    0    0 -0.66746494111E+02  0.24922224778E+03 -0.54469024693E+02  0.27520189923E+03  0.78755237451E+02 0.  0.
         12    1    6    6    0    0 -0.46797539095E+02  0.17731684952E+03 -0.98160186618E+00  0.18339094397E+03  0.00000000000E+00 0. -1.
        -11    1    6    6    0    0 -0.19948955016E+02  0.71905398259E+02 -0.53487422827E+02  0.91810955259E+02  0.00000000000E+00 0.  1.
          5    1    5    5  501    0 -0.15147646751E+03  0.32285789024E+03 -0.20827873275E+03  0.41301871388E+03  0.47000000000E+01 0. -1.
         13    1    4    4    0    0  0.27463522860E+02 -0.24339301643E+03  0.36589554986E+02  0.24765540791E+03  0.00000000000E+00 0. -1.
        -14    1    4    4    0    0  0.50959663295E+02 -0.13811678458E+03 -0.29080308439E+02  0.15006264627E+03  0.00000000000E+00 0.  1.
         -5    1    3    3    0  503  0.13979977546E+03 -0.19057033700E+03  0.39712121909E+02  0.23970851714E+03  0.47000000000E+01 0.  1.
</event>
<event>
12    1  0.2718789E+000  0.8904169E+03  0.7818608E-02  0.9437641E-01
         21   -1    0    0  503  502  0.00000000000E+00  0.00000000000E+00  0.83791049361E+03  0.83791049361E+03  0.00000000000E+00 0.  1.
         21   -1    0    0  501  503 -0.00000000000E+00 -0.00000000000E+00 -0.11000049248E+04  0.11000049248E+04  0.00000000000E+00 0. -1.
          6    2    1    2  501    0  0.54612464431E+03  0.69453622203E+03  0.20602508785E+03  0.92333303805E+03  0.17165334687E+03 0.  0.
         24    2    3    3    0    0  0.50164217612E+03  0.62121134736E+03  0.13900331761E+03  0.81438701973E+03  0.79723802227E+02 0.  0.
         -6    2    1    2    0  502 -0.54612464431E+03 -0.69453622203E+03 -0.46811951901E+03  0.10145823803E+04  0.17207216972E+03 0.  0.
        -24    2    5    5    0    0 -0.47746857903E+03 -0.66531269294E+03 -0.45192757008E+03  0.93808441199E+03  0.71739891754E+02 0.  0.
         12    1    4    4    0    0  0.13929960872E+03  0.19619581548E+03  0.81533193101E+01  0.24075642383E+03  0.00000000000E+00 0. -1.
        -11    1    4    4    0    0  0.36234256741E+03  0.42501553188E+03  0.13084999830E+03  0.57363059589E+03  0.00000000000E+00 0.  1.
          5    1    3    3  501    0  0.44482468188E+02  0.73324874669E+02  0.67021770241E+02  0.10894601832E+03  0.47000000000E+01 0. -1.
         13    1    6    6    0    0 -0.21751779245E+03 -0.25318966319E+03 -0.16115161967E+03  0.37066000607E+03  0.00000000000E+00 0. -1.
        -14    1    6    6    0    0 -0.25995078658E+03 -0.41212302975E+03 -0.29077595041E+03  0.56742440591E+03  0.00000000000E+00 0.  1.
         -5    1    5    5    0  502 -0.68656065281E+02 -0.29223529085E+02 -0.16191948929E+02  0.76497968353E+02  0.47000000000E+01 0.  1.
</event>
<event>
12    1  0.9749377E-001  0.9371997E+03  0.7818608E-02  0.9380239E-01
         21   -1    0    0  501  502  0.00000000000E+00  0.00000000000E+00  0.14849779887E+04  0.14849779887E+04  0.00000000000E+00 0.  1.
         21   -1    0    0  502  503 -0.00000000000E+00 -0.00000000000E+00 -0.61705690599E+03  0.61705690599E+03  0.00000000000E+00 0. -1.
         -6    2    1    2    0  503 -0.70167320920E+03  0.60963251201E+03  0.26941165593E+03  0.98307474526E+03  0.17278953153E+03 0.  0.
        -24    2    3    3    0    0 -0.52284446126E+03  0.43483670796E+03  0.13016729457E+03  0.69681546354E+03  0.78479120704E+02 0.  0.
          6    2    1    2  501    0  0.70167320920E+03 -0.60963251201E+03  0.59850942675E+03  0.11189601494E+04  0.17280390564E+03 0.  0.
         24    2    5    5    0    0  0.43535089550E+03 -0.31435104734E+03  0.37719534814E+03  0.66385496425E+03  0.10039969981E+03 0.  0.
         14    1    6    6    0    0  0.20350710645E+03 -0.96663347086E+02  0.19078190751E+03  0.29522310424E+03  0.00000000000E+00 0. -1.
        -13    1    6    6    0    0  0.23184378905E+03 -0.21768770026E+03  0.18641344063E+03  0.36863186001E+03  0.00000000000E+00 0.  1.
          5    1    5    5  501    0  0.26632231370E+03 -0.29528146467E+03  0.22131407861E+03  0.45510518514E+03  0.47000000000E+01 0. -1.
         11    1    4    4    0    0 -0.16130827235E+03  0.95506087299E+02  0.17014829987E+02  0.18823197359E+03  0.00000000000E+00 0. -1.
        -12    1    4    4    0    0 -0.36153618891E+03  0.33933062066E+03  0.11315246458E+03  0.50858348995E+03  0.00000000000E+00 0.  1.
         -5    1    3    3    0  503 -0.17882874794E+03  0.17479580405E+03  0.13924436136E+03  0.28625928172E+03  0.47000000000E+01 0.  1.
</event>
<event>
12    1  0.9749377E-001  0.4972547E+03  0.7818608E-02  0.1014498E+00
         21   -1    0    0  503  502  0.00000000000E+00  0.00000000000E+00  0.14756146468E+04  0.14756146468E+04  0.00000000000E+00 0. -1.
         21   -1    0    0  501  503 -0.00000000000E+00 -0.00000000000E+00 -0.18021254132E+03  0.18021254132E+03  0.00000000000E+00 0.  1.
          6    2    1    2  501    0 -0.48361125813E+03  0.17312652099E+02  0.57794066321E+03  0.77336716342E+03  0.17292131839E+03 0.  0.
         24    2    3    3    0    0 -0.30168646617E+03  0.68244040884E+02  0.40146936243E+03  0.51480412219E+03  0.90408308597E+02 0.  0.
         -6    2    1    2    0  502  0.48361125813E+03 -0.17312652099E+02  0.71746144230E+03  0.88246002473E+03  0.17264181753E+03 0.  0.
        -24    2    5    5    0    0  0.40222229488E+03  0.26269614238E+02  0.64752095696E+03  0.76654048899E+03  0.76341760716E+02 0.  0.
         12    1    4    4    0    0 -0.99262209421E+02  0.24219717897E+02  0.69742623914E+02  0.12370777884E+03  0.00000000000E+00 0. -1.
        -11    1    4    4    0    0 -0.20242425675E+03  0.44024322987E+02  0.33172673852E+03  0.39109634335E+03  0.00000000000E+00 0.  1.
          5    1    3    3  501    0 -0.18192479196E+03 -0.50931388785E+02  0.17647130078E+03  0.25856304123E+03  0.47000000000E+01 0. -1.
         11    1    6    6    0    0  0.14834897516E+03 -0.16154964972E+01  0.30615675266E+03  0.34020873807E+03  0.00000000000E+00 0. -1.
        -12    1    6    6    0    0  0.25387331972E+03  0.27885110735E+02  0.34136420430E+03  0.42633175092E+03  0.00000000000E+00 0.  1.
         -5    1    5    5    0  502  0.81388963249E+02 -0.43582266337E+02  0.69940485336E+02  0.11591953574E+03  0.47000000000E+01 0.  1.
</event>
<event>
12    1  0.9749377E-001  0.3287725E+03  0.7818608E-02  0.1071681E+00
         21   -1    0    0  501  502  0.00000000000E+00  0.00000000000E+00  0.34166528265E+03  0.34166528265E+03  0.00000000000E+00 0. -1.
         21   -1    0    0  502  503 -0.00000000000E+00 -0.00000000000E+00 -0.45228940421E+03  0.45228940421E+03  0.00000000000E+00 0.  1.
         -6    2    1    2    0  503  0.31394219329E+03 -0.13150261422E+02  0.10776433831E+03  0.37443708720E+03  0.17279279370E+03 0.  0.
        -24    2    3    3    0    0  0.23832716161E+03  0.21671964089E+02  0.19787706910E+02  0.25322570953E+03  0.80387789062E+02 0.  0.
          6    2    1    2  501    0 -0.31394219329E+03  0.13150261422E+02 -0.21838845987E+03  0.41951759967E+03  0.17195600289E+03 0.  0.
         24    2    5    5    0    0 -0.28813966029E+03 -0.12777691783E+02 -0.23373072896E+03  0.37957383060E+03  0.79110719722E+02 0.  0.
         14    1    6    6    0    0 -0.13388056446E+03 -0.10252235956E+02 -0.59532847454E+02  0.14687843207E+03  0.00000000000E+00 0. -1.
        -13    1    6    6    0    0 -0.15425909583E+03 -0.25254558270E+01 -0.17419788151E+03  0.23269539853E+03  0.00000000000E+00 0.  1.
          5    1    5    5  501    0 -0.25802532999E+02  0.25927953205E+02  0.15342269098E+02  0.39943769071E+02  0.47000000000E+01 0. -1.
         13    1    4    4    0    0  0.85738544525E+02 -0.24748748803E+02  0.27978186463E+02  0.93522069601E+02  0.00000000000E+00 0. -1.
        -14    1    4    4    0    0  0.15258861709E+03  0.46420712892E+02 -0.81904795534E+01  0.15970363993E+03  0.00000000000E+00 0.  1.
         -5    1    3    3    0  503  0.75615031674E+02 -0.34822225511E+02  0.87976631397E+02  0.12121137767E+03  0.47000000000E+01 0.  1.
</event>
<event>
12    1  0.9749377E-001  0.1100742E+04  0.7818608E-02  0.9204469E-01
         21   -1    0    0  501  502  0.00000000000E+00  0.00000000000E+00  0.83843801108E+03  0.83843801108E+03  0.00000000000E+00 0. -1.
         21   -1    0    0  502  503 -0.00000000000E+00 -0.00000000000E+00 -0.14769119415E+04  0.14769119415E+04  0.00000000000E+00 0.  1.
         -6    2    1    2    0  503  0.10838590707E+04  0.14431142284E+03 -0.43868841846E+03  0.11905145684E+04  0.17117574929E+03 0.  0.
        -24    2    3    3    0    0  0.81975903100E+03  0.15773614189E+03 -0.37424423489E+03  0.91829370796E+03  0.79492310153E+02 0.  0.
          6    2    1    2  501    0 -0.10838590707E+04 -0.14431142284E+03 -0.19978551193E+03  0.11248353841E+04  0.17252280623E+03 0.  0.
         24    2    5    5    0    0 -0.82248818261E+03 -0.16397188080E+03 -0.18314934659E+03  0.86215663212E+03  0.79979915794E+02 0.  0.
         12    1    6    6    0    0 -0.57267457047E+03 -0.98290440718E+02 -0.16079884806E+03  0.60288758814E+03  0.00000000000E+00 0. -1.
        -11    1    6    6    0    0 -0.24981361214E+03 -0.65681440081E+02 -0.22350498531E+02  0.25926904398E+03  0.00000000000E+00 0.  1.
          5    1    5    5  501    0 -0.26137088812E+03  0.19660457961E+02 -0.16636165338E+02  0.26267875201E+03  0.47000000000E+01 0. -1.
         13    1    4    4    0    0  0.38485789855E+03  0.91440963960E+02 -0.13802487444E+03  0.41896052073E+03  0.00000000000E+00 0. -1.
        -14    1    4    4    0    0  0.43490113246E+03  0.66295177931E+02 -0.23621936044E+03  0.49933318724E+03  0.00000000000E+00 0.  1.
         -5    1    3    3    0  503  0.26410003973E+03 -0.13424719052E+02 -0.64444183570E+02  0.27222086045E+03  0.47000000000E+01 0.  1.
</event>
<event>
12    1  0.9749377E-001  0.6676598E+03  0.7818608E-02  0.9774195E-01
         21   -1    0    0  503  502  0.00000000000E+00  0.00000000000E+00  0.20424602180E+04  0.20424602180E+04  0.00000000000E+00 0.  1.
         21   -1    0    0  501  503 -0.00000000000E+00 -0.00000000000E+00 -0.22840681883E+03  0.22840681883E+03  0.00000000000E+00 0. -1.
          6    2    1    2  501    0  0.36657048409E+03  0.54911053684E+03  0.95665708551E+03  0.11749826829E+04  0.17174173763E+03 0.  0.
         24    2    3    3    0    0  0.10421351711E+03  0.18663148493E+03  0.40317756311E+03  0.46323559799E+03  0.79644858813E+02 0.  0.
         -6    2    1    2    0  502 -0.36657048409E+03 -0.54911053684E+03  0.85739631362E+03  0.10958843539E+04  0.17302536507E+03 0.  0.
        -24    2    5    5    0    0 -0.22338135257E+03 -0.32322599668E+03  0.41017474206E+03  0.57477383109E+03  0.88019113167E+02 0.  0.
         12    1    4    4    0    0  0.62157666329E+02  0.69315713100E+02  0.24341803581E+03  0.26061577796E+03  0.00000000000E+00 0. -1.
        -11    1    4    4    0    0  0.42055850781E+02  0.11731577183E+03  0.15975952731E+03  0.20261982003E+03  0.00000000000E+00 0.  1.
          5    1    3    3  501    0  0.26235696698E+03  0.36247905191E+03  0.55347952240E+03  0.71174708493E+03  0.47000000000E+01 0. -1.
         13    1    6    6    0    0 -0.21246687654E+03 -0.32792073450E+03  0.39692772581E+03  0.55697917488E+03  0.00000000000E+00 0. -1.
        -14    1    6    6    0    0 -0.10914476031E+02  0.46947378143E+01  0.13247016249E+02  0.17794656211E+02  0.00000000000E+00 0.  1.
         -5    1    5    5    0  502 -0.14318913152E+03 -0.22588454016E+03  0.44722157156E+03  0.52111052277E+03  0.47000000000E+01 0.  1.
</event>
<event>
12    1  0.9749377E-001  0.3849610E+03  0.7818608E-02  0.1049115E+00
         21   -1    0    0  501  502  0.00000000000E+00  0.00000000000E+00  0.87657061278E+03  0.87657061278E+03  0.00000000000E+00 0. -1.
         21   -1    0    0  502  503 -0.00000000000E+00 -0.00000000000E+00 -0.19785430755E+03  0.19785430755E+03  0.00000000000E+00 0.  1.
         -6    2    1    2    0  503 -0.32996903647E+02  0.34805078831E+03  0.52707318252E+03  0.65516570446E+03  0.17090293644E+03 0.  0.
        -24    2    3    3    0    0 -0.45111053744E+02  0.36055307029E+03  0.49952755833E+03  0.62224289931E+03  0.74999470289E+02 0.  0.
          6    2    1    2  501    0  0.32996903647E+02 -0.34805078831E+03  0.15164312272E+03  0.41925921587E+03  0.17479847406E+03 0.  0.
         24    2    5    5    0    0 -0.48365015345E+02 -0.15354851794E+03  0.77953903528E+02  0.19586922938E+03  0.79822439648E+02 0.  0.
         12    1    6    6    0    0 -0.65501996061E+02 -0.90030236844E+02  0.64656431086E+02  0.12874940433E+03  0.00000000000E+00 0. -1.
        -11    1    6    6    0    0  0.17136980716E+02 -0.63518281094E+02  0.13297472442E+02  0.67119825049E+02  0.00000000000E+00 0.  1.
          5    1    5    5  501    0  0.81361918992E+02 -0.19450227037E+03  0.73689219190E+02  0.22338998649E+03  0.47000000000E+01 0. -1.
         11    1    4    4    0    0 -0.52854297901E+01  0.11451912312E+03  0.10427393750E+03  0.15496973695E+03  0.00000000000E+00 0. -1.
        -12    1    4    4    0    0 -0.39825623954E+02  0.24603394717E+03  0.39525362082E+03  0.46727316236E+03  0.00000000000E+00 0.  1.
         -5    1    3    3    0  503  0.12114150096E+02 -0.12502281983E+02  0.27545624190E+02  0.32922805156E+02  0.47000000000E+01 0.  1.
</event>
<event>
12    1  0.9749377E-001  0.1169161E+04  0.7818608E-02  0.9140287E-01
         21   -1    0    0  503  502  0.00000000000E+00  0.00000000000E+00  0.12419505152E+04  0.12419505152E+04  0.00000000000E+00 0. -1.
         21   -1    0    0  501  503 -0.00000000000E+00 -0.00000000000E+00 -0.17195273518E+04  0.17195273518E+04  0.00000000000E+00 0.  1.
          6    2    1    2  501    0  0.28428593415E+03 -0.11289746868E+04  0.63843869784E+03  0.13386636227E+04  0.17033492916E+03 0.  0.
         24    2    3    3    0    0  0.10225514182E+03 -0.58902155751E+03  0.38169164713E+03  0.71366303932E+03  0.78891767460E+02 0.  0.
         -6    2    1    2    0  502 -0.28428593415E+03  0.11289746868E+04 -0.11160155345E+04  0.16228142442E+04  0.18064623484E+03 0.  0.
        -24    2    5    5    0    0 -0.79533298026E+02  0.31722574039E+03 -0.25893007874E+03  0.42470007499E+03  0.79797569896E+02 0.  0.
         14    1    4    4    0    0  0.66522328703E+02 -0.52790247932E+03  0.34173545232E+03  0.63236806312E+03  0.00000000000E+00 0. -1.
        -13    1    4    4    0    0  0.35732813116E+02 -0.61119078191E+02  0.39956194808E+02  0.81294976202E+02  0.00000000000E+00 0.  1.
          5    1    3    3  501    0  0.18203079233E+03 -0.53995312933E+03  0.25674705071E+03  0.62500058342E+03  0.47000000000E+01 0. -1.
         11    1    6    6    0    0 -0.77092664509E+02  0.31667876318E+03 -0.26374560694E+03  0.41927373295E+03  0.00000000000E+00 0. -1.
        -12    1    6    6    0    0 -0.24406335179E+01  0.54697721314E+00  0.48155281994E+01  0.54263420349E+01  0.00000000000E+00 0.  1.
         -5    1    5    5    0  502 -0.20475263612E+03  0.81174894645E+03 -0.85708545574E+03  0.11981141692E+04  0.47000000000E+01 0.  1.
</event>
<event>
12    1  0.9749377E-001  0.4295993E+03  0.7818608E-02  0.1033987E+00
         21   -1    0    0  501  502  0.00000000000E+00  0.00000000000E+00  0.32725311077E+03  0.32725311077E+03  0.00000000000E+00 0.  1.
         21   -1    0    0  502  503 -0.00000000000E+00 -0.00000000000E+00 -0.63120496846E+03  0.63120496846E+03  0.00000000000E+00 0. -1.
         -6    2    1    2    0  503 -0.22252149949E+03 -0.34781340739E+03 -0.66531360504E+02  0.45211895016E+03  0.17174148908E+03 0.  0.
        -24    2    3    3    0    0 -0.74046740365E+02 -0.69557967987E+02 -0.40783460931E+02  0.13564479958E+03  0.80093634571E+02 0.  0.
          6    2    1    2  501    0  0.22252149949E+03  0.34781340739E+03 -0.23742049718E+03  0.50633912907E+03  0.17181628866E+03 0.  0.
         24    2    5    5    0    0  0.17322077645E+03  0.30804277374E+03 -0.25166420601E+03  0.44124505995E+03  0.80414815169E+02 0.  0.
         14    1    6    6    0    0  0.73163000628E+02  0.60112848730E+02 -0.74940020134E+02  0.12075754991E+03  0.00000000000E+00 0. -1.
        -13    1    6    6    0    0  0.10005777583E+03  0.24792992501E+03 -0.17672418587E+03  0.32048751004E+03  0.00000000000E+00 0.  1.
          5    1    5    5  501    0  0.49300723039E+02  0.39770633646E+02  0.14243708827E+02  0.65094069115E+02  0.47000000000E+01 0. -1.
         11    1    4    4    0    0 -0.18324230909E+02 -0.58625095475E+02 -0.48600658442E+02  0.78324346527E+02  0.00000000000E+00 0. -1.
        -12    1    4    4    0    0 -0.55722509456E+02 -0.10932872511E+02  0.78171975105E+01  0.57320453054E+02  0.00000000000E+00 0.  1.
         -5    1    3    3    0  503 -0.14847475913E+03 -0.27825543940E+03 -0.25747899573E+02  0.31647415058E+03  0.47000000000E+01 0.  1.
</event>
<event>
12    1  0.9749377E-001  0.2009059E+03  0.7818608E-02  0.1148977E+00
         21   -1    0    0  501  502  0.00000000000E+00  0.00000000000E+00  0.92472908751E+02  0.92472908751E+02  0.00000000000E+00 0.  1.
         21   -1    0    0  502  503 -0.00000000000E+00 -0.00000000000E+00 -0.10528578765E+04  0.10528578765E+04  0.00000000000E+00 0. -1.
         -6    2    1    2    0  503  0.61269953524E+02  0.14461343645E+03 -0.99822148336E+02  0.25386690871E+03  0.17267568686E+03 0.  0.
        -24    2    3    3    0    0  0.11981089271E+02  0.53278093343E+02  0.13962113301E+02  0.99787431700E+02  0.82343725851E+02 0.  0.
          6    2    1    2  501    0 -0.61269953524E+02 -0.14461343645E+03 -0.86056281943E+03  0.89146387656E+03  0.17167534424E+03 0.  0.
         24    2    5    5    0    0  0.21702952278E+02 -0.34263241475E+02 -0.48240351233E+03  0.48886206313E+03  0.68029259954E+02 0.  0.
         12    1    6    6    0    0  0.40911694724E+02 -0.38646458314E+02 -0.40925865970E+03  0.41311011370E+03  0.00000000000E+00 0. -1.
        -11    1    6    6    0    0 -0.19208742446E+02  0.43832168393E+01 -0.73144852631E+02  0.75751949431E+02  0.00000000000E+00 0.  1.
          5    1    5    5  501    0 -0.82972905802E+02 -0.11035019497E+03 -0.37815930710E+03  0.40260181343E+03  0.47000000000E+01 0. -1.
         13    1    4    4    0    0 -0.24352058735E+02  0.36245945284E+02 -0.19227965706E+02  0.47712744413E+02  0.00000000000E+00 0. -1.
        -14    1    4    4    0    0  0.36333148006E+02  0.17032148059E+02  0.33190079008E+02  0.52074687287E+02  0.00000000000E+00 0.  1.
         -5    1    3    3    0  503  0.49288864254E+02  0.91335343103E+02 -0.11378426164E+03  0.15407947701E+03  0.47000000000E+01 0.  1.
</event>
<event>
12    1  0.9749377E-001  0.2592151E+03  0.7818608E-02  0.1107616E+00
         21   -1    0    0  501  502  0.00000000000E+00  0.00000000000E+00  0.78832183681E+03  0.78832183681E+03  0.00000000000E+00 0. -1.
         21   -1    0    0  502  503 -0.00000000000E+00 -0.00000000000E+00 -0.98271711061E+02  0.98271711061E+02  0.00000000000E+00 0.  1.
         -6    2    1    2    0  503  0.87065011769E+02 -0.19588197759E+03  0.28171328558E+03  0.39425326466E+03  0.17356035265E+03 0.  0.
        -24    2    3    3    0    0  0.12371298195E+03 -0.12259758356E+03  0.19610842269E+03  0.27566170225E+03  0.84828009759E+02 0.  0.
          6    2    1    2  501    0 -0.87065011769E+02  0.19588197759E+03  0.40833684018E+03  0.49234028321E+03  0.17236564045E+03 0.  0.
         24    2    5    5    0    0 -0.10829098857E+03  0.19327358178E+03  0.40662716359E+03  0.47037761457E+03  0.82630711598E+02 0.  0.
         14    1    6    6    0    0 -0.67716876591E+02  0.17279218094E+03  0.36135593077E+03  0.40622754937E+03  0.00000000000E+00 0. -1.
        -13    1    6    6    0    0 -0.40574111981E+02  0.20481400842E+02  0.45271232819E+02  0.64150065194E+02  0.00000000000E+00 0.  1.
          5    1    5    5  501    0  0.21225976803E+02  0.26083958109E+01  0.17096765920E+01  0.21962668645E+02  0.47000000000E+01 0. -1.
         11    1    4    4    0    0  0.25718538618E+02 -0.64652666280E+02  0.12002145408E+03  0.13873197153E+03  0.00000000000E+00 0. -1.
        -12    1    4    4    0    0  0.97994443331E+02 -0.57944917284E+02  0.76086968613E+02  0.13692973072E+03  0.00000000000E+00 0.  1.
         -5    1    3    3    0  503 -0.36647970180E+02 -0.73284394025E+02  0.85604862885E+02  0.11859156241E+03  0.47000000000E+01 0.  1.
</event>
<event>
12    1  0.9749377E-001  0.5564156E+03  0.7818608E-02  0.1000020E+00
         21   -1    0    0  501  502  0.00000000000E+00  0.00000000000E+00  0.13452972492E+04  0.13452972492E+04  0.00000000000E+00 0. -1.
         21   -1    0    0  502  503 -0.00000000000E+00 -0.00000000000E+00 -0.33083186618E+03  0.33083186618E+03  0.00000000000E+00 0.  1.
         -6    2    1    2    0  503  0.49797776781E+03  0.19393153437E+03  0.55201564938E+02  0.56458079506E+03  0.17353087370E+03 0.  0.
        -24    2    3    3    0    0  0.46211840262E+03  0.21975911778E+03  0.49518413829E+02  0.51977737619E+03  0.76609135237E+02 0.  0.
          6    2    1    2  501    0 -0.49797776781E+03 -0.19393153437E+03  0.95926381806E+03  0.11115483203E+04  0.17251463255E+03 0.  0.
         24    2    5    5    0    0 -0.12229005746E+03 -0.49463860865E+02  0.20387714670E+03  0.25560248225E+03  0.79782243000E+02 0.  0.
         12    1    6    6    0    0 -0.65408136035E+02  0.13925640167E+02  0.11098699227E+03  0.12957723629E+03  0.00000000000E+00 0. -1.
        -11    1    6    6    0    0 -0.56881921428E+02 -0.63389501031E+02  0.92890154433E+02  0.12602524595E+03  0.00000000000E+00 0.  1.
          5    1    5    5  501    0 -0.37568771034E+03 -0.14446767351E+03  0.75538667136E+03  0.85594583805E+03  0.47000000000E+01 0. -1.
         13    1    4    4    0    0  0.10097851145E+03  0.69909320202E+02 -0.14162270062E+02  0.12363067063E+03  0.00000000000E+00 0. -1.
        -14    1    4    4    0    0  0.36113989117E+03  0.14984979758E+03  0.63680683891E+02  0.39614670556E+03  0.00000000000E+00 0.  1.
         -5    1    3    3    0  503  0.35859365187E+02 -0.25827583407E+02  0.56831511082E+01  0.44803418874E+02  0.47000000000E+01 0.  1.
</event>
<event>
12    1  0.9749377E-001  0.5281606E+03  0.7818608E-02  0.1006679E+00
         21   -1    0    0  503  502  0.00000000000E+00  0.00000000000E+00  0.12658077614E+04  0.12658077614E+04  0.00000000000E+00 0. -1.
         21   -1    0    0  501  503 -0.00000000000E+00 -0.00000000000E+00 -0.26717004491E+03  0.26717004491E+03  0.00000000000E+00 0.  1.
          6    2    1    2  501    0  0.13859951461E+03 -0.49002070440E+03  0.20713743640E+03  0.57610845973E+03  0.17223508248E+03 0.  0.
         24    2    3    3    0    0  0.59897038204E+02 -0.13196561268E+03  0.10178511930E+03  0.19463928770E+03  0.80756818225E+02 0.  0.
         -6    2    1    2    0  502 -0.13859951461E+03  0.49002070440E+03  0.79150028012E+03  0.95686934661E+03  0.17261557538E+03 0.  0.
        -24    2    5    5    0    0 -0.55408095441E+02  0.14936048471E+03  0.18809521217E+03  0.25895103940E+03  0.79355028420E+02 0.  0.
         12    1    4    4    0    0  0.64242909802E+02 -0.45558300407E+02  0.40054193038E+02  0.88357504354E+02  0.00000000000E+00 0. -1.
        -11    1    4    4    0    0 -0.43458715974E+01 -0.86407312271E+02  0.61730926259E+02  0.10628178334E+03  0.00000000000E+00 0.  1.
          5    1    3    3  501    0  0.78702476402E+02 -0.35805509172E+03  0.10535231710E+03  0.38146917204E+03  0.47000000000E+01 0. -1.
         11    1    6    6    0    0  0.54884042803E+01  0.84745727235E+02  0.63885664360E+02  0.10627012269E+03  0.00000000000E+00 0. -1.
        -12    1    6    6    0    0 -0.60896499721E+02  0.64614757472E+02  0.12420954781E+03  0.15268091671E+03  0.00000000000E+00 0.  1.
         -5    1    5    5    0  502 -0.83191419165E+02  0.34066021969E+03  0.60340506795E+03  0.69791830720E+03  0.47000000000E+01 0.  1.
</event>
<event>
12    1  0.9749377E-001  0.3154896E+03  0.7818608E-02  0.1077744E+00
         21   -1    0    0  503  502  0.00000000000E+00  0.00000000000E+00  0.12992958939E+03  0.12992958939E+03  0.00000000000E+00 0. -1.
         21   -1    0    0  501  503 -0.00000000000E+00 -0.00000000000E+00 -0.92660859795E+03  0.92660859795E+03  0.00000000000E+00 0.  1.
          6    2    1    2  501    0  0.14727021231E+03  0.24262040022E+03 -0.24303494297E+03  0.41096522140E+03  0.17109428880E+03 0.  0.
         24    2    3    3    0    0  0.50571341900E+02  0.32556090044E+02 -0.81761543285E+02  0.12899202162E+03  0.79602965149E+02 0.  0.
         -6    2    1    2    0  502 -0.14727021231E+03 -0.24262040022E+03 -0.55364406559E+03  0.64557296594E+03  0.17230649711E+03 0.  0.
        -24    2    5    5    0    0 -0.64474926296E+02 -0.60140184733E+02 -0.12686093029E+03  0.17406472316E+03  0.80193355544E+02 0.  0.
         12    1    4    4    0    0  0.57744868430E+02  0.28398800181E+01 -0.21987615390E+02  0.61854587373E+02  0.00000000000E+00 0. -1.
        -11    1    4    4    0    0 -0.71735265303E+01  0.29716210026E+02 -0.59773927895E+02  0.67137434247E+02  0.00000000000E+00 0.  1.
          5    1    3    3  501    0  0.96698870412E+02  0.21006431018E+03 -0.16127339968E+03  0.28197319978E+03  0.47000000000E+01 0. -1.
         13    1    6    6    0    0  0.73177145186E+01 -0.33482002265E+02 -0.12603793194E+02  0.36516421296E+02  0.00000000000E+00 0. -1.
        -14    1    6    6    0    0 -0.71792640815E+02 -0.26658182469E+02 -0.11425713709E+03  0.13754830186E+03  0.00000000000E+00 0.  1.
         -5    1    5    5    0  502 -0.82795286015E+02 -0.18248021549E+03 -0.42678313530E+03  0.47150824278E+03  0.47000000000E+01 0.  1.
</event>
<event>
12    1  0.9749377E-001  0.5583419E+03  0.7818608E-02  0.9995813E-01
         21   -1    0    0  501  502  0.00000000000E+00  0.00000000000E+00  0.10762437296E+04  0.10762437296E+04  0.00000000000E+00 0. -1.
         21   -1    0    0  502  503 -0.00000000000E+00 -0.00000000000E+00 -0.29604319650E+03  0.29604319650E+03  0.00000000000E+00 0.  1.
         -6    2    1    2    0  503  0.10941860991E+03  0.52175619945E+03  0.30266141757E+03  0.63622871348E+03  0.17023829861E+03 0.  0.
        -24    2    3    3    0    0 -0.17491101056E+01  0.16048137002E+03  0.69117140792E+02  0.19188337080E+03  0.79276221695E+02 0.  0.
          6    2    1    2  501    0 -0.10941860991E+03 -0.52175619945E+03  0.47753911557E+03  0.73605821266E+03  0.17186076245E+03 0.  0.
         24    2    5    5    0    0 -0.14164190792E+03 -0.48121322347E+03  0.43820236604E+03  0.67085435005E+03  0.79972800763E+02 0.  0.
         12    1    6    6    0    0 -0.69759122514E+02 -0.11316355269E+03  0.11207818120E+03  0.17387881853E+03  0.00000000000E+00 0. -1.
        -11    1    6    6    0    0 -0.71882785403E+02 -0.36804967078E+03  0.32612418484E+03  0.49697553153E+03  0.00000000000E+00 0.  1.
          5    1    5    5  501    0  0.32223298006E+02 -0.40542975977E+02  0.39336749533E+02  0.65203862610E+02  0.47000000000E+01 0. -1.
         13    1    4    4    0    0  0.37384632627E+02  0.99188276012E+02  0.35677981455E+02  0.11184293995E+03  0.00000000000E+00 0. -1.
        -14    1    4    4    0    0 -0.39133742732E+02  0.61293094012E+02  0.33439159337E+02  0.80040430852E+02  0.00000000000E+00 0.  1.
         -5    1    3    3    0  503  0.11116772002E+03  0.36127482942E+03  0.23354427678E+03  0.44434534268E+03  0.47000000000E+01 0.  1.
</event>
<event>
12    1  0.9749377E-001  0.3879797E+03  0.7818608E-02  0.1048023E+00
         21   -1    0    0  503  502  0.00000000000E+00  0.00000000000E+00  0.70857835349E+03  0.70857835349E+03  0.00000000000E+00 0. -1.
         21   -1    0    0  501  503 -0.00000000000E+00 -0.00000000000E+00 -0.35223651458E+03  0.35223651458E+03  0.00000000000E+00 0.  1.
          6    2    1    2  501    0  0.56864431645E+02  0.38021167906E+03  0.46287945398E+03  0.62587181992E+03  0.17223141866E+03 0.  0.
         24    2    3    3    0    0  0.49707357309E+02  0.17738765655E+03  0.13785371661E+03  0.24265826618E+03  0.77085568644E+02 0.  0.
         -6    2    1    2    0  502 -0.56864431645E+02 -0.38021167906E+03 -0.10653761507E+03  0.43494304815E+03  0.17329370221E+03 0.  0.
        -24    2    5    5    0    0 -0.38093309021E+02 -0.29402510552E+03 -0.14380398691E+03  0.33907150402E+03  0.79925185749E+02 0.  0.
         14    1    4    4    0    0  0.45169978761E+02  0.91070159837E+02  0.11451394107E+03  0.15312590797E+03  0.00000000000E+00 0. -1.
        -13    1    4    4    0    0  0.45373785477E+01  0.86317496718E+02  0.23339775547E+02  0.89532358208E+02  0.00000000000E+00 0.  1.
          5    1    3    3  501    0  0.71570743362E+01  0.20282402251E+03  0.32502573736E+03  0.38321355374E+03  0.47000000000E+01 0. -1.
         11    1    6    6    0    0 -0.40555069131E+01 -0.46167042133E+02  0.71216123897E+01  0.46888807605E+02  0.00000000000E+00 0. -1.
        -12    1    6    6    0    0 -0.34037802108E+02 -0.24785806339E+03 -0.15092559930E+03  0.29218269641E+03  0.00000000000E+00 0.  1.
         -5    1    5    5    0  502 -0.18771122624E+02 -0.86186573544E+02  0.37266371845E+02  0.95871544133E+02  0.47000000000E+01 0.  1.
</event>
<event>
12    1  0.9749377E-001  0.4810592E+03  0.7818608E-02  0.1018844E+00
         21   -1    0    0  503  502  0.00000000000E+00  0.00000000000E+00  0.44381930105E+03  0.44381930105E+03  0.00000000000E+00 0.  1.
         21   -1    0    0  501  503 -0.00000000000E+00 -0.00000000000E+00 -0.59999797521E+03  0.59999797521E+03  0.00000000000E+00 0. -1.
          6    2    1    2  501    0  0.32400668815E+03 -0.34773402950E+03  0.28188154058E+02  0.50622024426E+03  0.17194497501E+03 0.  0.
         24    2    3    3    0    0  0.14086498310E+03 -0.98947070078E+02  0.50117137965E+02  0.19648034427E+03  0.80369969686E+02 0.  0.
         -6    2    1    2    0  502 -0.32400668815E+03  0.34773402950E+03 -0.18436682822E+03  0.53759703200E+03  0.17064627810E+03 0.  0.
        -24    2    5    5    0    0 -0.20459619177E+03  0.22933890855E+03 -0.19414002203E+03  0.36909220528E+03  0.63896566268E+02 0.  0.
         14    1    4    4    0    0  0.15464038985E+02 -0.19049482559E+02 -0.20405875352E+02  0.31912678301E+02  0.00000000000E+00 0. -1.
        -13    1    4    4    0    0  0.12540094412E+03 -0.79897587520E+02  0.70523013317E+02  0.16456766597E+03  0.00000000000E+00 0.  1.
          5    1    3    3  501    0  0.18314170505E+03 -0.24878695943E+03 -0.21928983907E+02  0.30973989999E+03  0.47000000000E+01 0. -1.
         13    1    6    6    0    0  0.24920135156E+01 -0.26879585700E+00 -0.75464529711E+01  0.79518133164E+01  0.00000000000E+00 0. -1.
        -14    1    6    6    0    0 -0.20708820528E+03  0.22960770440E+03 -0.18659356906E+03  0.36114039196E+03  0.00000000000E+00 0.  1.
         -5    1    5    5    0  502 -0.11941049638E+03  0.11839512096E+03  0.97731938116E+01  0.16850482673E+03  0.47000000000E+01 0.  1.
</event>
<event>
12    1  0.9749377E-001  0.4300331E+03  0.7818608E-02  0.1033850E+00
         21   -1    0    0  503  502  0.00000000000E+00  0.00000000000E+00  0.42534202851E+03  0.42534202851E+03  0.00000000000E+00 0.  1.
         21   -1    0    0  501  503 -0.00000000000E+00 -0.00000000000E+00 -0.51680477455E+03  0.51680477455E+03  0.00000000000E+00 0. -1.
          6    2    1    2  501    0  0.33658506138E+03 -0.23706152413E+03  0.98849297199E+02  0.45676353771E+03  0.17138866957E+03 0.  0.
         24    2    3    3    0    0  0.64598702820E+02 -0.62726002996E+02  0.49650214210E+02  0.12994234357E+03  0.79450141747E+02 0.  0.
         -6    2    1    2    0  502 -0.33658506138E+03  0.23706152413E+03 -0.19031204324E+03  0.48538326534E+03  0.17288889700E+03 0.  0.
        -24    2    5    5    0    0 -0.13475818055E+03  0.60997221064E+02 -0.12756220065E+03  0.21026081736E+03  0.77827168002E+02 0.  0.
         12    1    4    4    0    0 -0.10715399797E+02  0.97762258294E+01  0.73495691539E+00  0.14523585850E+02  0.00000000000E+00 0. -1.
        -11    1    4    4    0    0  0.75314102617E+02 -0.72502228826E+02  0.48915257294E+02  0.11541875772E+03  0.00000000000E+00 0.  1.
          5    1    3    3  501    0  0.27198635856E+03 -0.17433552114E+03  0.49199082989E+02  0.32682119414E+03  0.47000000000E+01 0. -1.
         11    1    6    6    0    0 -0.45556660108E+01  0.85418111362E+01  0.98612016212E+01  0.13818825120E+02  0.00000000000E+00 0. -1.
        -12    1    6    6    0    0 -0.13020251454E+03  0.52455409928E+02 -0.13742340227E+03  0.19644199224E+03  0.00000000000E+00 0.  1.
         -5    1    5    5    0  502 -0.20182688083E+03  0.17606430307E+03 -0.62749842587E+02  0.27512244799E+03  0.47000000000E+01 0.  1.
</event>
<event>
12    1  0.9749377E-001  0.5450189E+03  0.7818608E-02  0.1002653E+00
         21   -1    0    0  501  502  0.00000000000E+00  0.00000000000E+00  0.68089219851E+03  0.68089219851E+03  0.00000000000E+00 0. -1.
         21   -1    0    0  502  503 -0.00000000000E+00 -0.00000000000E+00 -0.46251941886E+03  0.46251941886E+03  0.00000000000E+00 0.  1.
         -6    2    1    2    0  503  0.51701554743E+03  0.13337295541E+03  0.12636656234E+03  0.57519591802E+03  0.17259320529E+03 0.  0.
        -24    2    3    3    0    0  0.24258185438E+03  0.10062576748E+03  0.11937171455E+03  0.29868688003E+03  0.77412821344E+02 0.  0.
          6    2    1    2  501    0 -0.51701554743E+03 -0.13337295541E+03  0.92006217314E+02  0.56821569935E+03  0.17120314086E+03 0.  0.
         24    2    5    5    0    0 -0.49625636909E+03 -0.92685185337E+02  0.65234137489E+02  0.51506240804E+03  0.78567576258E+02 0.  0.
         14    1    6    6    0    0 -0.23929118173E+03 -0.38153522056E+02 -0.77056296559E+01  0.24243625477E+03  0.00000000000E+00 0. -1.
        -13    1    6    6    0    0 -0.25696518736E+03 -0.54531663281E+02  0.72939767145E+02  0.27262615327E+03  0.00000000000E+00 0.  1.
          5    1    5    5  501    0 -0.20759178343E+02 -0.40687770073E+02  0.26772079824E+02  0.53153291310E+02  0.47000000000E+01 0. -1.
         13    1    4    4    0    0  0.68471768474E+02  0.25402778780E+02  0.73371535368E+02  0.10352326526E+03  0.00000000000E+00 0. -1.
        -14    1    4    4    0    0  0.17411008591E+03  0.75222988704E+02  0.46000179183E+02  0.19516361477E+03  0.00000000000E+00 0.  1.
         -5    1    3    3    0  503  0.27443369305E+03  0.32747187926E+02  0.69948477921E+01  0.27650903800E+03  0.47000000000E+01 0.  1.
</event>
<event>
12    1  0.9749377E-001  0.2659119E+03  0.7818608E-02  0.1103642E+00
         21   -1    0    0  501  502  0.00000000000E+00  0.00000000000E+00  0.27875721066E+03  0.27875721066E+03  0.00000000000E+00 0.  1.
         21   -1    0    0  502  503 -0.00000000000E+00 -0.00000000000E+00 -0.34336238132E+03  0.34336238132E+03  0.00000000000E+00 0. -1.
         -6    2    1    2    0  503 -0.20633361141E+03 -0.11292982822E+03  0.71820379376E+02  0.30017552743E+03  0.17210599953E+03 0.  0.
        -24    2    3    3    0    0 -0.51513210468E+02 -0.93327327217E+02  0.50073748984E+02  0.14254107521E+03  0.80293068978E+02 0.  0.
          6    2    1    2  501    0  0.20633361141E+03  0.11292982822E+03 -0.13642555004E+03  0.32194406456E+03  0.17236398901E+03 0.  0.
         24    2    5    5    0    0  0.17321047586E+03  0.59352792386E+02 -0.15835459126E+03  0.25508141635E+03  0.80409759856E+02 0.  0.
         12    1    6    6    0    0  0.45715802986E+02  0.34492348940E+01 -0.87712277417E+02  0.98971084028E+02  0.00000000000E+00 0. -1.
        -11    1    6    6    0    0  0.12749467287E+03  0.55903557492E+02 -0.70642313847E+02  0.15611033232E+03  0.00000000000E+00 0.  1.
          5    1    5    5  501    0  0.33123135547E+02  0.53577035831E+02  0.21929041228E+02  0.66862648213E+02  0.47000000000E+01 0. -1.
         11    1    4    4    0    0 -0.35557238657E+02 -0.29281007597E+01 -0.41621686617E+01  0.35919557945E+02  0.00000000000E+00 0. -1.
        -12    1    4    4    0    0 -0.15955971810E+02 -0.90399226457E+02  0.54235917646E+02  0.10662151726E+03  0.00000000000E+00 0.  1.
         -5    1    3    3    0  503 -0.15482040094E+03 -0.19602501000E+02  0.21746630392E+02  0.15763445222E+03  0.47000000000E+01 0.  1.
</event>
<event>
12    1  0.9749377E-001  0.2076615E+04  0.7818608E-02  0.8571615E-01
         21   -1    0    0  501  502  0.00000000000E+00  0.00000000000E+00  0.26237535239E+04  0.26237535239E+04  0.00000000000E+00 0.  1.
         21   -1    0    0  502  503 -0.00000000000E+00 -0.00000000000E+00 -0.16523722877E+04  0.16523722877E+04  0.00000000000E+00 0. -1.
         -6    2    1    2    0  503  0.26636562408E+03  0.20576445602E+04  0.45286130930E+03  0.21305797861E+04  0.17156653899E+03 0.  0.
        -24    2    3    3    0    0  0.51487176702E+02  0.67280326883E+03  0.11649732702E+03  0.68935774621E+03  0.79544372207E+02 0.  0.
          6    2    1    2  501    0 -0.26636562408E+03 -0.20576445602E+04  0.51851992695E+03  0.21455460256E+04  0.17220061329E+03 0.  0.
         24    2    5    5    0    0 -0.60927465090E+02 -0.57773782281E+03  0.11903957765E+03  0.59895770667E+03  0.84182928391E+02 0.  0.
         12    1    6    6    0    0 -0.36095596926E+02 -0.49902631469E+03  0.76631437854E+02  0.50616453070E+03  0.00000000000E+00 0. -1.
        -11    1    6    6    0    0 -0.24831868165E+02 -0.78711508119E+02  0.42408139793E+02  0.92793175976E+02  0.00000000000E+00 0.  1.
          5    1    5    5  501    0 -0.20543815898E+03 -0.14799067374E+04  0.39948034931E+03  0.15465883189E+04  0.47000000000E+01 0. -1.
         11    1    4    4    0    0  0.47771544160E+02  0.58127129740E+03  0.72459066653E+02  0.58771486110E+03  0.00000000000E+00 0. -1.
        -12    1    4    4    0    0  0.37156325414E+01  0.91531971424E+02  0.44038260366E+02  0.10164288511E+03  0.00000000000E+00 0.  1.
         -5    1    3    3    0  503  0.21487844737E+03  0.13848412914E+04  0.33636398228E+03  0.14412220398E+04  0.47000000000E+01 0.  1.
</event>
<event>
12    1  0.9749377E-001  0.2666868E+03  0.7818608E-02  0.1103191E+00
         21   -1    0    0  503  502  0.00000000000E+00  0.00000000000E+00  0.10908234836E+03  0.10908234836E+03  0.00000000000E+00 0. -1.
         21   -1    0    0  501  503 -0.00000000000E+00 -0.00000000000E+00 -0.87546254284E+03  0.87546254284E+03  0.00000000000E+00 0.  1.
          6    2    1    2  501    0 -0.22706914314E+03 -0.78309636755E+02 -0.23875212320E+03  0.37985092496E+03  0.17202137624E+03 0.  0.
         24    2    3    3    0    0 -0.85423310215E+02  0.13289600839E+02 -0.15000081199E+03  0.18918669770E+03  0.76273242838E+02 0.  0.
         -6    2    1    2    0  502  0.22706914314E+03  0.78309636755E+02 -0.52762807129E+03  0.60469396624E+03  0.17196108927E+03 0.  0.
        -24    2    5    5    0    0  0.94736793589E+02  0.67144382927E+02 -0.15048214175E+03  0.20482191696E+03  0.76313265310E+02 0.  0.
         14    1    4    4    0    0 -0.70422779192E+02 -0.24454489212E+02 -0.92849053780E+02  0.11907282083E+03  0.00000000000E+00 0. -1.
        -13    1    4    4    0    0 -0.15000531023E+02  0.37744090051E+02 -0.57151758206E+02  0.70113876877E+02  0.00000000000E+00 0.  1.
          5    1    3    3  501    0 -0.14164583293E+03 -0.91599237594E+02 -0.88751311217E+02  0.19066422726E+03  0.47000000000E+01 0. -1.
         13    1    6    6    0    0  0.94547392057E+02  0.67502036792E+02 -0.97013529537E+02  0.15135177313E+03  0.00000000000E+00 0. -1.
        -14    1    6    6    0    0  0.18940153213E+00 -0.35765386499E+00 -0.53468612210E+02  0.53470143827E+02  0.00000000000E+00 0.  1.
         -5    1    5    5    0  502  0.13233234955E+03  0.11165253827E+02 -0.37714592954E+03  0.39987204928E+03  0.47000000000E+01 0.  1.
</event>
<event>
12    1  0.9749377E-001  0.2333175E+03  0.7818608E-02  0.1124326E+00
         21   -1    0    0  501  502  0.00000000000E+00  0.00000000000E+00  0.56243098082E+03  0.56243098082E+03  0.00000000000E+00 0. -1.
         21   -1    0    0  502  503 -0.00000000000E+00 -0.00000000000E+00 -0.12864278233E+03  0.12864278233E+03  0.00000000000E+00 0.  1.
         -6    2    1    2    0  503 -0.13924007858E+03 -0.14949646253E+03  0.17498892051E+03  0.31917255364E+03  0.17179349494E+03 0.  0.
        -24    2    3    3    0    0 -0.13951559804E+03 -0.11590148533E+03  0.77579493568E+02  0.21602515977E+03  0.88037125313E+02 0.  0.
          6    2    1    2  501    0  0.13924007858E+03  0.14949646253E+03  0.25879927798E+03  0.37190120952E+03  0.17203619260E+03 0.  0.
         24    2    5    5    0    0  0.21788504256E+02  0.99258294019E+02  0.77737384541E+02  0.15026130981E+03  0.78793479561E+02 0.  0.
         14    1    6    6    0    0 -0.21534785663E+02  0.61458902115E+02  0.18476591464E+02  0.67692895306E+02  0.00000000000E+00 0. -1.
        -13    1    6    6    0    0  0.43323289919E+02  0.37799391905E+02  0.59260793077E+02  0.82568414505E+02  0.00000000000E+00 0.  1.
          5    1    5    5  501    0  0.11745157432E+03  0.50238168513E+02  0.18106189344E+03  0.22163989971E+03  0.47000000000E+01 0. -1.
         11    1    4    4    0    0 -0.89755985193E+02 -0.63148775106E+02  0.90645498081E+02  0.14233942180E+03  0.00000000000E+00 0. -1.
        -12    1    4    4    0    0 -0.49759612852E+02 -0.52752710225E+02 -0.13066004512E+02  0.73685737977E+02  0.00000000000E+00 0.  1.
         -5    1    3    3    0  503  0.27551946529E+00 -0.33594977200E+02  0.97409426941E+02  0.10314739386E+03  0.47000000000E+01 0.  1.
</event>
<event>
12    1  0.9749377E-001  0.3091141E+03  0.7818608E-02  0.1080771E+00
         21   -1    0    0  503  502  0.00000000000E+00  0.00000000000E+00  0.11635217348E+03  0.11635217348E+03  0.00000000000E+00 0. -1.
         21   -1    0    0  501  503 -0.00000000000E+00 -0.00000000000E+00 -0.10178286253E+04  0.10178286253E+04  0.00000000000E+00 0.  1.
          6    2    1    2  501    0 -0.27263453709E+02  0.26552584496E+03 -0.66836028012E+03  0.74002561333E+03  0.17229385974E+03 0.  0.
         24    2    3    3    0    0 -0.16153886034E+02  0.27511285948E+03 -0.66493853371E+03  0.72424170730E+03  0.80216977578E+02 0.  0.
         -6    2    1    2    0  502  0.27263453709E+02 -0.26552584496E+03 -0.23311617174E+03  0.39415518549E+03  0.17253373720E+03 0.  0.
        -24    2    5    5    0    0 -0.39715625656E+02 -0.81294676119E+02 -0.76071252937E+02  0.14293313796E+03  0.80354782781E+02 0.  0.
         14    1    4    4    0    0  0.30364190847E+02  0.12226536565E+03 -0.25964347186E+03  0.28859233566E+03  0.00000000000E+00 0. -1.
        -13    1    4    4    0    0 -0.46518076881E+02  0.15284749384E+03 -0.40529506185E+03  0.43564937164E+03  0.00000000000E+00 0.  1.
          5    1    3    3  501    0 -0.11109567675E+02 -0.95870145226E+01 -0.34217464104E+01  0.15783906040E+02  0.47000000000E+01 0. -1.
         13    1    6    6    0    0  0.24720515954E+02 -0.28126184728E+02 -0.22266192857E+02  0.43565692015E+02  0.00000000000E+00 0. -1.
        -14    1    6    6    0    0 -0.64436141610E+02 -0.53168491392E+02 -0.53805060080E+02  0.99367445940E+02  0.00000000000E+00 0.  1.
         -5    1    5    5    0  502  0.66979079365E+02 -0.18423116884E+03 -0.15704491880E+03  0.25122204753E+03  0.47000000000E+01 0.  1.
</event>
<event>
12    1  0.9749377E-001  0.1679072E+03  0.7818608E-02  0.1180048E+00
         21   -1    0    0  503  502  0.00000000000E+00  0.00000000000E+00  0.11914763268E+04  0.11914763268E+04  0.00000000000E+00 0. -1.
         21   -1    0    0  501  503 -0.00000000000E+00 -0.00000000000E+00 -0.64071269571E+02  0.64071269571E+02  0.00000000000E+00 0. -1.
          6    2    1    2  501    0  0.98185922292E+02  0.20750098830E+02  0.10010902254E+04  0.10201935737E+04  0.16894450685E+03 0.  0.
         24    2    3    3    0    0  0.10810751939E+03 -0.31581145062E+02  0.74171981261E+03  0.75536891807E+03  0.88030207833E+02 0.  0.
         -6    2    1    2    0  502 -0.98185922292E+02 -0.20750098830E+02  0.12631483182E+03  0.23535402271E+03  0.17136229845E+03 0.  0.
        -24    2    5    5    0    0 -0.29769554576E+02 -0.75987799994E+01  0.13837407196E+03  0.16449308967E+03  0.83466310091E+02 0.  0.
         12    1    4    4    0    0  0.83820635490E+02 -0.45732600599E+02  0.35463001721E+03  0.36725987910E+03  0.00000000000E+00 0. -1.
        -11    1    4    4    0    0  0.24286883896E+02  0.14151455537E+02  0.38708979540E+03  0.38810903896E+03  0.00000000000E+00 0.  1.
          5    1    3    3  501    0 -0.99215970939E+01  0.52331243892E+02  0.25937041280E+03  0.26482465559E+03  0.47000000000E+01 0. -1.
         13    1    6    6    0    0  0.18998021957E+02 -0.29799057704E+02  0.53348486224E+02  0.63991949968E+02  0.00000000000E+00 0. -1.
        -14    1    6    6    0    0 -0.48767576533E+02  0.22200277704E+02  0.85025585735E+02  0.10050113970E+03  0.00000000000E+00 0.  1.
         -5    1    5    5    0  502 -0.68416367716E+02 -0.13151318830E+02 -0.12059240142E+02  0.70860933040E+02  0.47000000000E+01 0.  1.
</event>
<event>
12    1  0.9749377E-001  0.9429179E+03  0.7818608E-02  0.9373467E-01
         21   -1    0    0  501  502  0.00000000000E+00  0.00000000000E+00  0.15652654387E+04  0.15652654387E+04  0.00000000000E+00 0.  1.
         21   -1    0    0  502  503 -0.00000000000E+00 -0.00000000000E+00 -0.74989924205E+03  0.74989924205E+03  0.00000000000E+00 0. -1.
         -6    2    1    2    0  503  0.78804796108E+03 -0.51038071287E+03 -0.13983005932E+03  0.96542325805E+03  0.17601579663E+03 0.  0.
        -24    2    3    3    0    0  0.48041416185E+03 -0.30455324408E+03 -0.15559622059E+02  0.57495080971E+03  0.82315772249E+02 0.  0.
          6    2    1    2  501    0 -0.78804796108E+03  0.51038071287E+03  0.95519625602E+03  0.13497414227E+04  0.16701484886E+03 0.  0.
         24    2    5    5    0    0 -0.54431924313E+03  0.29189746428E+03  0.67992132450E+03  0.92203007640E+03  0.79742624701E+02 0.  0.
         12    1    6    6    0    0 -0.36067326684E+03  0.21276561788E+03  0.50776292221E+03  0.65816228905E+03  0.00000000000E+00 0. -1.
        -11    1    6    6    0    0 -0.18364597629E+03  0.79131846402E+02  0.17215840229E+03  0.26386778735E+03  0.00000000000E+00 0.  1.
          5    1    5    5  501    0 -0.24372871796E+03  0.21848324858E+03  0.27527493152E+03  0.42771134634E+03  0.47000000000E+01 0. -1.
         13    1    4    4    0    0  0.22296139208E+03 -0.12386148678E+03 -0.45176563936E+02  0.25902581376E+03  0.00000000000E+00 0. -1.
        -14    1    4    4    0    0  0.25745276977E+03 -0.18069175731E+03  0.29616941877E+02  0.31592499595E+03  0.00000000000E+00 0.  1.
         -5    1    3    3    0  503  0.30763379923E+03 -0.20582746878E+03 -0.12427043726E+03  0.39047244834E+03  0.47000000000E+01 0.  1.
</event>
<event>
12    1  0.9749377E-001  0.8328685E+03  0.7818608E-02  0.9513623E-01
         21   -1    0    0  501  502  0.00000000000E+00  0.00000000000E+00  0.26405912336E+04  0.26405912336E+04  0.00000000000E+00 0. -1.
         21   -1    0    0  502  503 -0.00000000000E+00 -0.00000000000E+00 -0.31250953025E+03  0.31250953025E+03  0.00000000000E+00 0.  1.
         -6    2    1    2    0  503 -0.36404020107E+03  0.74375228700E+03  0.17017611363E+04  0.19003603816E+04  0.17229591592E+03 0.  0.
        -24    2    3    3    0    0 -0.30972029387E+03  0.59360619514E+03  0.12336962576E+04  0.14057885245E+04  0.77071033418E+02 0.  0.
          6    2    1    2  501    0  0.36404020107E+03 -0.74375228700E+03  0.62632056709E+03  0.10527403822E+04  0.17404633648E+03 0.  0.
         24    2    5    5    0    0  0.23044230825E+03 -0.45547360362E+03  0.30155275941E+03  0.59837355339E+03  0.80975191680E+02 0.  0.
         14    1    6    6    0    0  0.23475835748E+03 -0.43794526084E+03  0.28035828630E+03  0.57053335275E+03  0.00000000000E+00 0. -1.
        -13    1    6    6    0    0 -0.43160492336E+01 -0.17528342778E+02  0.21194473110E+02  0.27840200644E+02  0.00000000000E+00 0.  1.
          5    1    5    5  501    0  0.13359789283E+03 -0.28827868338E+03  0.32476780768E+03  0.45436682885E+03  0.47000000000E+01 0. -1.
         13    1    4    4    0    0 -0.19459651626E+03  0.44182227648E+03  0.85548367265E+03  0.98230700003E+03  0.00000000000E+00 0. -1.
        -14    1    4    4    0    0 -0.11512377761E+03  0.15178391867E+03  0.37821258496E+03  0.42348152446E+03  0.00000000000E+00 0.  1.
         -5    1    3    3    0  503 -0.54319907208E+02  0.15014609185E+03  0.46806487867E+03  0.49457185713E+03  0.47000000000E+01 0.  1.
</event>
<event>
12    1  0.9749377E-001  0.6513764E+03  0.7818608E-02  0.9804200E-01
         21   -1    0    0  501  502  0.00000000000E+00  0.00000000000E+00  0.10924356530E+04  0.10924356530E+04  0.00000000000E+00 0.  1.
         21   -1    0    0  502  503 -0.00000000000E+00 -0.00000000000E+00 -0.40539260020E+03  0.40539260020E+03  0.00000000000E+00 0. -1.
         -6    2    1    2    0  503 -0.47305034660E+03 -0.43069340111E+03  0.37558519295E+03  0.76113869987E+03  0.17027755900E+03 0.  0.
        -24    2    3    3    0    0 -0.35440272259E+03 -0.28977323624E+03  0.20355819763E+03  0.50904520795E+03  0.90118065287E+02 0.  0.
          6    2    1    2  501    0  0.47305034660E+03  0.43069340111E+03  0.31145785983E+03  0.73668955332E+03  0.19087185059E+03 0.  0.
         24    2    5    5    0    0  0.16107097548E+03  0.10157981502E+03  0.48207759161E+02  0.21231412860E+03  0.80566638247E+02 0.  0.
         14    1    6    6    0    0  0.74519437720E+02  0.31546767551E+01  0.69638358628E+01  0.74910570639E+02  0.00000000000E+00 0. -1.
        -13    1    6    6    0    0  0.86551537757E+02  0.98425138268E+02  0.41243923298E+02  0.13740355796E+03  0.00000000000E+00 0.  1.
          5    1    5    5  501    0  0.31197937112E+03  0.32911358608E+03  0.26325010067E+03  0.52437542472E+03  0.47000000000E+01 0. -1.
         13    1    4    4    0    0 -0.46769118351E+02 -0.22984897652E+02  0.54533689082E+02  0.75429299323E+02  0.00000000000E+00 0. -1.
        -14    1    4    4    0    0 -0.30763360424E+03 -0.26678833859E+03  0.14902450855E+03  0.43361590863E+03  0.00000000000E+00 0.  1.
         -5    1    3    3    0  503 -0.11864762400E+03 -0.14092016486E+03  0.17202699532E+03  0.25209349192E+03  0.47000000000E+01 0.  1.
</event>
<event>
12    1  0.9749377E-001  0.2137642E+03  0.7818608E-02  0.1138619E+00
         21   -1    0    0  503  502  0.00000000000E+00  0.00000000000E+00  0.14419760522E+03  0.14419760522E+03  0.00000000000E+00 0.  1.
         21   -1    0    0  501  503 -0.00000000000E+00 -0.00000000000E+00 -0.56568623899E+03  0.56568623899E+03  0.00000000000E+00 0. -1.
          6    2    1    2  501    0 -0.11364406706E+03  0.13441715598E+03 -0.39084069739E+03  0.46224141661E+03  0.17299633143E+03 0.  0.
         24    2    3    3    0    0 -0.84519291424E+02  0.12469352527E+03 -0.39533870624E+03  0.43085473737E+03  0.81554437003E+02 0.  0.
         -6    2    1    2    0  502  0.11364406706E+03 -0.13441715598E+03 -0.30647936377E+02  0.24764242760E+03  0.17147749165E+03 0.  0.
        -24    2    5    5    0    0  0.14403339625E+03 -0.82584860705E+02 -0.31266709986E+02  0.18737161341E+03  0.81022440759E+02 0.  0.
         12    1    4    4    0    0 -0.92757631182E+02  0.99565020373E+02 -0.26539695108E+03  0.29824941419E+03  0.00000000000E+00 0. -1.
        -11    1    4    4    0    0  0.82383397578E+01  0.25128504895E+02 -0.12994175516E+03  0.13260532317E+03  0.00000000000E+00 0.  1.
          5    1    3    3  501    0 -0.29124775638E+02  0.97236307173E+01  0.44980088457E+01  0.31386679242E+02  0.47000000000E+01 0. -1.
         13    1    6    6    0    0  0.25810026208E+02  0.53203669311E+01  0.18131037858E+02  0.31987470843E+02  0.00000000000E+00 0. -1.
        -14    1    6    6    0    0  0.11822337004E+03 -0.87905227636E+02 -0.49397747844E+02  0.15538414257E+03  0.00000000000E+00 0.  1.
         -5    1    5    5    0  502 -0.30389329186E+02 -0.51832295280E+02  0.61877360871E+00  0.60270814190E+02  0.47000000000E+01 0.  1.
</event>
<event>
12    1  0.9749377E-001  0.1810978E+03  0.7818608E-02  0.1166745E+00
         21   -1    0    0  503  502  0.00000000000E+00  0.00000000000E+00  0.30229053097E+03  0.30229053097E+03  0.00000000000E+00 0. -1.
         21   -1    0    0  501  503 -0.00000000000E+00 -0.00000000000E+00 -0.17653028834E+03  0.17653028834E+03  0.00000000000E+00 0.  1.
          6    2    1    2  501    0  0.93864199216E+02  0.42034111162E+02  0.18620853514E+03  0.27448426026E+03  0.17346652754E+03 0.  0.
         24    2    3    3    0    0  0.80895829443E+02  0.95839107040E+02  0.15510648574E+03  0.21082435394E+03  0.68261384658E+02 0.  0.
         -6    2    1    2    0  502 -0.93864199216E+02 -0.42034111162E+02 -0.60448292502E+02  0.20433655905E+03  0.16589779655E+03 0.  0.
        -24    2    5    5    0    0 -0.18374001506E+02  0.49727412698E+01 -0.79421333930E+02  0.11328448369E+03  0.78506648601E+02 0.  0.
         14    1    4    4    0    0  0.75061780237E+02  0.45984858216E+02  0.71941392116E+02  0.11368571563E+03  0.00000000000E+00 0. -1.
        -13    1    4    4    0    0  0.58340492053E+01  0.49854248824E+02  0.83165093621E+02  0.97138638311E+02  0.00000000000E+00 0.  1.
          5    1    3    3  501    0  0.12968369774E+02 -0.53804995878E+02  0.31102049400E+02  0.63659906322E+02  0.47000000000E+01 0. -1.
         13    1    6    6    0    0  0.30343465733E+02  0.43492208215E+01 -0.20726953442E+02  0.37003354354E+02  0.00000000000E+00 0. -1.
        -14    1    6    6    0    0 -0.48717467239E+02  0.62352044826E+00 -0.58694380488E+02  0.76281129336E+02  0.00000000000E+00 0.  1.
         -5    1    5    5    0  502 -0.75490197710E+02 -0.47006852432E+02  0.18973041428E+02  0.91052075357E+02  0.47000000000E+01 0.  1.
</event>
<event>
12    1  0.9749377E-001  0.3782150E+03  0.7818608E-02  0.1051595E+00
         21   -1    0    0  503  502  0.00000000000E+00  0.00000000000E+00  0.14760568802E+04  0.14760568802E+04  0.00000000000E+00 0. -1.
         21   -1    0    0  501  503 -0.00000000000E+00 -0.00000000000E+00 -0.11404394369E+03  0.11404394369E+03  0.00000000000E+00 0.  1.
          6    2    1    2  501    0  0.26953322386E+03 -0.24969041401E+03  0.55771529804E+03  0.68972181615E+03  0.17226830353E+03 0.  0.
         24    2    3    3    0    0  0.12093017014E+03 -0.11855249434E+03  0.37998178054E+03  0.42346758653E+03  0.79119171727E+02 0.  0.
         -6    2    1    2    0  502 -0.26953322386E+03  0.24969041401E+03  0.80429763850E+03  0.90037900776E+03  0.16968855209E+03 0.  0.
        -24    2    5    5    0    0 -0.17954457256E+03  0.15231144338E+03  0.36538274609E+03  0.44184984395E+03  0.79320263125E+02 0.  0.
         14    1    4    4    0    0  0.18849147758E+02 -0.51719796697E+02  0.62164284937E+02  0.83033885031E+02  0.00000000000E+00 0. -1.
        -13    1    4    4    0    0  0.10208102238E+03 -0.66832697639E+02  0.31781749560E+03  0.34043370149E+03  0.00000000000E+00 0.  1.
          5    1    3    3  501    0  0.14860305372E+03 -0.13113791967E+03  0.17773351750E+03  0.26625422963E+03  0.47000000000E+01 0. -1.
         13    1    6    6    0    0 -0.45809359712E+01  0.40608242450E+02  0.59473772187E+02  0.72160542593E+02  0.00000000000E+00 0. -1.
        -14    1    6    6    0    0 -0.17496363659E+03  0.11170320093E+03  0.30590897390E+03  0.36968930136E+03  0.00000000000E+00 0.  1.
         -5    1    5    5    0  502 -0.89988651301E+02  0.97378970631E+02  0.43891489241E+03  0.45852916381E+03  0.47000000000E+01 0.  1.
</event>
<event>
12    1  0.9749377E-001  0.1102455E+04  0.7818608E-02  0.9202802E-01
         21   -1    0    0  501  502  0.00000000000E+00  0.00000000000E+00  0.16906417986E+04  0.16906417986E+04  0.00000000000E+00 0. -1.
         21   -1    0    0  502  503 -0.00000000000E+00 -0.00000000000E+00 -0.74419176383E+03  0.74419176383E+03  0.00000000000E+00 0.  1.
         -6    2    1    2    0  503  0.11509236002E+03 -0.10910179618E+04  0.29986469373E+03  0.11499516729E+04  0.17001050262E+03 0.  0.
        -24    2    3    3    0    0  0.15313599063E+02 -0.75996596243E+03  0.20444818246E+03  0.79123503251E+03  0.80442818112E+02 0.  0.
          6    2    1    2  501    0 -0.11509236002E+03  0.10910179618E+04  0.64658534104E+03  0.12848818895E+04  0.17112107538E+03 0.  0.
         24    2    5    5    0    0 -0.26483798761E+02  0.29958732198E+03  0.22349280889E+03  0.38308184763E+03  0.79678800627E+02 0.  0.
         12    1    6    6    0    0  0.40245134589E+01  0.11715902814E+03  0.43622152407E+02  0.12508128063E+03  0.00000000000E+00 0. -1.
        -11    1    6    6    0    0 -0.30508312220E+02  0.18242829384E+03  0.17987065649E+03  0.25800056700E+03  0.00000000000E+00 0.  1.
          5    1    5    5  501    0 -0.88608561262E+02  0.79143063986E+03  0.42309253215E+03  0.90180004191E+03  0.47000000000E+01 0. -1.
         11    1    4    4    0    0 -0.70677540283E+01 -0.16571928601E+03  0.77896420763E+02  0.18325034044E+03  0.00000000000E+00 0. -1.
        -12    1    4    4    0    0  0.22381353091E+02 -0.59424667642E+03  0.12655176170E+03  0.60798469207E+03  0.00000000000E+00 0.  1.
         -5    1    3    3    0  503  0.99778760960E+02 -0.33105199941E+03  0.95416511263E+02  0.35871664036E+03  0.47000000000E+01 0.  1.
</event>
<event>
12    1  0.9749377E-001  0.4935563E+03  0.7818608E-02  0.1015475E+00
         21   -1    0    0  503  502  0.00000000000E+00  0.00000000000E+00  0.25961765216E+03  0.25961765216E+03  0.00000000000E+00 0.  1.
         21   -1    0    0  501  503 -0.00000000000E+00 -0.00000000000E+00 -0.20652405012E+04  0.20652405012E+04  0.00000000000E+00 0. -1.
          6    2    1    2  501    0 -0.42626223541E+03 -0.22396232236E+03 -0.70477536555E+02  0.51590161176E+03  0.17125645879E+03 0.  0.
         24    2    3    3    0    0 -0.31961553654E+03 -0.22923294887E+03 -0.33322899489E+02  0.40274749146E+03  0.79958052776E+02 0.  0.
         -6    2    1    2    0  502  0.42626223541E+03  0.22396232236E+03 -0.17351453125E+04  0.18089565416E+04  0.17244100090E+03 0.  0.
        -24    2    5    5    0    0  0.39108426453E+03  0.20261673925E+03 -0.16870900894E+04  0.17455174526E+04  0.80980012522E+02 0.  0.
         12    1    4    4    0    0 -0.11631121700E+03 -0.11468323318E+03  0.16372055326E+02  0.16416024905E+03  0.00000000000E+00 0. -1.
        -11    1    4    4    0    0 -0.20330431954E+03 -0.11454971569E+03 -0.49694954815E+02  0.23858724241E+03  0.00000000000E+00 0.  1.
          5    1    3    3  501    0 -0.10664669887E+03  0.52706265084E+01 -0.37154637066E+02  0.11315412030E+03  0.47000000000E+01 0. -1.
         11    1    6    6    0    0  0.72392503083E+01  0.10838370483E+02 -0.12130143432E+03  0.12199965159E+03  0.00000000000E+00 0. -1.
        -12    1    6    6    0    0  0.38384501423E+03  0.19177836877E+03 -0.15657886551E+04  0.16235178010E+04  0.00000000000E+00 0.  1.
         -5    1    5    5    0  502  0.35177970877E+02  0.21345583105E+02 -0.48055223072E+02  0.63439089035E+02  0.47000000000E+01 0.  1.
</event>
<event>
12    1  0.9749377E-001  0.4668945E+03  0.7818608E-02  0.1022800E+00
         21   -1    0    0  503  502  0.00000000000E+00  0.00000000000E+00  0.13786143056E+03  0.13786143056E+03  0.00000000000E+00 0. -1.
         21   -1    0    0  501  503 -0.00000000000E+00 -0.00000000000E+00 -0.19432635228E+04  0.19432635228E+04  0.00000000000E+00 0.  1.
          6    2    1    2  501    0 -0.41940345598E+03 -0.16291367846E+03 -0.52096919765E+03  0.70945649779E+03  0.17169592843E+03 0.  0.
         24    2    3    3    0    0 -0.30871637472E+03 -0.48802241383E+02 -0.34175177150E+03  0.46984425715E+03  0.79195289443E+02 0.  0.
         -6    2    1    2    0  502  0.41940345598E+03  0.16291367846E+03 -0.12844328945E+04  0.13716684555E+04  0.17107415293E+03 0.  0.
        -24    2    5    5    0    0  0.30559713883E+03  0.13062519918E+03 -0.11071490182E+04  0.11584875781E+04  0.76563477189E+02 0.  0.
         12    1    4    4    0    0 -0.20684031740E+03  0.38310476174E+01 -0.20296546344E+03  0.28981472216E+03  0.00000000000E+00 0. -1.
        -11    1    4    4    0    0 -0.10187605732E+03 -0.52633289001E+02 -0.13878630806E+03  0.18002953500E+03  0.00000000000E+00 0.  1.
          5    1    3    3  501    0 -0.11068708127E+03 -0.11411143707E+03 -0.17921742615E+03  0.23961224064E+03  0.47000000000E+01 0. -1.
         13    1    6    6    0    0  0.92250451571E+02  0.60127748583E+02 -0.26710857366E+03  0.28891604678E+03  0.00000000000E+00 0. -1.
        -14    1    6    6    0    0  0.21334668726E+03  0.70497450594E+02 -0.84004044456E+03  0.86957153127E+03  0.00000000000E+00 0.  1.
         -5    1    5    5    0  502  0.11380631716E+03  0.32288479279E+02 -0.17728387632E+03  0.21318087748E+03  0.47000000000E+01 0.  1.
</event>
<event>
12    1  0.9749377E-001  0.2622999E+03  0.7818608E-02  0.1105769E+00
         21   -1    0    0  501  502  0.00000000000E+00  0.00000000000E+00  0.13587925864E+04  0.13587925864E+04  0.00000000000E+00 0.  1.
         21   -1    0    0  502  503 -0.00000000000E+00 -0.00000000000E+00 -0.53435839264E+02  0.53435839264E+02  0.00000000000E+00 0. -1.
         -6    2    1    2    0  503  0.74093324044E+02  0.19877141491E+03  0.62912132596E+03  0.68388758186E+03  0.16403867163E+03 0.  0.
        -24    2    3    3    0    0  0.19043797623E+02  0.19396914876E+03  0.46052973476E+03  0.50640877540E+03  0.79846817729E+02 0.  0.
          6    2    1    2  501    0 -0.74093324044E+02 -0.19877141491E+03  0.67623542115E+03  0.72834084378E+03  0.16788729508E+03 0.  0.
         24    2    5    5    0    0  0.74544844115E+01 -0.70235150973E+02  0.38718780113E+03  0.40162654528E+03  0.80005891995E+02 0.  0.
         12    1    6    6    0    0 -0.19791204767E+02 -0.75876638071E+02  0.30174959087E+03  0.31177198652E+03  0.00000000000E+00 0. -1.
        -11    1    6    6    0    0  0.27245689178E+02  0.56414870984E+01  0.85438210265E+02  0.89854558753E+02  0.00000000000E+00 0.  1.
          5    1    5    5  501    0 -0.81547808456E+02 -0.12853626393E+03  0.28904762002E+03  0.32671429851E+03  0.47000000000E+01 0. -1.
         13    1    4    4    0    0 -0.31409572370E+02  0.81376826161E+02  0.19376604065E+03  0.21249477072E+03  0.00000000000E+00 0. -1.
        -14    1    4    4    0    0  0.50453369993E+02  0.11259232260E+03  0.26676369411E+03  0.29391400468E+03  0.00000000000E+00 0.  1.
         -5    1    3    3    0  503  0.55049526421E+02  0.48022661401E+01  0.16859159120E+03  0.17747880646E+03  0.47000000000E+01 0.  1.
</event>
<event>
12    1  0.9749377E-001  0.4155579E+03  0.7818608E-02  0.1038522E+00
         21   -1    0    0  501  502  0.00000000000E+00  0.00000000000E+00  0.20405129859E+03  0.20405129859E+03  0.00000000000E+00 0.  1.
         21   -1    0    0  502  503 -0.00000000000E+00 -0.00000000000E+00 -0.10053445336E+04  0.10053445336E+04  0.00000000000E+00 0. -1.
         -6    2    1    2    0  503 -0.95194513601E+02  0.37837031876E+03 -0.19781248212E+03  0.47064153354E+03  0.17363058911E+03 0.  0.
        -24    2    3    3    0    0 -0.29903790602E+02  0.73397837166E+02 -0.31184908075E+02  0.11700622497E+03  0.80227669767E+02 0.  0.
          6    2    1    2  501    0  0.95194513601E+02 -0.37837031876E+03 -0.60348075287E+03  0.73875429863E+03  0.17129740547E+03 0.  0.
         24    2    5    5    0    0  0.12095009198E+03 -0.33875405499E+03 -0.57692467907E+03  0.68434737601E+03  0.78140970107E+02 0.  0.
         14    1    6    6    0    0  0.22623353756E+02 -0.29933951390E+02 -0.10792024124E+03  0.11425688622E+03  0.00000000000E+00 0. -1.
        -13    1    6    6    0    0  0.98326738228E+02 -0.30882010360E+03 -0.46900443784E+03  0.57009048979E+03  0.00000000000E+00 0.  1.
          5    1    5    5  501    0 -0.25755578383E+02 -0.39616263775E+02 -0.26556073793E+02  0.54406922617E+02  0.47000000000E+01 0. -1.
         11    1    4    4    0    0 -0.37889057242E+02  0.86678665362E+02 -0.35304845144E+02  0.10097130176E+03  0.00000000000E+00 0. -1.
        -12    1    4    4    0    0  0.79852666402E+01 -0.13280828197E+02  0.41199370687E+01  0.16034923210E+02  0.00000000000E+00 0.  1.
         -5    1    3    3    0  503 -0.65290722999E+02  0.30497248160E+03 -0.16662757404E+03  0.35363530858E+03  0.47000000000E+01 0.  1.
</event>
<event>
12    1  0.9749377E-001  0.2345209E+03  0.7818608E-02  0.1123498E+00
         21   -1    0    0  503  502  0.00000000000E+00  0.00000000000E+00  0.74822759073E+02  0.74822759073E+02  0.00000000000E+00 0. -1.
         21   -1    0    0  501  503 -0.00000000000E+00 -0.00000000000E+00 -0.12493830941E+04  0.12493830941E+04  0.00000000000E+00 0.  1.
          6    2    1    2  501    0 -0.82589367949E+02  0.20233352576E+03 -0.31349778655E+03  0.41934237689E+03  0.17264792944E+03 0.  0.
         24    2    3    3    0    0 -0.50925127369E+02  0.56086973094E+02 -0.21213418980E+03  0.23854595258E+03  0.78512036407E+02 0.  0.
         -6    2    1    2    0  502  0.82589367949E+02 -0.20233352576E+03 -0.86106254849E+03  0.90486347629E+03  0.17201551957E+03 0.  0.
        -24    2    5    5    0    0  0.89861008670E+01 -0.32665453387E+02 -0.18992612705E+03  0.20869475975E+03  0.79585093817E+02 0.  0.
         12    1    4    4    0    0 -0.60832733290E+02  0.56705126340E+02 -0.21292317593E+03  0.22858777666E+03  0.00000000000E+00 0. -1.
        -11    1    4    4    0    0  0.99076059213E+01 -0.61815324588E+00  0.78898612277E+00  0.99581759188E+01  0.00000000000E+00 0.  1.
          5    1    3    3  501    0 -0.31664240580E+02  0.14624655267E+03 -0.10136359674E+03  0.18079642431E+03  0.47000000000E+01 0. -1.
         11    1    6    6    0    0 -0.47702240207E+01 -0.25078912310E+02 -0.89708990554E+01  0.27058897053E+02  0.00000000000E+00 0. -1.
        -12    1    6    6    0    0  0.13756324888E+02 -0.75865410773E+01 -0.18095522799E+03  0.18163586269E+03  0.00000000000E+00 0.  1.
         -5    1    5    5    0  502  0.73603267082E+02 -0.16966807237E+03 -0.67113642144E+03  0.69616871655E+03  0.47000000000E+01 0.  1.
</event>
<event>
12    1  0.9749377E-001  0.8329528E+03  0.7818608E-02  0.9513507E-01
         21   -1    0    0  503  502  0.00000000000E+00  0.00000000000E+00  0.75608929866E+03  0.75608929866E+03  0.00000000000E+00 0.  1.
         21   -1    0    0  501  503 -0.00000000000E+00 -0.00000000000E+00 -0.10012259407E+04  0.10012259407E+04  0.00000000000E+00 0. -1.
          6    2    1    2  501    0 -0.21411331688E+03 -0.80132311025E+03 -0.32329128087E+03  0.90661373284E+03  0.17166236863E+03 0.  0.
         24    2    3    3    0    0 -0.51401767060E+02 -0.32733456695E+03 -0.81105952618E+02  0.35000254822E+03  0.78316970280E+02 0.  0.
         -6    2    1    2    0  502  0.21411331688E+03  0.80132311025E+03  0.78154638779E+02  0.85070150656E+03  0.17210945999E+03 0.  0.
        -24    2    5    5    0    0  0.11418532504E+03  0.40739778851E+03  0.10557238461E+03  0.44334836069E+03  0.80006212274E+02 0.  0.
         12    1    4    4    0    0 -0.59298589618E+02 -0.26712898965E+03 -0.39673822258E+02  0.27649273411E+03  0.00000000000E+00 0. -1.
        -11    1    4    4    0    0  0.78968225585E+01 -0.60205577293E+02 -0.41432130360E+02  0.73509814106E+02  0.00000000000E+00 0.  1.
          5    1    3    3  501    0 -0.16271154982E+03 -0.47398854330E+03 -0.24218532825E+03  0.55661118462E+03  0.47000000000E+01 0. -1.
         13    1    6    6    0    0  0.18699555138E+02  0.37025638581E+02 -0.12038966699E+02  0.43191526876E+02  0.00000000000E+00 0. -1.
        -14    1    6    6    0    0  0.95485769906E+02  0.37037214992E+03  0.11761135131E+03  0.40015683382E+03  0.00000000000E+00 0.  1.
         -5    1    5    5    0  502  0.99927991833E+02  0.39392532174E+03 -0.27417745828E+02  0.40735314587E+03  0.47000000000E+01 0.  1.
</event>
<event>
12    1  0.9749377E-001  0.3576548E+03  0.7818608E-02  0.1059516E+00
         21   -1    0    0  503  502  0.00000000000E+00  0.00000000000E+00  0.62848488544E+03  0.62848488544E+03  0.00000000000E+00 0. -1.
         21   -1    0    0  501  503 -0.00000000000E+00 -0.00000000000E+00 -0.54196482109E+03  0.54196482109E+03  0.00000000000E+00 0.  1.
          6    2    1    2  501    0  0.19860347513E+03  0.27584088179E+03  0.48674043685E+03  0.61789222683E+03  0.17129804060E+03 0.  0.
         24    2    3    3    0    0  0.79502376967E+02  0.50865523706E+02  0.11669879104E+03  0.16872422601E+03  0.77080004976E+02 0.  0.
         -6    2    1    2    0  502 -0.19860347513E+03 -0.27584088179E+03 -0.40022037250E+03  0.55255747970E+03  0.17208105479E+03 0.  0.
        -24    2    5    5    0    0  0.22331884338E+01 -0.70662794403E+02 -0.14418657508E+03  0.16783835048E+03  0.48802928339E+02 0.  0.
         12    1    4    4    0    0  0.70276821006E+02  0.47012532047E+02  0.43951124072E+02  0.95292764927E+02  0.00000000000E+00 0. -1.
        -11    1    4    4    0    0  0.92255559613E+01  0.38529916583E+01  0.72747666968E+02  0.73431461083E+02  0.00000000000E+00 0.  1.
          5    1    3    3  501    0  0.11910109816E+03  0.22497535808E+03  0.37004164581E+03  0.44916800082E+03  0.47000000000E+01 0. -1.
         13    1    6    6    0    0 -0.70410549034E+01 -0.69275183216E+02 -0.95116907446E+02  0.11788067503E+03  0.00000000000E+00 0. -1.
        -14    1    6    6    0    0  0.92742433372E+01 -0.13876111867E+01 -0.49069667636E+02  0.49957675448E+02  0.00000000000E+00 0.  1.
         -5    1    5    5    0  502 -0.20083666356E+03 -0.20517808738E+03 -0.25603379741E+03  0.38471912923E+03  0.47000000000E+01 0.  1.
</event>
<event>
12    1  0.9749377E-001  0.6777371E+03  0.7818608E-02  0.9756081E-01
         21   -1    0    0  503  502  0.00000000000E+00  0.00000000000E+00  0.17958328947E+04  0.17958328947E+04  0.00000000000E+00 0.  1.
         21   -1    0    0  501  503 -0.00000000000E+00 -0.00000000000E+00 -0.30930440967E+03  0.30930440967E+03  0.00000000000E+00 0. -1.
          6    2    1    2  501    0  0.40459873156E+03  0.54207577856E+03  0.11121812235E+04  0.13133010774E+04  0.17397230412E+03 0.  0.
         24    2    3    3    0    0  0.27580894018E+03  0.37466381124E+03  0.88531695332E+03  0.10032961351E+04  0.79834102131E+02 0.  0.
         -6    2    1    2    0  502 -0.40459873156E+03 -0.54207577856E+03  0.37434726150E+03  0.79183622698E+03  0.17123800654E+03 0.  0.
        -24    2    5    5    0    0 -0.20305501457E+03 -0.24084358767E+03  0.24440048627E+03  0.40677914410E+03  0.80626929255E+02 0.  0.
         12    1    4    4    0    0  0.21383469793E+03  0.30730468476E+03  0.76893643016E+03  0.85523369961E+03  0.00000000000E+00 0. -1.
        -11    1    4    4    0    0  0.61974242249E+02  0.67359126484E+02  0.11638052315E+03  0.14806243545E+03  0.00000000000E+00 0.  1.
          5    1    3    3  501    0  0.12878979138E+03  0.16741196731E+03  0.22686427022E+03  0.31000494233E+03  0.47000000000E+01 0. -1.
         13    1    6    6    0    0 -0.86078225020E+02 -0.11951571799E+03  0.16276738223E+03  0.21951466554E+03  0.00000000000E+00 0. -1.
        -14    1    6    6    0    0 -0.11697678955E+03 -0.12132786969E+03  0.81633104039E+02  0.18726447856E+03  0.00000000000E+00 0.  1.
         -5    1    5    5    0  502 -0.20154371699E+03 -0.30123219088E+03  0.12994677524E+03  0.38505708288E+03  0.47000000000E+01 0.  1.
</event>
<event>
12    1  0.9749377E-001  0.2342043E+03  0.7818608E-02  0.1123715E+00
         21   -1    0    0  501  502  0.00000000000E+00  0.00000000000E+00  0.44614682040E+03  0.44614682040E+03  0.00000000000E+00 0.  1.
         21   -1    0    0  502  503 -0.00000000000E+00 -0.00000000000E+00 -0.13846564021E+03  0.13846564021E+03  0.00000000000E+00 0. -1.
         -6    2    1    2    0  503 -0.75662845680E+02  0.14544210106E+03  0.22893716037E+03  0.32970870508E+03  0.17151482684E+03 0.  0.
        -24    2    3    3    0    0 -0.77606844903E+02  0.17507419820E+03  0.19089695263E+03  0.28122172004E+03  0.77267147254E+02 0.  0.
          6    2    1    2  501    0  0.75662845680E+02 -0.14544210106E+03  0.78744019821E+02  0.25490375554E+03  0.17859740466E+03 0.  0.
         24    2    5    5    0    0 -0.18646330134E+02 -0.11786448046E+03  0.37254300539E+02  0.14814124991E+03  0.79487267129E+02 0.  0.
         14    1    6    6    0    0 -0.20439485947E+02 -0.12832621833E+03  0.25717098703E+02  0.13246418407E+03  0.00000000000E+00 0. -1.
        -13    1    6    6    0    0  0.17931558124E+01  0.10461737872E+02  0.11537201837E+02  0.15677065838E+02  0.00000000000E+00 0.  1.
          5    1    5    5  501    0  0.94309175815E+02 -0.27577620606E+02  0.41489719282E+02  0.10676250562E+03  0.47000000000E+01 0. -1.
         11    1    4    4    0    0  0.89204355563E+01  0.17725888773E+02  0.10031789661E+01  0.19869264489E+02  0.00000000000E+00 0. -1.
        -12    1    4    4    0    0 -0.86527280460E+02  0.15734830942E+03  0.18989377367E+03  0.26135245555E+03  0.00000000000E+00 0.  1.
         -5    1    3    3    0  503  0.19439992229E+01 -0.29632097135E+02  0.38040207738E+02  0.48486985041E+02  0.47000000000E+01 0.  1.
</event>
<event>
12    1  0.9749377E-001  0.2214711E+03  0.7818608E-02  0.1132791E+00
         21   -1    0    0  501  502  0.00000000000E+00  0.00000000000E+00  0.37193337861E+03  0.37193337861E+03  0.00000000000E+00 0. -1.
         21   -1    0    0  502  503 -0.00000000000E+00 -0.00000000000E+00 -0.16522449131E+03  0.16522449131E+03  0.00000000000E+00 0.  1.
         -6    2    1    2    0  503 -0.59490368339E+02  0.15687297607E+03  0.17126058160E+03  0.29436769002E+03  0.17080373407E+03 0.  0.
        -24    2    3    3    0    0 -0.10530302625E+03  0.10487203391E+03  0.13459306352E+03  0.21582156031E+03  0.79854757605E+02 0.  0.
          6    2    1    2  501    0  0.59490368339E+02 -0.15687297607E+03  0.35448305696E+02  0.24279017990E+03  0.17187860405E+03 0.  0.
         24    2    5    5    0    0  0.69424642591E+02 -0.16511010618E+03 -0.87518107792E+01  0.19650540472E+03  0.80353293207E+02 0.  0.
         12    1    6    6    0    0 -0.13020034104E+02 -0.14863803069E+02 -0.15314688416E+02  0.24999872221E+02  0.00000000000E+00 0. -1.
        -11    1    6    6    0    0  0.82444676696E+02 -0.15024630311E+03  0.65628776369E+01  0.17150553249E+03  0.00000000000E+00 0.  1.
          5    1    5    5  501    0 -0.99342742523E+01  0.82371301063E+01  0.44200116475E+02  0.46284775182E+02  0.47000000000E+01 0. -1.
         13    1    4    4    0    0 -0.19215465558E+02  0.75094267755E+02  0.65692616356E+02  0.10160660909E+03  0.00000000000E+00 0. -1.
        -14    1    4    4    0    0 -0.86087560694E+02  0.29777766155E+02  0.68900447169E+02  0.11421495123E+03  0.00000000000E+00 0.  1.
         -5    1    3    3    0  503  0.45812657913E+02  0.52000942162E+02  0.36667518074E+02  0.78546129710E+02  0.47000000000E+01 0.  1.
</event>
<event>
12    1  0.9749377E-001  0.5147192E+03  0.7818608E-02  0.1010007E+00
         21   -1    0    0  501  502  0.00000000000E+00  0.00000000000E+00  0.66407127429E+03  0.66407127429E+03  0.00000000000E+00 0.  1.
         21   -1    0    0  502  503 -0.00000000000E+00 -0.00000000000E+00 -0.50840481791E+03  0.50840481791E+03  0.00000000000E+00 0. -1.
         -6    2    1    2    0  503 -0.48124662762E+03 -0.13079433009E+03  0.32275609977E+03  0.61892312390E+03  0.17374941719E+03 0.  0.
        -24    2    3    3    0    0 -0.32434272131E+03 -0.14172827101E+03  0.16610981208E+03  0.39689038683E+03  0.68149877632E+02 0.  0.
          6    2    1    2  501    0  0.48124662762E+03  0.13079433009E+03 -0.16708964339E+03  0.55355296830E+03  0.17261652993E+03 0.  0.
         24    2    5    5    0    0  0.48715953247E+03  0.13164193161E+03 -0.17749029262E+03  0.54067102836E+03  0.78538835640E+02 0.  0.
         12    1    6    6    0    0  0.16238145326E+03  0.27701808491E+02 -0.93741534556E+02  0.18953258785E+03  0.00000000000E+00 0. -1.
        -11    1    6    6    0    0  0.32477807921E+03  0.10394012312E+03 -0.83748758069E+02  0.35113844051E+03  0.00000000000E+00 0.  1.
          5    1    5    5  501    0 -0.59129048475E+01 -0.84760151674E+00  0.10400649233E+02  0.12881939937E+02  0.47000000000E+01 0. -1.
         11    1    4    4    0    0 -0.15370598373E+03 -0.99054811919E+02  0.10393701575E+03  0.21033375488E+03  0.00000000000E+00 0. -1.
        -12    1    4    4    0    0 -0.17063673758E+03 -0.42673459095E+02  0.62172796331E+02  0.18655663195E+03  0.00000000000E+00 0.  1.
         -5    1    3    3    0  503 -0.15690390631E+03  0.10933940920E+02  0.15664628769E+03  0.22203273706E+03  0.47000000000E+01 0.  1.
</event>
<event>
12    1  0.9749377E-001  0.2914739E+03  0.7818608E-02  0.1089582E+00
         21   -1    0    0  501  502  0.00000000000E+00  0.00000000000E+00  0.13154412329E+04  0.13154412329E+04  0.00000000000E+00 0.  1.
         21   -1    0    0  502  503 -0.00000000000E+00 -0.00000000000E+00 -0.93645954547E+02  0.93645954547E+02  0.00000000000E+00 0. -1.
         -6    2    1    2    0  503  0.24423077768E+03  0.11826550273E+03  0.89438799971E+03  0.95049205899E+03  0.17282898568E+03 0.  0.
        -24    2    3    3    0    0  0.10415669686E+03 -0.87319240260E+01  0.41487310268E+03  0.43502555088E+03  0.78757060577E+02 0.  0.
          6    2    1    2  501    0 -0.24423077768E+03 -0.11826550273E+03  0.32740727864E+03  0.45859512844E+03  0.17169322591E+03 0.  0.
         24    2    5    5    0    0 -0.23510397920E+03 -0.79023540032E+02  0.32913578703E+03  0.41799577095E+03  0.69796112467E+02 0.  0.
         14    1    6    6    0    0 -0.63219605032E+02 -0.14194562514E+02  0.14033471074E+03  0.15457048588E+03  0.00000000000E+00 0. -1.
        -13    1    6    6    0    0 -0.17188437417E+03 -0.64828977519E+02  0.18880107629E+03  0.26342528507E+03  0.00000000000E+00 0.  1.
          5    1    5    5  501    0 -0.91267984811E+01 -0.39241962702E+02 -0.17285083941E+01  0.40599357488E+02  0.47000000000E+01 0. -1.
         13    1    4    4    0    0  0.44207562522E+02 -0.24366726524E+00  0.57347111135E+02  0.72408971222E+02  0.00000000000E+00 0. -1.
        -14    1    4    4    0    0  0.59949134335E+02 -0.84882567607E+01  0.35752599154E+03  0.36261657965E+03  0.00000000000E+00 0.  1.
         -5    1    3    3    0  503  0.14007408082E+03  0.12699742676E+03  0.47951489703E+03  0.51546650812E+03  0.47000000000E+01 0.  1.
</event>
<event>
12    1  0.9749377E-001  0.3359573E+03  0.7818608E-02  0.1068531E+00
         21   -1    0    0  501  502  0.00000000000E+00  0.00000000000E+00  0.20766525084E+03  0.20766525084E+03  0.00000000000E+00 0.  1.
         21   -1    0    0  502  503 -0.00000000000E+00 -0.00000000000E+00 -0.63258482938E+03  0.63258482938E+03  0.00000000000E+00 0. -1.
         -6    2    1    2    0  503  0.49047741225E+02  0.31535413215E+03 -0.22190159187E+03  0.42449844111E+03  0.17060099778E+03 0.  0.
        -24    2    3    3    0    0 -0.32753981570E+02  0.11172886372E+03 -0.69175042339E+02  0.15709937467E+03  0.79616987784E+02 0.  0.
          6    2    1    2  501    0 -0.49047741225E+02 -0.31535413215E+03 -0.20301798668E+03  0.41575163911E+03  0.17256654637E+03 0.  0.
         24    2    5    5    0    0 -0.26086069771E+02 -0.19344870864E+03 -0.46807683710E+02  0.21622239466E+03  0.80363416980E+02 0.  0.
         12    1    6    6    0    0 -0.35379773307E+02 -0.46575122899E+02  0.83013664054E+01  0.59075232682E+02  0.00000000000E+00 0. -1.
        -11    1    6    6    0    0  0.92937035355E+01 -0.14687358574E+03 -0.55109050115E+02  0.15714716198E+03  0.00000000000E+00 0.  1.
          5    1    5    5  501    0 -0.22961671454E+02 -0.12190542352E+03 -0.15621030297E+03  0.19952924445E+03  0.47000000000E+01 0. -1.
         11    1    4    4    0    0  0.26436787858E-01  0.67882033360E+02 -0.76032236622E+02  0.10192581693E+03  0.00000000000E+00 0. -1.
        -12    1    4    4    0    0 -0.32780418358E+02  0.43846830359E+02  0.68571942824E+01  0.55173557740E+02  0.00000000000E+00 0.  1.
         -5    1    3    3    0  503  0.81801722795E+02  0.20362526843E+03 -0.15272654953E+03  0.26739906643E+03  0.47000000000E+01 0.  1.
</event>
<event>
12    1  0.9749377E-001  0.1992372E+03  0.7818608E-02  0.1150384E+00
         21   -1    0    0  501  502  0.00000000000E+00  0.00000000000E+00  0.72583480485E+02  0.72583480485E+02  0.00000000000E+00 0.  1.
         21   -1    0    0  502  503 -0.00000000000E+00 -0.00000000000E+00 -0.86952286651E+03  0.86952286651E+03  0.00000000000E+00 0. -1.
         -6    2    1    2    0  503  0.13293438379E+03  0.61755192449E+02 -0.60646907485E+03  0.64695258301E+03  0.17104868233E+03 0.  0.
        -24    2    3    3    0    0  0.75804410480E+02  0.10532314139E+03 -0.37808336058E+03  0.40748625029E+03  0.79112223246E+02 0.  0.
          6    2    1    2  501    0 -0.13293438379E+03 -0.61755192449E+02 -0.19047031117E+03  0.29515376398E+03  0.17132294291E+03 0.  0.
         24    2    5    5    0    0 -0.86742618683E+02 -0.49873747727E+01 -0.35419466474E+02  0.12363373970E+03  0.80508429273E+02 0.  0.
         14    1    6    6    0    0 -0.19693655497E+02  0.35070017736E+02 -0.93426848474E+01  0.41292032779E+02  0.00000000000E+00 0. -1.
        -13    1    6    6    0    0 -0.67048963186E+02 -0.40057392509E+02 -0.26076781626E+02  0.82341706922E+02  0.00000000000E+00 0.  1.
          5    1    5    5  501    0 -0.46191765109E+02 -0.56767817676E+02 -0.15505084470E+03  0.17152002428E+03  0.47000000000E+01 0. -1.
         13    1    4    4    0    0  0.15835826165E+02  0.28634670326E+01 -0.14519287945E+03  0.14608198067E+03  0.00000000000E+00 0. -1.
        -14    1    4    4    0    0  0.59968584315E+02  0.10245967435E+03 -0.23289048113E+03  0.26140426962E+03  0.00000000000E+00 0.  1.
         -5    1    3    3    0  503  0.57129973312E+02 -0.43567948937E+02 -0.22838571427E+03  0.23946633273E+03  0.47000000000E+01 0.  1.
</event>
<event>
12    1  0.9749377E-001  0.4979994E+03  0.7818608E-02  0.1014302E+00
         21   -1    0    0  503  502  0.00000000000E+00  0.00000000000E+00  0.14976662868E+04  0.14976662868E+04  0.00000000000E+00 0.  1.
         21   -1    0    0  501  503 -0.00000000000E+00 -0.00000000000E+00 -0.18468453913E+03  0.18468453913E+03  0.00000000000E+00 0. -1.
          6    2    1    2  501    0 -0.28028045156E+03  0.39707475991E+03  0.49317419178E+03  0.71356494046E+03  0.17241996499E+03 0.  0.
         24    2    3    3    0    0 -0.15227364062E+03  0.32642642725E+03  0.33948324346E+03  0.50138594020E+03  0.79984463520E+02 0.  0.
         -6    2    1    2    0  502  0.28028045156E+03 -0.39707475991E+03  0.81980755593E+03  0.96878588551E+03  0.17388549890E+03 0.  0.
        -24    2    5    5    0    0  0.64195352291E+02 -0.85938803931E+02  0.24674624959E+03  0.28182176414E+03  0.83864615785E+02 0.  0.
         12    1    4    4    0    0 -0.21530238953E+02  0.61287542771E+02  0.24553841802E+02  0.69444979916E+02  0.00000000000E+00 0. -1.
        -11    1    4    4    0    0 -0.13074340167E+03  0.26513888448E+03  0.31492940165E+03  0.43194096028E+03  0.00000000000E+00 0.  1.
          5    1    3    3  501    0 -0.12800681094E+03  0.70648332658E+02  0.15369094833E+03  0.21217900026E+03  0.47000000000E+01 0. -1.
         13    1    6    6    0    0  0.52928616641E+02 -0.50689414835E+02  0.22964474939E+03  0.24105511021E+03  0.00000000000E+00 0. -1.
        -14    1    6    6    0    0  0.11266735650E+02 -0.35249389096E+02  0.17101500202E+02  0.40766653934E+02  0.00000000000E+00 0.  1.
         -5    1    5    5    0  502  0.21608509927E+03 -0.31113595598E+03  0.57306130634E+03  0.68696412137E+03  0.47000000000E+01 0.  1.
</event>
<event>
12    1  0.1834203E+000  0.5899776E+03  0.7818608E-02  0.9926420E-01
         21   -1    0    0  501  502  0.00000000000E+00  0.00000000000E+00  0.95654824374E+03  0.95654824374E+03  0.00000000000E+00 0. -1.
         21   -1    0    0  502  503 -0.00000000000E+00 -0.00000000000E+00 -0.70403074116E+03  0.70403074116E+03  0.00000000000E+00 0.  1.
         -6    2    1    2    0  503 -0.11872958190E+03 -0.57159193718E+03  0.68296285937E+03  0.91497613212E+03  0.17299999651E+03 0.  0.
        -24    2    3    3    0    0 -0.12460813712E+03 -0.50239711081E+03  0.52146519027E+03  0.73911804008E+03  0.80246418795E+02 0.  0.
          6    2    1    2  501    0  0.11872958190E+03  0.57159193718E+03 -0.43044535679E+03  0.74560285279E+03  0.17270307650E+03 0.  0.
         24    2    5    5    0    0  0.53622861485E+02  0.46151613410E+03 -0.28161098292E+03  0.54931396285E+03  0.81046472939E+02 0.  0.
         14    1    6    6    0    0  0.44711396175E+02  0.34748452811E+03 -0.16966885352E+03  0.38927127569E+03  0.00000000000E+00 0. -1.
        -13    1    6    6    0    0  0.89114653098E+01  0.11403160599E+03 -0.11194212941E+03  0.16004268716E+03  0.00000000000E+00 0.  1.
          5    1    5    5  501    0  0.65106720411E+02  0.11007580309E+03 -0.14883437387E+03  0.19628888994E+03  0.47000000000E+01 0. -1.
         11    1    4    4    0    0 -0.54545720347E+02 -0.23124121875E+03  0.29613747699E+03  0.37966451260E+03  0.00000000000E+00 0. -1.
        -12    1    4    4    0    0 -0.70062416775E+02 -0.27115589206E+03  0.22532771328E+03  0.35945352748E+03  0.00000000000E+00 0.  1.
         -5    1    3    3    0  503  0.58785552263E+01 -0.69194826378E+02  0.16149766910E+03  0.17585809203E+03  0.47000000000E+01 0.  1.
</event>
<event>
12    1  0.9749377E-001  0.1925957E+03  0.7818608E-02  0.1156141E+00
         21   -1    0    0  501  502  0.00000000000E+00  0.00000000000E+00  0.14018911901E+04  0.14018911901E+04  0.00000000000E+00 0.  1.
         21   -1    0    0  502  503 -0.00000000000E+00 -0.00000000000E+00 -0.48102974580E+02  0.48102974580E+02  0.00000000000E+00 0.  1.
         -6    2    1    2    0  503 -0.15964653886E+03 -0.26166163599E+02  0.97742417603E+03  0.10060160288E+04  0.17475281088E+03 0.  0.
        -24    2    3    3    0    0 -0.17797242713E+03 -0.27631040053E+02  0.68065783092E+03  0.70864364002E+03  0.80268714674E+02 0.  0.
          6    2    1    2  501    0  0.15964653886E+03  0.26166163599E+02  0.37636403947E+03  0.44397813582E+03  0.17115784933E+03 0.  0.
         24    2    5    5    0    0  0.66319981225E+02  0.20151884604E+02  0.78781781105E+02  0.13201129718E+03  0.80099782692E+02 0.  0.
         14    1    6    6    0    0  0.65811083973E+02 -0.59035185223E+01  0.82487389334E+02  0.10568878703E+03  0.00000000000E+00 0. -1.
        -13    1    6    6    0    0  0.50889725149E+00  0.26055403126E+02 -0.37056082286E+01  0.26322510155E+02  0.00000000000E+00 0.  1.
          5    1    5    5  501    0  0.93326557640E+02  0.60142789952E+01  0.29758225837E+03  0.31196683864E+03  0.47000000000E+01 0. -1.
         11    1    4    4    0    0 -0.10249221616E+03 -0.10388360783E+02  0.52241152519E+03  0.53247194674E+03  0.00000000000E+00 0. -1.
        -12    1    4    4    0    0 -0.75480210968E+02 -0.17242679270E+02  0.15824630573E+03  0.17617169328E+03  0.00000000000E+00 0.  1.
         -5    1    3    3    0  503  0.18325888267E+02  0.14648764537E+01  0.29676634511E+03  0.29737238883E+03  0.47000000000E+01 0.  1.
</event>
<event>
12    1  0.9749377E-001  0.3117425E+03  0.7818608E-02  0.1079514E+00
         21   -1    0    0  501  502  0.00000000000E+00  0.00000000000E+00  0.62864734365E+02  0.62864734365E+02  0.00000000000E+00 0. -1.
         21   -1    0    0  502  503 -0.00000000000E+00 -0.00000000000E+00 -0.17354868756E+04  0.17354868756E+04  0.00000000000E+00 0.  1.
         -6    2    1    2    0  503 -0.13611507570E+03 -0.23676656319E+03 -0.63971734353E+03  0.71624203016E+03  0.17081758363E+03 0.  0.
        -24    2    3    3    0    0 -0.28210943027E+02 -0.18166184533E+03 -0.39832458358E+03  0.44610801465E+03  0.80950623837E+02 0.  0.
          6    2    1    2  501    0  0.13611507570E+03  0.23676656319E+03 -0.10329047977E+04  0.10821095798E+04  0.17170644223E+03 0.  0.
         24    2    5    5    0    0  0.13563678082E+03  0.25809554501E+03 -0.96385111502E+03  0.10096826834E+04  0.73752983308E+02 0.  0.
         14    1    6    6    0    0  0.85780278322E+02  0.14395074508E+03 -0.66764388662E+03  0.68835196847E+03  0.00000000000E+00 0. -1.
        -13    1    6    6    0    0  0.49856502501E+02  0.11414479994E+03 -0.29620722839E+03  0.32133071491E+03  0.00000000000E+00 0.  1.
          5    1    5    5  501    0  0.47829487219E+00 -0.21328981821E+02 -0.69053682673E+02  0.72426896400E+02  0.47000000000E+01 0. -1.
         11    1    4    4    0    0 -0.35919889505E+01  0.11690660732E+01 -0.65225639254E+02  0.65334930292E+02  0.00000000000E+00 0. -1.
        -12    1    4    4    0    0 -0.24618954077E+02 -0.18283091140E+03 -0.33309894432E+03  0.38077308436E+03  0.00000000000E+00 0.  1.
         -5    1    3    3    0  503 -0.10790413267E+03 -0.55104717867E+02 -0.24139275996E+03  0.27013401552E+03  0.47000000000E+01 0.  1.
</event>
<event>
12    1  0.9749377E-001  0.2528451E+03  0.7818608E-02  0.1111520E+00
         21   -1    0    0  501  502  0.00000000000E+00  0.00000000000E+00  0.15392804908E+04  0.15392804908E+04  0.00000000000E+00 0. -1.
         21   -1    0    0  502  503 -0.00000000000E+00 -0.00000000000E+00 -0.53816910505E+02  0.53816910505E+02  0.00000000000E+00 0.  1.
         -6    2    1    2    0  503  0.21897413584E+03  0.45979244909E+02  0.58204626457E+03  0.64671434416E+03  0.17145794154E+03 0.  0.
        -24    2    3    3    0    0  0.22735501659E+03  0.22037484204E+02  0.46408914576E+03  0.52596907947E+03  0.95335109304E+02 0.  0.
          6    2    1    2  501    0 -0.21897413584E+03 -0.45979244909E+02  0.90341731577E+03  0.94638305718E+03  0.17150592226E+03 0.  0.
         24    2    5    5    0    0 -0.10398820808E+03 -0.12507870758E+02  0.25595221013E+03  0.28791874571E+03  0.80097915142E+02 0.  0.
         12    1    6    6    0    0 -0.11092114284E+03  0.67241684167E+01  0.20891352959E+03  0.23662962033E+03  0.00000000000E+00 0. -1.
        -11    1    6    6    0    0  0.69329347685E+01 -0.19232039175E+02  0.47038680540E+02  0.51289125380E+02  0.00000000000E+00 0.  1.
          5    1    5    5  501    0 -0.11498592776E+03 -0.33471374150E+02  0.64746510563E+03  0.65846431147E+03  0.47000000000E+01 0. -1.
         11    1    4    4    0    0  0.48995445481E+02  0.27258105394E+01  0.33262558894E+02  0.59282219469E+02  0.00000000000E+00 0. -1.
        -12    1    4    4    0    0  0.17835957111E+03  0.19311673664E+02  0.43082658686E+03  0.46668686000E+03  0.00000000000E+00 0.  1.
         -5    1    3    3    0  503 -0.83808807512E+01  0.23941760705E+02  0.11795711881E+03  0.12074526470E+03  0.47000000000E+01 0.  1.
</event>
<event>
12    1  0.1147545E+000  0.9738836E+03  0.7818608E-02  0.9337662E-01
         21   -1    0    0  503  502  0.00000000000E+00  0.00000000000E+00  0.17363832685E+04  0.17363832685E+04  0.00000000000E+00 0. -1.
         21   -1    0    0  501  503 -0.00000000000E+00 -0.00000000000E+00 -0.57844375605E+03  0.57844375605E+03  0.00000000000E+00 0.  1.
          6    2    1    2  501    0 -0.16189398149E+03 -0.95286772597E+03  0.81215908943E+03  0.12739988945E+04  0.17118478943E+03 0.  0.
         24    2    3    3    0    0 -0.11175387673E+03 -0.44795425602E+03  0.32027796152E+03  0.56730180502E+03  0.78111592574E+02 0.  0.
         -6    2    1    2    0  502  0.16189398149E+03  0.95286772597E+03  0.34578042297E+03  0.10408281300E+04  0.17202479738E+03 0.  0.
        -24    2    5    5    0    0  0.64093694135E+02  0.27062005674E+03  0.13926568266E+03  0.32131634671E+03  0.80660074110E+02 0.  0.
         12    1    4    4    0    0 -0.11167434910E+03 -0.42850166972E+03  0.28377828166E+03  0.52594196860E+03  0.00000000000E+00 0. -1.
        -11    1    4    4    0    0 -0.79527635417E-01 -0.19452586302E+02  0.36499679864E+02  0.41359836419E+02  0.00000000000E+00 0.  1.
          5    1    3    3  501    0 -0.50140104755E+02 -0.50491346995E+03  0.49188112791E+03  0.70669708945E+03  0.47000000000E+01 0. -1.
         13    1    6    6    0    0 -0.18287187737E+02  0.41034348473E+02  0.30148827075E+02  0.54103518961E+02  0.00000000000E+00 0. -1.
        -14    1    6    6    0    0  0.82380881872E+02  0.22958570826E+03  0.10911685559E+03  0.26721282774E+03  0.00000000000E+00 0.  1.
         -5    1    5    5    0  502  0.97800287352E+02  0.68224766923E+03  0.20651474031E+03  0.71951178332E+03  0.47000000000E+01 0.  1.
</event>
<event>
12    1  0.9749377E-001  0.4566830E+03  0.7818608E-02  0.1025748E+00
         21   -1    0    0  501  502  0.00000000000E+00  0.00000000000E+00  0.74644676341E+03  0.74644676341E+03  0.00000000000E+00 0. -1.
         21   -1    0    0  502  503 -0.00000000000E+00 -0.00000000000E+00 -0.30841435697E+03  0.30841435697E+03  0.00000000000E+00 0.  1.
         -6    2    1    2    0  503 -0.42182111877E+03  0.14031895913E+03  0.16408769014E+03  0.50416495816E+03  0.17214839079E+03 0.  0.
        -24    2    3    3    0    0 -0.30514460520E+03  0.72886077341E+02  0.17626068634E+03  0.36877339934E+03  0.80624935096E+02 0.  0.
          6    2    1    2  501    0  0.42182111877E+03 -0.14031895913E+03  0.27394471629E+03  0.55069616223E+03  0.17492309447E+03 0.  0.
         24    2    5    5    0    0  0.14972549327E+03 -0.11535485671E+03  0.11188929431E+03  0.23298043140E+03  0.77692991505E+02 0.  0.
         14    1    6    6    0    0  0.98858049887E+01 -0.17840144069E+02 -0.10667720940E+02  0.23017388009E+02  0.00000000000E+00 0. -1.
        -13    1    6    6    0    0  0.13983968828E+03 -0.97514712645E+02  0.12255701525E+03  0.20996304339E+03  0.00000000000E+00 0.  1.
          5    1    5    5  501    0  0.27209562550E+03 -0.24964102411E+02  0.16205542198E+03  0.31771573083E+03  0.47000000000E+01 0. -1.
         11    1    4    4    0    0 -0.14401309139E+02 -0.82156817309E+00 -0.82572796402E+01  0.16620930967E+02  0.00000000000E+00 0. -1.
        -12    1    4    4    0    0 -0.29074329606E+03  0.73707645514E+02  0.18451796598E+03  0.35215246837E+03  0.00000000000E+00 0.  1.
         -5    1    3    3    0  503 -0.11667651356E+03  0.67432881784E+02 -0.12172996194E+02  0.13539155882E+03  0.47000000000E+01 0.  1.
</event>
<event>
12    1  0.9749377E-001  0.4711224E+03  0.7818608E-02  0.1021604E+00
         21   -1    0    0  503  502  0.00000000000E+00  0.00000000000E+00  0.13900334507E+04  0.13900334507E+04  0.00000000000E+00 0.  1.
         21   -1    0    0  501  503 -0.00000000000E+00 -0.00000000000E+00 -0.30811611545E+03  0.30811611545E+03  0.00000000000E+00 0. -1.
          6    2    1    2  501    0  0.12506739908E+03 -0.44951032047E+03  0.10922528107E+04  0.12005995584E+04  0.17527610967E+03 0.  0.
         24    2    3    3    0    0  0.81977411824E+02 -0.19343988965E+03  0.63820234490E+03  0.67751951860E+03  0.87127367064E+02 0.  0.
         -6    2    1    2    0  502 -0.12506739908E+03  0.44951032047E+03 -0.10335475485E+02  0.49755000772E+03  0.17247552177E+03 0.  0.
        -24    2    5    5    0    0 -0.38010705621E+02  0.24338614415E+03  0.57062613562E+02  0.26381803227E+03  0.75247480888E+02 0.  0.
         12    1    4    4    0    0  0.80983912505E+02 -0.16476653041E+03  0.43289921698E+03  0.47022136881E+03  0.00000000000E+00 0. -1.
        -11    1    4    4    0    0  0.99349931987E+00 -0.28673359240E+02  0.20530312792E+03  0.20729814979E+03  0.00000000000E+00 0.  1.
          5    1    3    3  501    0  0.43089987260E+02 -0.25607043082E+03  0.45405046583E+03  0.52308003982E+03  0.47000000000E+01 0. -1.
         13    1    6    6    0    0 -0.39739296234E+01  0.43479106478E+02 -0.18493444706E+02  0.47415528193E+02  0.00000000000E+00 0. -1.
        -14    1    6    6    0    0 -0.34036775997E+02  0.19990703767E+03  0.75556058268E+02  0.21640250408E+03  0.00000000000E+00 0.  1.
         -5    1    5    5    0  502 -0.87056693464E+02  0.20612417632E+03 -0.67398089047E+02  0.23373197545E+03  0.47000000000E+01 0.  1.
</event>
<event>
12    1  0.9749377E-001  0.2349283E+03  0.7818608E-02  0.1123218E+00
         21   -1    0    0  501  502  0.00000000000E+00  0.00000000000E+00  0.87226207451E+03  0.87226207451E+03  0.00000000000E+00 0. -1.
         21   -1    0    0  502  503 -0.00000000000E+00 -0.00000000000E+00 -0.77244950407E+02  0.77244950407E+02  0.00000000000E+00 0.  1.
         -6    2    1    2    0  503  0.19151309833E+03 -0.23155850670E+02  0.42889011597E+03  0.50118583593E+03  0.17328315068E+03 0.  0.
        -24    2    3    3    0    0  0.56860232793E+02  0.92887609996E+01  0.76204902256E+02  0.12224916972E+03  0.76277816016E+02 0.  0.
          6    2    1    2  501    0 -0.19151309833E+03  0.23155850670E+02  0.36612700813E+03  0.44832118899E+03  0.17242227861E+03 0.  0.
         24    2    5    5    0    0 -0.11416179952E+03  0.79550479108E+02  0.19776022550E+03  0.25458672887E+03  0.79649862082E+02 0.  0.
         12    1    6    6    0    0 -0.22791916671E+02  0.52868863167E+02  0.39203635722E+02  0.69652804766E+02  0.00000000000E+00 0. -1.
        -11    1    6    6    0    0 -0.91369882849E+02  0.26681615942E+02  0.15855658978E+03  0.18493392410E+03  0.00000000000E+00 0.  1.
          5    1    5    5  501    0 -0.77351298807E+02 -0.56394628438E+02  0.16836678263E+03  0.19373446012E+03  0.47000000000E+01 0. -1.
         11    1    4    4    0    0  0.63259148105E+02 -0.84420311855E+01  0.80684984025E+02  0.10287397317E+03  0.00000000000E+00 0. -1.
        -12    1    4    4    0    0 -0.63989153121E+01  0.17730792185E+02 -0.44800817688E+01  0.19375196550E+02  0.00000000000E+00 0.  1.
         -5    1    3    3    0  503  0.13465286553E+03 -0.32444611670E+02  0.35268521371E+03  0.37893666621E+03  0.47000000000E+01 0.  1.
</event>
<event>
12    1  0.9749377E-001  0.5138716E+03  0.7818608E-02  0.1010220E+00
         21   -1    0    0  503  502  0.00000000000E+00  0.00000000000E+00  0.42813573082E+03  0.42813573082E+03  0.00000000000E+00 0. -1.
         21   -1    0    0  501  503 -0.00000000000E+00 -0.00000000000E+00 -0.10535964843E+04  0.10535964843E+04  0.00000000000E+00 0.  1.
          6    2    1    2  501    0  0.44639613327E+03  0.21302538239E+03 -0.77754979549E+03  0.93747156558E+03  0.17210441735E+03 0.  0.
         24    2    3    3    0    0  0.36429755906E+03  0.21905000655E+03 -0.70788490269E+03  0.82952825049E+03  0.79501358490E+02 0.  0.
         -6    2    1    2    0  502 -0.44639613327E+03 -0.21302538239E+03  0.15208904200E+03  0.54426064954E+03  0.16863942778E+03 0.  0.
        -24    2    5    5    0    0 -0.14628625595E+03 -0.25092699623E+02  0.54380753857E+02  0.17690029336E+03  0.79417473823E+02 0.  0.
         12    1    4    4    0    0  0.27119559256E+03  0.12188281785E+03 -0.50646957094E+03  0.58729370591E+03  0.00000000000E+00 0. -1.
        -11    1    4    4    0    0  0.93101966500E+02  0.97167188700E+02 -0.20141533175E+03  0.24223454458E+03  0.00000000000E+00 0.  1.
          5    1    3    3  501    0  0.82098574218E+02 -0.60246241606E+01 -0.69664892800E+02  0.10794331509E+03  0.47000000000E+01 0. -1.
         11    1    6    6    0    0 -0.17440205060E+02  0.16362379919E+02 -0.11306304886E+02  0.26452235431E+02  0.00000000000E+00 0. -1.
        -12    1    6    6    0    0 -0.12884605089E+03 -0.41455079542E+02  0.65687058743E+02  0.15044805793E+03  0.00000000000E+00 0.  1.
         -5    1    5    5    0  502 -0.30010987733E+03 -0.18793268277E+03  0.97708288140E+02  0.36736035618E+03  0.47000000000E+01 0.  1.
</event>
<event>
12    1  0.9749377E-001  0.3664028E+03  0.7818608E-02  0.1056077E+00
         21   -1    0    0  503  502  0.00000000000E+00  0.00000000000E+00  0.54051113296E+03  0.54051113296E+03  0.00000000000E+00 0.  1.
         21   -1    0    0  501  503 -0.00000000000E+00 -0.00000000000E+00 -0.29067930300E+03  0.29067930300E+03  0.00000000000E+00 0. -1.
          6    2    1    2  501    0 -0.32633351188E+03 -0.13894333642E+03  0.16891995350E+03  0.42907318354E+03  0.17254284811E+03 0.  0.
         24    2    3    3    0    0 -0.24369085023E+03 -0.13253245649E+03  0.18719434815E+03  0.34406169958E+03  0.79916497860E+02 0.  0.
         -6    2    1    2    0  502  0.32633351188E+03  0.13894333642E+03  0.80911876451E+02  0.40211725242E+03  0.17132641722E+03 0.  0.
        -24    2    5    5    0    0  0.30720951747E+03  0.10831277972E+03  0.26635949193E+02  0.33675729186E+03  0.81158203236E+02 0.  0.
         12    1    4    4    0    0 -0.89540159450E+02 -0.57810468660E+02  0.11881182914E+03  0.15961121886E+03  0.00000000000E+00 0. -1.
        -11    1    4    4    0    0 -0.15415069078E+03 -0.74721987825E+02  0.68382519006E+02  0.18445048072E+03  0.00000000000E+00 0.  1.
          5    1    3    3  501    0 -0.82642661647E+02 -0.64108799335E+01 -0.18274394647E+02  0.85011483961E+02  0.47000000000E+01 0. -1.
         13    1    6    6    0    0  0.18936383346E+03  0.10725552225E+03  0.11417940573E+02  0.21792837778E+03  0.00000000000E+00 0. -1.
        -14    1    6    6    0    0  0.11784568401E+03  0.10572574714E+01  0.15218008620E+02  0.11882891408E+03  0.00000000000E+00 0.  1.
         -5    1    5    5    0  502  0.19123994401E+02  0.30630556697E+02  0.54275927258E+02  0.65359960566E+02  0.47000000000E+01 0.  1.
</event>
<event>
12    1  0.9749377E-001  0.2372702E+03  0.7818608E-02  0.1121625E+00
         21   -1    0    0  501  502  0.00000000000E+00  0.00000000000E+00  0.69499779865E+03  0.69499779865E+03  0.00000000000E+00 0. -1.
         21   -1    0    0  502  503 -0.00000000000E+00 -0.00000000000E+00 -0.19279458750E+03  0.19279458750E+03  0.00000000000E+00 0.  1.
         -6    2    1    2    0  503 -0.18780109404E+03  0.27615256554E+02  0.56799744041E+03  0.62304645873E+03  0.17185442708E+03 0.  0.
        -24    2    3    3    0    0 -0.15739747907E+03  0.71645397225E+02  0.51027103816E+03  0.54419558297E+03  0.76585055860E+02 0.  0.
          6    2    1    2  501    0  0.18780109404E+03 -0.27615256554E+02 -0.65794229262E+02  0.26474592742E+03  0.17242294559E+03 0.  0.
         24    2    5    5    0    0  0.17317334436E+03  0.27899826528E+02 -0.73723345491E+02  0.20660079526E+03  0.80506828369E+02 0.  0.
         14    1    6    6    0    0  0.93122370221E+02  0.33093635743E+02 -0.78541697586E+02  0.12623693129E+03  0.00000000000E+00 0. -1.
        -13    1    6    6    0    0  0.80050974139E+02 -0.51938092146E+01  0.48183520951E+01  0.80363863967E+02  0.00000000000E+00 0.  1.
          5    1    5    5  501    0  0.14627749678E+02 -0.55515083082E+02  0.79291162291E+01  0.58145132164E+02  0.47000000000E+01 0. -1.
         13    1    4    4    0    0 -0.10970542289E+03  0.15959058636E+02  0.24379120865E+03  0.26781360081E+03  0.00000000000E+00 0. -1.
        -14    1    4    4    0    0 -0.47692056178E+02  0.55686338589E+02  0.26647982952E+03  0.27638198217E+03  0.00000000000E+00 0.  1.
         -5    1    3    3    0  503 -0.30403614972E+02 -0.44030140671E+02  0.57726402243E+02  0.78850875751E+02  0.47000000000E+01 0.  1.
</event>
<event>
12    1  0.9749377E-001  0.6793406E+03  0.7818608E-02  0.9753230E-01
         21   -1    0    0  501  502  0.00000000000E+00  0.00000000000E+00  0.41931982504E+03  0.41931982504E+03  0.00000000000E+00 0.  1.
         21   -1    0    0  502  503 -0.00000000000E+00 -0.00000000000E+00 -0.12522946142E+04  0.12522946142E+04  0.00000000000E+00 0. -1.
         -6    2    1    2    0  503 -0.42849530106E+03 -0.51418613542E+03 -0.66058161738E+03  0.95599529423E+03  0.17193988623E+03 0.  0.
        -24    2    3    3    0    0 -0.93671302398E+02 -0.18303592177E+03 -0.20123022922E+03  0.29812497123E+03  0.78156456972E+02 0.  0.
          6    2    1    2  501    0  0.42849530106E+03  0.51418613542E+03 -0.17239317173E+03  0.71561914497E+03  0.18546091259E+03 0.  0.
         24    2    5    5    0    0  0.42065249778E+03  0.46099635007E+03 -0.19256921962E+03  0.65800121601E+03  0.80103291192E+02 0.  0.
         12    1    6    6    0    0  0.11150451573E+03  0.78604153900E+02 -0.26405657677E+02  0.13895729126E+03  0.00000000000E+00 0. -1.
        -11    1    6    6    0    0  0.30914798205E+03  0.38239219617E+03 -0.16616356194E+03  0.51904392475E+03  0.00000000000E+00 0.  1.
          5    1    5    5  501    0  0.78428032799E+01  0.53189785348E+02  0.20176047891E+02  0.57617928956E+02  0.47000000000E+01 0. -1.
         11    1    4    4    0    0 -0.92476792248E+02 -0.18062710058E+03 -0.16430497536E+03  0.26110195613E+03  0.00000000000E+00 0. -1.
        -12    1    4    4    0    0 -0.11945101503E+01 -0.24088211911E+01 -0.36925253865E+02  0.37023015099E+02  0.00000000000E+00 0.  1.
         -5    1    3    3    0  503 -0.33482399866E+03 -0.33115021365E+03 -0.45935138816E+03  0.65787032300E+03  0.47000000000E+01 0.  1.
</event>
<event>
12    1  0.9749377E-001  0.4296389E+03  0.7818608E-02  0.1033974E+00
         21   -1    0    0  501  502  0.00000000000E+00  0.00000000000E+00  0.11873305309E+04  0.11873305309E+04  0.00000000000E+00 0.  1.
         21   -1    0    0  502  503 -0.00000000000E+00 -0.00000000000E+00 -0.24584345726E+03  0.24584345726E+03  0.00000000000E+00 0. -1.
         -6    2    1    2    0  503 -0.33873423782E+03  0.23696178724E+03  0.87172500332E+03  0.97998576485E+03  0.17197629316E+03 0.  0.
        -24    2    3    3    0    0 -0.13634189448E+03  0.56579075149E+02  0.42235162752E+03  0.45514378450E+03  0.83574298442E+02 0.  0.
          6    2    1    2  501    0  0.33873423782E+03 -0.23696178724E+03  0.69762070333E+02  0.45318822333E+03  0.17210766056E+03 0.  0.
         24    2    5    5    0    0  0.30396251442E+03 -0.20583372893E+03  0.10994969327E+03  0.39142121111E+03  0.79755221226E+02 0.  0.
         12    1    6    6    0    0  0.13923123714E+03 -0.47984859756E+02  0.50019233285E+02  0.15553072964E+03  0.00000000000E+00 0. -1.
        -11    1    6    6    0    0  0.16473127728E+03 -0.15784886918E+03  0.59930459982E+02  0.23589048147E+03  0.00000000000E+00 0.  1.
          5    1    5    5  501    0  0.34771723402E+02 -0.31128058305E+02 -0.40187622933E+02  0.61767012225E+02  0.47000000000E+01 0. -1.
         13    1    4    4    0    0 -0.14091221323E+03  0.65795100158E+02  0.41273535367E+03  0.44106203556E+03  0.00000000000E+00 0. -1.
        -14    1    4    4    0    0  0.45703187436E+01 -0.92160250087E+01  0.96162738488E+01  0.14081748937E+02  0.00000000000E+00 0.  1.
         -5    1    3    3    0  503 -0.20239234334E+03  0.18038271209E+03  0.44937337579E+03  0.52484198035E+03  0.47000000000E+01 0.  1.
</event>
<event>
12    1  0.9749377E-001  0.6679839E+03  0.7818608E-02  0.9773607E-01
         21   -1    0    0  501  502  0.00000000000E+00  0.00000000000E+00  0.12799420313E+04  0.12799420313E+04  0.00000000000E+00 0.  1.
         21   -1    0    0  502  503 -0.00000000000E+00 -0.00000000000E+00 -0.37644188636E+03  0.37644188636E+03  0.00000000000E+00 0. -1.
         -6    2    1    2    0  503  0.31060215981E+03 -0.58081861674E+03  0.29012350037E+03  0.74031899038E+03  0.17342605001E+03 0.  0.
        -24    2    3    3    0    0  0.22298297719E+03 -0.39451995668E+03  0.26878593526E+03  0.53328833181E+03  0.82359950924E+02 0.  0.
          6    2    1    2  501    0 -0.31060215981E+03  0.58081861674E+03  0.61337664452E+03  0.91606492723E+03  0.17064605365E+03 0.  0.
         24    2    5    5    0    0 -0.13808821533E+03  0.38654925052E+03  0.41536984167E+03  0.58936868962E+03  0.79590631660E+02 0.  0.
         14    1    6    6    0    0 -0.11479176024E+03  0.36021230301E+03  0.35028327237E+03  0.51539152337E+03  0.00000000000E+00 0. -1.
        -13    1    6    6    0    0 -0.23296455088E+02  0.26336947512E+02  0.65086569295E+02  0.73977166251E+02  0.00000000000E+00 0.  1.
          5    1    5    5  501    0 -0.17251394448E+03  0.19426936622E+03  0.19800680285E+03  0.32669623761E+03  0.47000000000E+01 0. -1.
         13    1    4    4    0    0  0.12393282637E+03 -0.27569077171E+03  0.14544157237E+03  0.33543702543E+03  0.00000000000E+00 0. -1.
        -14    1    4    4    0    0  0.99050150823E+02 -0.11882918497E+03  0.12334436289E+03  0.19785130638E+03  0.00000000000E+00 0.  1.
         -5    1    3    3    0  503  0.87619182618E+02 -0.18629866006E+03  0.21337565107E+02  0.20703065857E+03  0.47000000000E+01 0.  1.
</event>
<event>
12    1  0.9749377E-001  0.5914453E+03  0.7818608E-02  0.9923315E-01
         21   -1    0    0  501  502  0.00000000000E+00  0.00000000000E+00  0.10852469524E+04  0.10852469524E+04  0.00000000000E+00 0.  1.
         21   -1    0    0  502  503 -0.00000000000E+00 -0.00000000000E+00 -0.38704846824E+03  0.38704846824E+03  0.00000000000E+00 0. -1.
         -6    2    1    2    0  503 -0.57666471424E+03 -0.32594118683E+02  0.78365163775E+02  0.60779460596E+03  0.17224579797E+03 0.  0.
        -24    2    3    3    0    0 -0.51252186323E+03 -0.40231225799E+02  0.20654200180E+02  0.52104625693E+03  0.82252015497E+02 0.  0.
          6    2    1    2  501    0  0.57666471424E+03  0.32594118683E+02  0.61983332042E+03  0.86450081470E+03  0.17194110705E+03 0.  0.
         24    2    5    5    0    0  0.46942932885E+03  0.80931081547E+02  0.52447943871E+03  0.71300710983E+03  0.79916971244E+02 0.  0.
         12    1    6    6    0    0  0.34342233184E+03  0.87781384985E+02  0.41655740484E+03  0.54695935962E+03  0.00000000000E+00 0. -1.
        -11    1    6    6    0    0  0.12600699701E+03 -0.68503034385E+01  0.10792203387E+03  0.16604775021E+03  0.00000000000E+00 0.  1.
          5    1    5    5  501    0  0.10723538539E+03 -0.48336962864E+02  0.95353881703E+02  0.15149370487E+03  0.47000000000E+01 0. -1.
         13    1    4    4    0    0  0.44097654989E+00  0.47920680740E+01  0.32696026382E+01  0.58179616839E+01  0.00000000000E+00 0. -1.
        -14    1    4    4    0    0 -0.51296283978E+03 -0.45023293873E+02  0.17384597542E+02  0.51522829525E+03  0.00000000000E+00 0.  1.
         -5    1    3    3    0  503 -0.64142851007E+02  0.76371071165E+01  0.57710963595E+02  0.86748349030E+02  0.47000000000E+01 0.  1.
</event>
<event>
12    1  0.9749377E-001  0.4705409E+03  0.7818608E-02  0.1021768E+00
         21   -1    0    0  501  502  0.00000000000E+00  0.00000000000E+00  0.17783404644E+03  0.17783404644E+03  0.00000000000E+00 0.  1.
         21   -1    0    0  502  503 -0.00000000000E+00 -0.00000000000E+00 -0.13660241535E+04  0.13660241535E+04  0.00000000000E+00 0. -1.
         -6    2    1    2    0  503 -0.44863283771E+03 -0.77207740155E+02 -0.47833983397E+03  0.68340343538E+03  0.17606476230E+03 0.  0.
        -24    2    3    3    0    0 -0.20584137328E+03  0.20813966389E+01 -0.14784791159E+03  0.26569365196E+03  0.79744018981E+02 0.  0.
          6    2    1    2  501    0  0.44863283771E+03  0.77207740155E+02 -0.70985027309E+03  0.86045476455E+03  0.17106295165E+03 0.  0.
         24    2    5    5    0    0  0.20385782541E+03  0.14155528604E+01 -0.41872209162E+03  0.47259271389E+03  0.80347161988E+02 0.  0.
         12    1    6    6    0    0  0.40699032117E+01  0.99791696735E+01 -0.28611076204E+01  0.11150510138E+02  0.00000000000E+00 0. -1.
        -11    1    6    6    0    0  0.19978792220E+03 -0.85636168131E+01 -0.41586098400E+03  0.46144220375E+03  0.00000000000E+00 0.  1.
          5    1    5    5  501    0  0.24477501230E+03  0.75792187295E+02 -0.29112818147E+03  0.38786205066E+03  0.47000000000E+01 0. -1.
         11    1    4    4    0    0 -0.15906893439E+03 -0.30006836255E+02 -0.12509948032E+03  0.20458058580E+03  0.00000000000E+00 0. -1.
        -12    1    4    4    0    0 -0.46772438896E+02  0.32088232894E+02 -0.22748431271E+02  0.61113066162E+02  0.00000000000E+00 0.  1.
         -5    1    3    3    0  503 -0.24279146443E+03 -0.79289136794E+02 -0.33049192238E+03  0.41770978343E+03  0.47000000000E+01 0.  1.
</event>
<event>
12    1  0.9749377E-001  0.5326793E+03  0.7818608E-02  0.1005584E+00
         21   -1    0    0  503  502  0.00000000000E+00  0.00000000000E+00  0.31820695749E+03  0.31820695749E+03  0.00000000000E+00 0.  1.
         21   -1    0    0  501  503 -0.00000000000E+00 -0.00000000000E+00 -0.10944437728E+04  0.10944437728E+04  0.00000000000E+00 0. -1.
          6    2    1    2  501    0 -0.43394022267E+00  0.51693314124E+03 -0.11721394703E+03  0.55754196936E+03  0.17289845981E+03 0.  0.
         24    2    3    3    0    0  0.58289786525E+02  0.29536225595E+03 -0.10121560307E+03  0.32771557771E+03  0.80723850968E+02 0.  0.
         -6    2    1    2    0  502  0.43394022267E+00 -0.51693314124E+03 -0.65902286825E+03  0.85510876089E+03  0.17227823793E+03 0.  0.
        -24    2    5    5    0    0 -0.52898905021E+02 -0.19174017737E+03 -0.28250072322E+03  0.35472303785E+03  0.80369056165E+02 0.  0.
         14    1    4    4    0    0  0.27048087212E+02  0.21080091281E+03 -0.10588789741E+03  0.23744656384E+03  0.00000000000E+00 0. -1.
        -13    1    4    4    0    0  0.31241699313E+02  0.84561343137E+02  0.46722943411E+01  0.90269013861E+02  0.00000000000E+00 0.  1.
          5    1    3    3  501    0 -0.58723726747E+02  0.22157088529E+03 -0.15998343962E+02  0.22982639166E+03  0.47000000000E+01 0. -1.
         11    1    6    6    0    0 -0.54616604473E+02 -0.11740842864E+03 -0.12232673332E+03  0.17813349568E+03  0.00000000000E+00 0. -1.
        -12    1    6    6    0    0  0.17176994518E+01 -0.74331748732E+02 -0.16017398990E+03  0.17658954217E+03  0.00000000000E+00 0.  1.
         -5    1    5    5    0  502  0.53332845243E+02 -0.32519296387E+03 -0.37652214503E+03  0.50038572304E+03  0.47000000000E+01 0.  1.
</event>
<event>
12    1  0.9749377E-001  0.7543269E+03  0.7818608E-02  0.9628586E-01
         21   -1    0    0  503  502  0.00000000000E+00  0.00000000000E+00  0.10633836614E+04  0.10633836614E+04  0.00000000000E+00 0.  1.
         21   -1    0    0  501  503 -0.00000000000E+00 -0.00000000000E+00 -0.55096057992E+03  0.55096057992E+03  0.00000000000E+00 0. -1.
          6    2    1    2  501    0  0.19638215047E+03 -0.71070312332E+03  0.14871258302E+03  0.77408198889E+03  0.18281852931E+03 0.  0.
         24    2    3    3    0    0  0.19219364911E+03 -0.41871441954E+03  0.77833311331E+02  0.47354761843E+03  0.77001030342E+02 0.  0.
         -6    2    1    2    0  502 -0.19638215047E+03  0.71070312332E+03  0.36371049851E+03  0.84026225247E+03  0.17346598422E+03 0.  0.
        -24    2    5    5    0    0 -0.68786574957E+02  0.49547343676E+03  0.25704178273E+03  0.56822410479E+03  0.81133444191E+02 0.  0.
         12    1    4    4    0    0  0.11093048423E+03 -0.29958220075E+03  0.26830597870E+02  0.32058532143E+03  0.00000000000E+00 0. -1.
        -11    1    4    4    0    0  0.81263164877E+02 -0.11913221880E+03  0.51002713461E+02  0.15296229699E+03  0.00000000000E+00 0.  1.
          5    1    3    3  501    0  0.41885013653E+01 -0.29198870377E+03  0.70879271691E+02  0.30053437047E+03  0.47000000000E+01 0. -1.
         13    1    6    6    0    0  0.49251924774E+00  0.16580031917E+03  0.11938359376E+03  0.20430964459E+03  0.00000000000E+00 0. -1.
        -14    1    6    6    0    0 -0.69279094205E+02  0.32967311759E+03  0.13765818898E+03  0.36391446021E+03  0.00000000000E+00 0.  1.
         -5    1    5    5    0  502 -0.12759557551E+03  0.21522968655E+03  0.10666871577E+03  0.27203814767E+03  0.47000000000E+01 0.  1.
</event>
<event>
12    1  0.9749377E-001  0.3498661E+03  0.7818608E-02  0.1062670E+00
         21   -1    0    0  501  502  0.00000000000E+00  0.00000000000E+00  0.12744741402E+04  0.12744741402E+04  0.00000000000E+00 0. -1.
         21   -1    0    0  502  503 -0.00000000000E+00 -0.00000000000E+00 -0.14483438528E+03  0.14483438528E+03  0.00000000000E+00 0.  1.
         -6    2    1    2    0  503  0.12211688454E+02  0.31275742320E+03  0.17017804713E+03  0.39550689944E+03  0.17175217226E+03 0.  0.
        -24    2    3    3    0    0 -0.56436203623E+02  0.14126360411E+03  0.89636444094E+02  0.19393382859E+03  0.80219616279E+02 0.  0.
          6    2    1    2  501    0 -0.12211688454E+02 -0.31275742320E+03  0.95946170782E+03  0.10238016261E+04  0.17215304143E+03 0.  0.
         24    2    5    5    0    0  0.40943037133E+02 -0.10405835271E+03  0.29260179669E+03  0.32301281484E+03  0.78847917322E+02 0.  0.
         12    1    6    6    0    0  0.40627070755E+02 -0.90945686448E+01  0.80760235249E+02  0.90859703139E+02  0.00000000000E+00 0. -1.
        -11    1    6    6    0    0  0.31596637818E+00 -0.94963784066E+02  0.21184156145E+03  0.23215311171E+03  0.00000000000E+00 0.  1.
          5    1    5    5  501    0 -0.53154725587E+02 -0.20869907049E+03  0.66685991112E+03  0.70078881122E+03  0.47000000000E+01 0. -1.
         11    1    4    4    0    0 -0.30868364953E+02  0.13228791171E+03  0.47638295173E+02  0.14395261271E+03  0.00000000000E+00 0. -1.
        -12    1    4    4    0    0 -0.25567838670E+02  0.89756924079E+01  0.41998148921E+02  0.49981215884E+02  0.00000000000E+00 0.  1.
         -5    1    3    3    0  503  0.68647892077E+02  0.17149381909E+03  0.80541603035E+02  0.20157307085E+03  0.47000000000E+01 0.  1.
</event>
<event>
12    1  0.9749377E-001  0.2014974E+03  0.7818608E-02  0.1148482E+00
         21   -1    0    0  503  502  0.00000000000E+00  0.00000000000E+00  0.18221647476E+03  0.18221647476E+03  0.00000000000E+00 0. -1.
         21   -1    0    0  501  503 -0.00000000000E+00 -0.00000000000E+00 -0.38435963557E+03  0.38435963557E+03  0.00000000000E+00 0.  1.
          6    2    1    2  501    0 -0.11558685542E+03  0.10761358570E+03 -0.23220926756E+03  0.32735096803E+03  0.16821565729E+03 0.  0.
         24    2    3    3    0    0 -0.28035788337E+02  0.10797343113E+03 -0.10470480946E+03  0.17260990796E+03  0.79917557178E+02 0.  0.
         -6    2    1    2    0  502  0.11558685542E+03 -0.10761358570E+03  0.30066106751E+02  0.23922514230E+03  0.17715443251E+03 0.  0.
        -24    2    5    5    0    0  0.10003267558E+03 -0.12469857896E+03 -0.23608829037E+02  0.18059990680E+03  0.80639182481E+02 0.  0.
         14    1    4    4    0    0 -0.44763652997E+01  0.61569472246E+02 -0.72843371356E+01  0.62160271287E+02  0.00000000000E+00 0. -1.
        -13    1    4    4    0    0 -0.23559423037E+02  0.46403958881E+02 -0.97420472323E+02  0.11044963667E+03  0.00000000000E+00 0.  1.
          5    1    3    3  501    0 -0.87551067081E+02 -0.35984542287E+00 -0.12750445810E+03  0.15474106007E+03  0.47000000000E+01 0. -1.
         13    1    6    6    0    0  0.58457257398E+02 -0.12319694117E+03 -0.95916806622E+01  0.13669944255E+03  0.00000000000E+00 0. -1.
        -14    1    6    6    0    0  0.41575418182E+02 -0.15016377892E+01 -0.14017148375E+02  0.43900464253E+02  0.00000000000E+00 0.  1.
         -5    1    5    5    0  502  0.15554179838E+02  0.17084993253E+02  0.53674935788E+02  0.58625235494E+02  0.47000000000E+01 0.  1.
</event>
<event>
12    1  0.9749377E-001  0.3464197E+03  0.7818608E-02  0.1064094E+00
         21   -1    0    0  501  502  0.00000000000E+00  0.00000000000E+00  0.73152891819E+02  0.73152891819E+02  0.00000000000E+00 0.  1.
         21   -1    0    0  502  503 -0.00000000000E+00 -0.00000000000E+00 -0.20394090773E+04  0.20394090773E+04  0.00000000000E+00 0. -1.
         -6    2    1    2    0  503  0.31971180284E+03 -0.40857566697E+02 -0.13276299882E+04  0.13768262860E+04  0.17077546277E+03 0.  0.
        -24    2    3    3    0    0  0.21551301706E+03 -0.44289128044E+01 -0.11002626170E+04  0.11240369562E+04  0.80098544054E+02 0.  0.
          6    2    1    2  501    0 -0.31971180284E+03  0.40857566697E+02 -0.63862619732E+03  0.73573568313E+03  0.17198429551E+03 0.  0.
         24    2    5    5    0    0 -0.24689886067E+03 -0.30737209292E+02 -0.49056865132E+03  0.55581719208E+03  0.79820585801E+02 0.  0.
         14    1    6    6    0    0 -0.14026902209E+03 -0.45180889332E+02 -0.22163486874E+03  0.26615545525E+03  0.00000000000E+00 0. -1.
        -13    1    6    6    0    0 -0.10662983858E+03  0.14443680040E+02 -0.26893378258E+03  0.28966173683E+03  0.00000000000E+00 0.  1.
          5    1    5    5  501    0 -0.72812942164E+02  0.71594775988E+02 -0.14805754600E+03  0.17991849105E+03  0.47000000000E+01 0. -1.
         11    1    4    4    0    0  0.34822180691E+02 -0.25623599353E+02 -0.31632552349E+03  0.31926633071E+03  0.00000000000E+00 0. -1.
        -12    1    4    4    0    0  0.18069083637E+03  0.21194686549E+02 -0.78393709349E+03  0.80477062548E+03  0.00000000000E+00 0.  1.
         -5    1    3    3    0  503  0.10419878577E+03 -0.36428653892E+02 -0.22736737117E+03  0.25278932978E+03  0.47000000000E+01 0.  1.
</event>
<event>
12    1  0.9749377E-001  0.2954887E+03  0.7818608E-02  0.1087518E+00
         21   -1    0    0  503  502  0.00000000000E+00  0.00000000000E+00  0.68871973187E+03  0.68871973187E+03  0.00000000000E+00 0.  1.
         21   -1    0    0  501  503 -0.00000000000E+00 -0.00000000000E+00 -0.15820987703E+03  0.15820987703E+03  0.00000000000E+00 0.  1.
          6    2    1    2  501    0 -0.26056226057E+03  0.94540411087E+02  0.33196189993E+03  0.46603547663E+03  0.17366571773E+03 0.  0.
         24    2    3    3    0    0 -0.10296766003E+03  0.34161560867E+02  0.62742680417E+02  0.14825765830E+03  0.79210719247E+02 0.  0.
         -6    2    1    2    0  502  0.26056226057E+03 -0.94540411087E+02  0.19854795491E+03  0.38089413227E+03  0.16978948328E+03 0.  0.
        -24    2    5    5    0    0  0.18856693402E+03 -0.87682137095E+02  0.70462271928E+02  0.23372621745E+03  0.80108471368E+02 0.  0.
         12    1    4    4    0    0 -0.76891213819E+02 -0.10257058797E+02  0.17094378678E+02  0.79433518115E+02  0.00000000000E+00 0. -1.
        -11    1    4    4    0    0 -0.26076446216E+02  0.44418619663E+02  0.45648301739E+02  0.68824140181E+02  0.00000000000E+00 0.  1.
          5    1    3    3  501    0 -0.15759460054E+03  0.60378850220E+02  0.26921921951E+03  0.31777781834E+03  0.47000000000E+01 0. -1.
         11    1    6    6    0    0  0.92999319037E+02 -0.32261096161E+01  0.46230742370E+02  0.10390650925E+03  0.00000000000E+00 0. -1.
        -12    1    6    6    0    0  0.95567614984E+02 -0.84456027479E+02  0.24231529558E+02  0.12981970820E+03  0.00000000000E+00 0.  1.
         -5    1    5    5    0  502  0.71995326551E+02 -0.68582739919E+01  0.12808568298E+03  0.14716791482E+03  0.47000000000E+01 0.  1.
</event>
<event>
12    1  0.9749377E-001  0.2711934E+03  0.7818608E-02  0.1100599E+00
         21   -1    0    0  503  502  0.00000000000E+00  0.00000000000E+00  0.95702710057E+03  0.95702710057E+03  0.00000000000E+00 0. -1.
         21   -1    0    0  501  503 -0.00000000000E+00 -0.00000000000E+00 -0.84953106423E+02  0.84953106423E+02  0.00000000000E+00 0.  1.
          6    2    1    2  501    0  0.13796328879E+03  0.18113580928E+03  0.48261645662E+03  0.55894472301E+03  0.16630246158E+03 0.  0.
         24    2    3    3    0    0  0.15926171776E+03  0.16450313872E+03  0.36405197028E+03  0.43724880596E+03  0.78912000714E+02 0.  0.
         -6    2    1    2    0  502 -0.13796328879E+03 -0.18113580928E+03  0.38945753753E+03  0.48303548398E+03  0.17263271645E+03 0.  0.
        -24    2    5    5    0    0 -0.16600389303E+03 -0.12554164575E+03  0.29695726031E+03  0.37143182010E+03  0.80374033230E+02 0.  0.
         14    1    4    4    0    0  0.39774862857E+02  0.76625810678E+02  0.18916277108E+03  0.20793294241E+03  0.00000000000E+00 0. -1.
        -13    1    4    4    0    0  0.11948685490E+03  0.87877328044E+02  0.17488919920E+03  0.22931586355E+03  0.00000000000E+00 0.  1.
          5    1    3    3  501    0 -0.21298428972E+02  0.16632670562E+02  0.11856448633E+03  0.12169591705E+03  0.47000000000E+01 0. -1.
         13    1    6    6    0    0 -0.10018220164E+03 -0.11271003685E+03  0.24002077737E+03  0.28346075478E+03  0.00000000000E+00 0. -1.
        -14    1    6    6    0    0 -0.65821691391E+02 -0.12831608900E+02  0.56936482936E+02  0.87971065320E+02  0.00000000000E+00 0.  1.
         -5    1    5    5    0  502  0.28040604241E+02 -0.55594163530E+02  0.92500277226E+02  0.11160366388E+03  0.47000000000E+01 0.  1.
</event>
<event>
12    1  0.9749377E-001  0.6885508E+03  0.7818608E-02  0.9737015E-01
         21   -1    0    0  501  502  0.00000000000E+00  0.00000000000E+00  0.19509249564E+03  0.19509249564E+03  0.00000000000E+00 0. -1.
         21   -1    0    0  502  503 -0.00000000000E+00 -0.00000000000E+00 -0.25720292316E+04  0.25720292316E+04  0.00000000000E+00 0.  1.
         -6    2    1    2    0  503 -0.66457916395E+03  0.12249458546E+03 -0.14321573947E+04  0.15928927567E+04  0.17193644912E+03 0.  0.
        -24    2    3    3    0    0 -0.30347936130E+03  0.28226379314E+02 -0.78320574576E+03  0.84426741995E+03  0.80497111593E+02 0.  0.
          6    2    1    2  501    0  0.66457916395E+03 -0.12249458546E+03 -0.94477934122E+03  0.11742289705E+04  0.17185832234E+03 0.  0.
         24    2    5    5    0    0  0.30846939888E+03 -0.42538948260E+01 -0.48946339747E+03  0.58420378093E+03  0.80920791677E+02 0.  0.
         14    1    6    6    0    0  0.35227722268E+02  0.24659014014E+02 -0.84691916114E+02  0.94983051348E+02  0.00000000000E+00 0. -1.
        -13    1    6    6    0    0  0.27324167661E+03 -0.28912908840E+02 -0.40477148135E+03  0.48922072958E+03  0.00000000000E+00 0.  1.
          5    1    5    5  501    0  0.35610976507E+03 -0.11824069063E+03 -0.45531594376E+03  0.59002518958E+03  0.47000000000E+01 0. -1.
         13    1    4    4    0    0 -0.21309467264E+03  0.47745393913E+02 -0.61022004317E+03  0.64811840217E+03  0.00000000000E+00 0. -1.
        -14    1    4    4    0    0 -0.90384688663E+02 -0.19519014599E+02 -0.17298570259E+03  0.19614901778E+03  0.00000000000E+00 0.  1.
         -5    1    3    3    0  503 -0.36109980265E+03  0.94268206146E+02 -0.64895164893E+03  0.74862533674E+03  0.47000000000E+01 0.  1.
</event>
<event>
12    1  0.9749377E-001  0.3298143E+03  0.7818608E-02  0.1071219E+00
         21   -1    0    0  503  502  0.00000000000E+00  0.00000000000E+00  0.10330324431E+03  0.10330324431E+03  0.00000000000E+00 0.  1.
         21   -1    0    0  501  503 -0.00000000000E+00 -0.00000000000E+00 -0.15743964296E+04  0.15743964296E+04  0.00000000000E+00 0. -1.
          6    2    1    2  501    0  0.69131565281E+01  0.31213455826E+03 -0.34993064695E+03  0.50120551524E+03  0.17686078323E+03 0.  0.
         24    2    3    3    0    0 -0.51950131345E+02  0.15385935494E+03 -0.12580005187E+03  0.22054105312E+03  0.80256998537E+02 0.  0.
         -6    2    1    2    0  502 -0.69131565281E+01 -0.31213455826E+03 -0.11211625384E+04  0.11764941587E+04  0.17221293165E+03 0.  0.
        -24    2    5    5    0    0 -0.10907749297E+02 -0.28858350199E+03 -0.11096596428E+04  0.11495680444E+04  0.82235937033E+02 0.  0.
         12    1    4    4    0    0 -0.59898534124E+02  0.14663551981E+03 -0.13364077524E+03  0.20724301403E+03  0.00000000000E+00 0. -1.
        -11    1    4    4    0    0  0.79484027788E+01  0.72238351275E+01  0.78407233681E+01  0.13298039089E+02  0.00000000000E+00 0.  1.
          5    1    3    3  501    0  0.58863287873E+02  0.15827520332E+03 -0.22413059508E+03  0.28066446212E+03  0.47000000000E+01 0. -1.
         11    1    6    6    0    0  0.27088133702E+02 -0.64913407350E+02 -0.19871782732E+03  0.21079917537E+03  0.00000000000E+00 0. -1.
        -12    1    6    6    0    0 -0.37995882999E+02 -0.22367009464E+03 -0.91094181548E+03  0.93876886908E+03  0.00000000000E+00 0.  1.
         -5    1    5    5    0  502  0.39945927689E+01 -0.23551056268E+02 -0.11502895581E+02  0.26926114266E+02  0.47000000000E+01 0.  1.
</event>
<event>
12    1  0.9749377E-001  0.3603758E+03  0.7818608E-02  0.1058435E+00
         21   -1    0    0  503  502  0.00000000000E+00  0.00000000000E+00  0.44896314813E+03  0.44896314813E+03  0.00000000000E+00 0. -1.
         21   -1    0    0  501  503 -0.00000000000E+00 -0.00000000000E+00 -0.43718697459E+03  0.43718697459E+03  0.00000000000E+00 0.  1.
          6    2    1    2  501    0 -0.34085789198E+03 -0.30600317053E+02  0.22797815739E+03  0.44649584982E+03  0.17396557627E+03 0.  0.
         24    2    3    3    0    0 -0.29033570660E+03 -0.53680914898E+02  0.12669944871E+03  0.33089017502E+03  0.79114439092E+02 0.  0.
         -6    2    1    2    0  502  0.34085789198E+03  0.30600317053E+02 -0.21620198384E+03  0.43965427290E+03  0.17155786176E+03 0.  0.
        -24    2    5    5    0    0  0.19707887632E+03  0.81983453761E+02 -0.15589232276E+03  0.27542279813E+03  0.77420483446E+02 0.  0.
         12    1    4    4    0    0 -0.21898777257E+03 -0.55730589075E+02  0.12760246323E+03  0.25950709377E+03  0.00000000000E+00 0. -1.
        -11    1    4    4    0    0 -0.71347934022E+02  0.20496741768E+01 -0.90301451919E+00  0.71383081250E+02  0.00000000000E+00 0.  1.
          5    1    3    3  501    0 -0.50522185389E+02  0.23080597845E+02  0.10127870868E+03  0.11560567480E+03  0.47000000000E+01 0. -1.
         13    1    6    6    0    0  0.14093557701E+02  0.13526845483E+02 -0.48935439400E+02  0.52690427467E+02  0.00000000000E+00 0. -1.
        -14    1    6    6    0    0  0.18298531862E+03  0.68456608278E+02 -0.10695688336E+03  0.22273237067E+03  0.00000000000E+00 0.  1.
         -5    1    5    5    0  502  0.14377901567E+03 -0.51383136708E+02 -0.60309661085E+02  0.16423147477E+03  0.47000000000E+01 0.  1.
</event>
<event>
12    1  0.9749377E-001  0.2092727E+03  0.7818608E-02  0.1142143E+00
         21   -1    0    0  503  502  0.00000000000E+00  0.00000000000E+00  0.20578585423E+03  0.20578585423E+03  0.00000000000E+00 0. -1.
         21   -1    0    0  501  503 -0.00000000000E+00 -0.00000000000E+00 -0.35034069770E+03  0.35034069770E+03  0.00000000000E+00 0.  1.
          6    2    1    2  501    0 -0.14419852773E+03 -0.89125495497E+02  0.48684782181E+02  0.24665982813E+03  0.17243634608E+03 0.  0.
         24    2    3    3    0    0 -0.17259002084E+03 -0.74321380747E+02  0.58309310036E+02  0.21289653102E+03  0.81326344777E+02 0.  0.
         -6    2    1    2    0  502  0.14419852773E+03  0.89125495497E+02 -0.19323962566E+03  0.30946672380E+03  0.17231230620E+03 0.  0.
        -24    2    5    5    0    0  0.13397590584E+03  0.97718290973E+02 -0.21550541370E+03  0.28308124580E+03  0.78701973635E+02 0.  0.
         12    1    4    4    0    0 -0.74351889039E+02  0.10314312526E+02  0.22931823096E+02  0.78488578514E+02  0.00000000000E+00 0. -1.
        -11    1    4    4    0    0 -0.98238131804E+02 -0.84635693273E+02  0.35377486941E+02  0.13440795251E+03  0.00000000000E+00 0.  1.
          5    1    3    3  501    0  0.28391493113E+02 -0.14804114750E+02 -0.96245278557E+01  0.33763297102E+02  0.47000000000E+01 0. -1.
         11    1    6    6    0    0  0.99389539469E+02  0.59899502453E+02 -0.87924467147E+02  0.14559169919E+03  0.00000000000E+00 0. -1.
        -12    1    6    6    0    0  0.34586366367E+02  0.37818788519E+02 -0.12758094655E+03  0.13748954661E+03  0.00000000000E+00 0.  1.
         -5    1    5    5    0  502  0.10222621893E+02 -0.85927954753E+01  0.22265788040E+02  0.26385478004E+02  0.47000000000E+01 0.  1.
</event>
<event>
12    1  0.9749377E-001  0.2419900E+03  0.7818608E-02  0.1118474E+00
         21   -1    0    0  501  502  0.00000000000E+00  0.00000000000E+00  0.67085283275E+02  0.67085283275E+02  0.00000000000E+00 0. -1.
         21   -1    0    0  502  503 -0.00000000000E+00 -0.00000000000E+00 -0.10663879355E+04  0.10663879355E+04  0.00000000000E+00 0.  1.
         -6    2    1    2    0  503  0.11051983966E+03 -0.15853947232E+03 -0.63579294882E+03  0.68671820859E+03  0.17320457557E+03 0.  0.
        -24    2    3    3    0    0  0.14623723638E+03 -0.14351640072E+03 -0.53796694182E+03  0.58139279497E+03  0.81405558578E+02 0.  0.
          6    2    1    2  501    0 -0.11051983966E+03  0.15853947232E+03 -0.36350970336E+03  0.44675501014E+03  0.17349736426E+03 0.  0.
         24    2    5    5    0    0 -0.28632432788E+01  0.11634852318E+03 -0.17067072384E+03  0.22185729793E+03  0.80913457861E+02 0.  0.
         14    1    6    6    0    0  0.36188943415E+01  0.61766658239E+02 -0.26030473326E+02  0.67125271007E+02  0.00000000000E+00 0. -1.
        -13    1    6    6    0    0 -0.64821376203E+01  0.54581864938E+02 -0.14464025051E+03  0.15473202692E+03  0.00000000000E+00 0.  1.
          5    1    5    5  501    0 -0.10765659638E+03  0.42190949147E+02 -0.19283897953E+03  0.22489771221E+03  0.47000000000E+01 0. -1.
         13    1    4    4    0    0 -0.34266028989E+01  0.17217770766E+01  0.57727456675E+00  0.38780626160E+01  0.00000000000E+00 0. -1.
        -14    1    4    4    0    0  0.14966383928E+03 -0.14523817780E+03 -0.53854421639E+03  0.57751473235E+03  0.00000000000E+00 0.  1.
         -5    1    3    3    0  503 -0.35717396727E+02 -0.15023071605E+02 -0.97826006999E+02  0.10532541362E+03  0.47000000000E+01 0.  1.
</event>
<event>
12    1  0.9749377E-001  0.1142359E+04  0.7818608E-02  0.9164862E-01
         21   -1    0    0  501  502  0.00000000000E+00  0.00000000000E+00  0.11042623190E+04  0.11042623190E+04  0.00000000000E+00 0. -1.
         21   -1    0    0  502  503 -0.00000000000E+00 -0.00000000000E+00 -0.12209952096E+04  0.12209952096E+04  0.00000000000E+00 0.  1.
         -6    2    1    2    0  503  0.10496035799E+04  0.44160376138E+03 -0.20795312456E+03  0.11702121554E+04  0.17166953593E+03 0.  0.
        -24    2    3    3    0    0  0.56850324324E+03  0.21189103311E+03 -0.49482908248E+02  0.61401041956E+03  0.80414486478E+02 0.  0.
          6    2    1    2  501    0 -0.10496035799E+04 -0.44160376138E+03  0.91220234022E+02  0.11550453732E+04  0.17066670999E+03 0.  0.
         24    2    5    5    0    0 -0.64611163986E+03 -0.30289697629E+03 -0.27953999426E+01  0.71811706399E+03  0.80482755385E+02 0.  0.
         12    1    6    6    0    0 -0.65344046151E+02 -0.38414607075E+02 -0.24301902424E+02  0.79599678803E+02  0.00000000000E+00 0. -1.
        -11    1    6    6    0    0 -0.58076759371E+03 -0.26448236922E+03  0.21506502481E+02  0.63851738518E+03  0.00000000000E+00 0.  1.
          5    1    5    5  501    0 -0.40349194008E+03 -0.13870678509E+03  0.94015633965E+02  0.43692830919E+03  0.47000000000E+01 0. -1.
         13    1    4    4    0    0  0.37345545962E+03  0.10238388436E+03 -0.49002683692E+02  0.39032384388E+03  0.00000000000E+00 0. -1.
        -14    1    4    4    0    0  0.19504778362E+03  0.10950714875E+03 -0.48022455570E+00  0.22368657568E+03  0.00000000000E+00 0.  1.
         -5    1    3    3    0  503  0.48110033670E+03  0.22971272828E+03 -0.15847021631E+03  0.55620173585E+03  0.47000000000E+01 0.  1.
</event>
<event>
12    1  0.9749377E-001  0.2139144E+03  0.7818608E-02  0.1138503E+00
         21   -1    0    0  503  502  0.00000000000E+00  0.00000000000E+00  0.70836676142E+03  0.70836676142E+03  0.00000000000E+00 0.  1.
         21   -1    0    0  501  503 -0.00000000000E+00 -0.00000000000E+00 -0.82134930907E+02  0.82134930907E+02  0.00000000000E+00 0. -1.
          6    2    1    2  501    0 -0.11306317304E+03 -0.99567205716E+02  0.43974758755E+03  0.49535112608E+03  0.17116625778E+03 0.  0.
         24    2    3    3    0    0 -0.28368627623E+02 -0.11427909669E+03  0.29619278653E+03  0.32796033585E+03  0.77222562254E+02 0.  0.
         -6    2    1    2    0  502  0.11306317304E+03  0.99567205716E+02  0.18648424297E+03  0.29515056625E+03  0.17216438171E+03 0.  0.
        -24    2    5    5    0    0  0.16101799889E+02 -0.24052754835E+02  0.55682270939E+02  0.90664262510E+02  0.65434625580E+02 0.  0.
         12    1    4    4    0    0  0.83324707242E+01 -0.93332189294E+02  0.16062364130E+03  0.18595774189E+03  0.00000000000E+00 0. -1.
        -11    1    4    4    0    0 -0.36701098347E+02 -0.20946907397E+02  0.13556914524E+03  0.14200259395E+03  0.00000000000E+00 0.  1.
          5    1    3    3  501    0 -0.84694545420E+02  0.14711890975E+02  0.14355480101E+03  0.16739079023E+03  0.47000000000E+01 0. -1.
         11    1    6    6    0    0  0.28764150859E+02 -0.20877004989E+02  0.65370263893E+02  0.74407641499E+02  0.00000000000E+00 0. -1.
        -12    1    6    6    0    0 -0.12662350971E+02 -0.31757498461E+01 -0.96879929547E+01  0.16256621011E+02  0.00000000000E+00 0.  1.
         -5    1    5    5    0  502  0.96961373154E+02  0.12361996055E+03  0.13080197203E+03  0.20448630374E+03  0.47000000000E+01 0.  1.
</event>
<event>
12    1  0.9749377E-001  0.3790242E+03  0.7818608E-02  0.1051295E+00
         21   -1    0    0  503  502  0.00000000000E+00  0.00000000000E+00  0.14862430590E+04  0.14862430590E+04  0.00000000000E+00 0.  1.
         21   -1    0    0  501  503 -0.00000000000E+00 -0.00000000000E+00 -0.12416729516E+03  0.12416729516E+03  0.00000000000E+00 0. -1.
          6    2    1    2  501    0 -0.27298302508E+03 -0.22629999676E+03  0.10015484713E+04  0.10762444742E+04  0.17167238389E+03 0.  0.
         24    2    3    3    0    0 -0.27206187656E+03 -0.20538547534E+03  0.79565646365E+03  0.86923753101E+03  0.79396593183E+02 0.  0.
         -6    2    1    2    0  502  0.27298302508E+03  0.22629999676E+03  0.36052729254E+03  0.53416587995E+03  0.17210995937E+03 0.  0.
        -24    2    5    5    0    0  0.53813743243E+02  0.52627943473E+02  0.14141464337E+03  0.17887782889E+03  0.79583647275E+02 0.  0.
         12    1    4    4    0    0 -0.22904491177E+03 -0.13740413611E+03  0.56497341117E+03  0.62492913482E+03  0.00000000000E+00 0. -1.
        -11    1    4    4    0    0 -0.43016964793E+02 -0.67981339228E+02  0.23068305248E+03  0.24430839618E+03  0.00000000000E+00 0.  1.
          5    1    3    3  501    0 -0.92114851897E+00 -0.20914521430E+02  0.20589200762E+03  0.20700694317E+03  0.47000000000E+01 0. -1.
         11    1    6    6    0    0  0.30538037357E+02  0.72560527774E+02  0.97196269644E+02  0.12507884213E+03  0.00000000000E+00 0. -1.
        -12    1    6    6    0    0  0.23275705887E+02 -0.19932584301E+02  0.44218373723E+02  0.53798986757E+02  0.00000000000E+00 0.  1.
         -5    1    5    5    0  502  0.21916928184E+03  0.17367205329E+03  0.21911264917E+03  0.35528805106E+03  0.47000000000E+01 0.  1.
</event>
<event>
12    1  0.9749377E-001  0.3183451E+03  0.7818608E-02  0.1076413E+00
         21   -1    0    0  501  502  0.00000000000E+00  0.00000000000E+00  0.22291288360E+03  0.22291288360E+03  0.00000000000E+00 0. -1.
         21   -1    0    0  502  503 -0.00000000000E+00 -0.00000000000E+00 -0.69583155787E+03  0.69583155787E+03  0.00000000000E+00 0.  1.
         -6    2    1    2    0  503  0.21221014411E+03  0.20416779609E+03 -0.46612125423E+03  0.57764658009E+03  0.17230471155E+03 0.  0.
        -24    2    3    3    0    0  0.88187852556E+02  0.17600201441E+03 -0.26331620147E+03  0.33821638257E+03  0.79379424716E+02 0.  0.
          6    2    1    2  501    0 -0.21221014411E+03 -0.20416779609E+03 -0.67974200391E+01  0.34109786138E+03  0.17199974388E+03 0.  0.
         24    2    5    5    0    0 -0.15163509590E+03 -0.12855704560E+03  0.61606672197E+02  0.22240695234E+03  0.78417817525E+02 0.  0.
         12    1    6    6    0    0 -0.46688933405E+02 -0.89562538307E+02  0.19957708162E+02  0.10295443111E+03  0.00000000000E+00 0. -1.
        -11    1    6    6    0    0 -0.10494616250E+03 -0.38994507297E+02  0.41648964035E+02  0.11945252122E+03  0.00000000000E+00 0.  1.
          5    1    5    5  501    0 -0.60575048207E+02 -0.75610750484E+02 -0.68404092236E+02  0.11869090904E+03  0.47000000000E+01 0. -1.
         11    1    4    4    0    0  0.19799888753E+02  0.74432726020E+02 -0.16166255042E+03  0.17907274083E+03  0.00000000000E+00 0. -1.
        -12    1    4    4    0    0  0.68387963804E+02  0.10156928839E+03 -0.10165365105E+03  0.15914364175E+03  0.00000000000E+00 0.  1.
         -5    1    3    3    0  503  0.12402229155E+03  0.28165781681E+02 -0.20280505276E+03  0.23943019752E+03  0.47000000000E+01 0.  1.
</event>
<event>
12    1  0.9749377E-001  0.3737509E+03  0.7818608E-02  0.1053268E+00
         21   -1    0    0  501  502  0.00000000000E+00  0.00000000000E+00  0.43127091253E+03  0.43127091253E+03  0.00000000000E+00 0.  1.
         21   -1    0    0  502  503 -0.00000000000E+00 -0.00000000000E+00 -0.37539986500E+03  0.37539986500E+03  0.00000000000E+00 0. -1.
         -6    2    1    2    0  503  0.24700797669E+03  0.24266890065E+03  0.14019416912E+03  0.41149977185E+03  0.17255874735E+03 0.  0.
        -24    2    3    3    0    0  0.73310564797E+02  0.50179074706E+02  0.83329048600E+02  0.14602123049E+03  0.80536271115E+02 0.  0.
          6    2    1    2  501    0 -0.24700797669E+03 -0.24266890065E+03 -0.84323121584E+02  0.39517100568E+03  0.17072960788E+03 0.  0.
         24    2    5    5    0    0 -0.25272151919E+03 -0.20822267446E+03 -0.10663578877E+03  0.35346810191E+03  0.79647091592E+02 0.  0.
         12    1    6    6    0    0 -0.22242626622E+03 -0.15102000229E+03 -0.65303690202E+02  0.27666777360E+03  0.00000000000E+00 0. -1.
        -11    1    6    6    0    0 -0.30295252968E+02 -0.57202672171E+02 -0.41332098563E+02  0.76800328304E+02  0.00000000000E+00 0.  1.
          5    1    5    5  501    0  0.57135424985E+01 -0.34446226187E+02  0.22312667181E+02  0.41702903774E+02  0.47000000000E+01 0. -1.
         11    1    4    4    0    0  0.86193096670E+02  0.22866319295E+02  0.56054510945E+02  0.10532913495E+03  0.00000000000E+00 0. -1.
        -12    1    4    4    0    0 -0.12882531873E+02  0.27312755410E+02  0.27274537655E+02  0.40692095545E+02  0.00000000000E+00 0.  1.
         -5    1    3    3    0  503  0.17369741189E+03  0.19248982594E+03  0.56865120516E+02  0.26547854136E+03  0.47000000000E+01 0.  1.
</event>
<event>
12    1  0.9749377E-001  0.5306685E+03  0.7818608E-02  0.1006070E+00
         21   -1    0    0  503  502  0.00000000000E+00  0.00000000000E+00  0.15761467054E+03  0.15761467054E+03  0.00000000000E+00 0. -1.
         21   -1    0    0  501  503 -0.00000000000E+00 -0.00000000000E+00 -0.18269794191E+04  0.18269794191E+04  0.00000000000E+00 0.  1.
          6    2    1    2  501    0 -0.49217628827E+03 -0.12436277805E+03 -0.88070195762E+03  0.10310685729E+04  0.17251917146E+03 0.  0.
         24    2    3    3    0    0 -0.40135821953E+03 -0.42139862985E+02 -0.63720503569E+03  0.75844911217E+03  0.79690713364E+02 0.  0.
         -6    2    1    2    0  502  0.49217628827E+03  0.12436277805E+03 -0.78866279098E+03  0.95352551681E+03  0.17180894630E+03 0.  0.
        -24    2    5    5    0    0  0.38829643880E+03  0.34127442485E+02 -0.60274231969E+03  0.72217740129E+03  0.79391991235E+02 0.  0.
         12    1    4    4    0    0 -0.42280986930E+02  0.37332554362E+00 -0.30385033337E+02  0.52067950590E+02  0.00000000000E+00 0. -1.
        -11    1    4    4    0    0 -0.35907723260E+03 -0.42513188529E+02 -0.60682000236E+03  0.70638116158E+03  0.00000000000E+00 0.  1.
          5    1    3    3  501    0 -0.90818068740E+02 -0.82222915060E+02 -0.24349692193E+03  0.27261946071E+03  0.47000000000E+01 0. -1.
         13    1    6    6    0    0  0.19988783565E+03  0.55824799568E+02 -0.33479551046E+03  0.39390301967E+03  0.00000000000E+00 0. -1.
        -14    1    6    6    0    0  0.18840860315E+03 -0.21697357083E+02 -0.26794680923E+03  0.32827438161E+03  0.00000000000E+00 0.  1.
         -5    1    5    5    0  502  0.10387984947E+03  0.90235335561E+02 -0.18592047129E+03  0.23134811552E+03  0.47000000000E+01 0.  1.
</event>
<event>
12    1  0.9749377E-001  0.1268386E+04  0.7818608E-02  0.9055018E-01
         21   -1    0    0  501  502  0.00000000000E+00  0.00000000000E+00  0.89818985922E+03  0.89818985922E+03  0.00000000000E+00 0.  1.
         21   -1    0    0  502  503 -0.00000000000E+00 -0.00000000000E+00 -0.20019125841E+04  0.20019125841E+04  0.00000000000E+00 0. -1.
         -6    2    1    2    0  503 -0.53405019671E+03 -0.11437101643E+04 -0.99044777859E+02  0.12776928349E+04  0.17148340987E+03 0.  0.
        -24    2    3    3    0    0 -0.52510905139E+03 -0.10612768069E+04 -0.11656179094E+03  0.11928156399E+04  0.84702555500E+02 0.  0.
          6    2    1    2  501    0  0.53405019671E+03  0.11437101643E+04 -0.10046779470E+04  0.16224096084E+04  0.17190871910E+03 0.  0.
         24    2    5    5    0    0  0.30934329691E+03  0.58048767007E+03 -0.45405568542E+03  0.80331270707E+03  0.80532784783E+02 0.  0.
         12    1    6    6    0    0  0.29654511382E+03  0.50203592509E+03 -0.39468199415E+03  0.70409725970E+03  0.00000000000E+00 0. -1.
        -11    1    6    6    0    0  0.12798183091E+02  0.78451744985E+02 -0.59373691279E+02  0.99215447374E+02  0.00000000000E+00 0.  1.
          5    1    5    5  501    0  0.22470689979E+03  0.56322249420E+03 -0.55062226155E+03  0.81909690130E+03  0.47000000000E+01 0. -1.
         11    1    4    4    0    0 -0.86915334367E+02 -0.21091891741E+03 -0.52273934714E+02  0.23403766646E+03  0.00000000000E+00 0. -1.
        -12    1    4    4    0    0 -0.43819371703E+03 -0.85035788950E+03 -0.64287856225E+02  0.95877797343E+03  0.00000000000E+00 0.  1.
         -5    1    3    3    0  503 -0.89411453119E+01 -0.82433357367E+02  0.17517013079E+02  0.84877195015E+02  0.47000000000E+01 0.  1.
</event>
<event>
12    1  0.9749377E-001  0.3620827E+03  0.7818608E-02  0.1057762E+00
         21   -1    0    0  503  502  0.00000000000E+00  0.00000000000E+00  0.70643719439E+03  0.70643719439E+03  0.00000000000E+00 0. -1.
         21   -1    0    0  501  503 -0.00000000000E+00 -0.00000000000E+00 -0.21790927405E+03  0.21790927405E+03  0.00000000000E+00 0.  1.
          6    2    1    2  501    0 -0.17967052747E+03  0.26389439016E+03  0.71924682976E+02  0.36939256829E+03  0.17133581612E+03 0.  0.
         24    2    3    3    0    0 -0.29103189046E+02  0.10379482547E+03  0.37493481231E+02  0.14688416020E+03  0.92459904704E+02 0.  0.
         -6    2    1    2    0  502  0.17967052747E+03 -0.26389439016E+03  0.41660323737E+03  0.55495390016E+03  0.18026044026E+03 0.  0.
        -24    2    5    5    0    0  0.20745710965E+03 -0.24005885704E+03  0.39184500284E+03  0.51050969958E+03  0.80068345337E+02 0.  0.
         14    1    4    4    0    0 -0.41670266936E+02  0.11580134828E+03  0.25276742413E+02  0.12563947277E+03  0.00000000000E+00 0. -1.
        -13    1    4    4    0    0  0.12567077890E+02 -0.12006522818E+02  0.12216738818E+02  0.21244687435E+02  0.00000000000E+00 0.  1.
          5    1    3    3  501    0 -0.15056733842E+03  0.16009956469E+03  0.34431201745E+02  0.22250840808E+03  0.47000000000E+01 0. -1.
         13    1    6    6    0    0  0.10990799575E+03 -0.68159386039E+02  0.14527343606E+03  0.19449894771E+03  0.00000000000E+00 0. -1.
        -14    1    6    6    0    0  0.97549113902E+02 -0.17189947100E+03  0.24657156678E+03  0.31601075187E+03  0.00000000000E+00 0.  1.
         -5    1    5    5    0  502 -0.27786582186E+02 -0.23835533115E+02  0.24758234525E+02  0.44444200580E+02  0.47000000000E+01 0.  1.
</event>
<event>
12    1  0.9749377E-001  0.4051002E+03  0.7818608E-02  0.1042028E+00
         21   -1    0    0  503  502  0.00000000000E+00  0.00000000000E+00  0.12870610321E+03  0.12870610321E+03  0.00000000000E+00 0.  1.
         21   -1    0    0  501  503 -0.00000000000E+00 -0.00000000000E+00 -0.19418887074E+04  0.19418887074E+04  0.00000000000E+00 0. -1.
          6    2    1    2  501    0 -0.50877888407E+02 -0.38928687402E+03 -0.37143908431E+03  0.56649388336E+03  0.16975127899E+03 0.  0.
         24    2    3    3    0    0 -0.56147149598E+02 -0.26636649044E+03 -0.16867820172E+03  0.32927826136E+03  0.76604360384E+02 0.  0.
         -6    2    1    2    0  502  0.50877888407E+02  0.38928687402E+03 -0.14417435199E+04  0.15041009273E+04  0.17193717578E+03 0.  0.
        -24    2    5    5    0    0  0.37682933995E+02  0.37870327742E+03 -0.14321813752E+04  0.14841098305E+04  0.81254671398E+02 0.  0.
         12    1    4    4    0    0 -0.73539231104E+02 -0.19472823823E+03 -0.11261366366E+03  0.23666208509E+03  0.00000000000E+00 0. -1.
        -11    1    4    4    0    0  0.17392081506E+02 -0.71638252209E+02 -0.56064538057E+02  0.92616176267E+02  0.00000000000E+00 0.  1.
          5    1    3    3  501    0  0.52692611910E+01 -0.12292038358E+03 -0.20276088259E+03  0.23721562200E+03  0.47000000000E+01 0. -1.
         13    1    6    6    0    0  0.60112340182E+02  0.28902359867E+03 -0.11433337344E+04  0.11808302851E+04  0.00000000000E+00 0. -1.
        -14    1    6    6    0    0 -0.22429406187E+02  0.89679678747E+02 -0.28884764082E+03  0.30327954539E+03  0.00000000000E+00 0.  1.
         -5    1    5    5    0  502  0.13194954412E+02  0.10583596597E+02 -0.95621446796E+01  0.19991096762E+02  0.47000000000E+01 0.  1.
</event>
<event>
12    1  0.9749377E-001  0.7282554E+03  0.7818608E-02  0.9670096E-01
         21   -1    0    0  501  502  0.00000000000E+00  0.00000000000E+00  0.29047959574E+03  0.29047959574E+03  0.00000000000E+00 0. -1.
         21   -1    0    0  502  503 -0.00000000000E+00 -0.00000000000E+00 -0.20765641982E+04  0.20765641982E+04  0.00000000000E+00 0.  1.
         -6    2    1    2    0  503 -0.66727201607E+03  0.26837988043E+03 -0.53142175303E+03  0.91049773650E+03  0.17122308525E+03 0.  0.
        -24    2    3    3    0    0 -0.65165638563E+03  0.22628381261E+03 -0.50339466688E+03  0.85736079645E+03  0.76163875041E+02 0.  0.
          6    2    1    2  501    0  0.66727201607E+03 -0.26837988043E+03 -0.12546628494E+04  0.14565460574E+04  0.17340083065E+03 0.  0.
         24    2    5    5    0    0  0.33712964651E+03 -0.13977288672E+03 -0.77318213873E+03  0.85873378943E+03  0.80126419146E+02 0.  0.
         12    1    6    6    0    0  0.20913908049E+03 -0.82488954272E+02 -0.56133427571E+03  0.60468152911E+03  0.00000000000E+00 0. -1.
        -11    1    6    6    0    0  0.12799056602E+03 -0.57283932452E+02 -0.21184786302E+03  0.25405226032E+03  0.00000000000E+00 0.  1.
          5    1    5    5  501    0  0.33014236957E+03 -0.12860699370E+03 -0.48148071070E+03  0.59781226802E+03  0.47000000000E+01 0. -1.
         13    1    4    4    0    0 -0.25286226664E+03  0.59821693379E+02 -0.15762055452E+03  0.30391150043E+03  0.00000000000E+00 0. -1.
        -14    1    4    4    0    0 -0.39879411899E+03  0.16646211923E+03 -0.34577411236E+03  0.55344929602E+03  0.00000000000E+00 0.  1.
         -5    1    3    3    0  503 -0.15615630442E+02  0.42096067816E+02 -0.28027086144E+02  0.53136940046E+02  0.47000000000E+01 0.  1.
</event>
<event>
12    1  0.9749377E-001  0.1628134E+03  0.7818608E-02  0.1185557E+00
         21   -1    0    0  503  502  0.00000000000E+00  0.00000000000E+00  0.29513428393E+03  0.29513428393E+03  0.00000000000E+00 0. -1.
         21   -1    0    0  501  503 -0.00000000000E+00 -0.00000000000E+00 -0.16182120213E+03  0.16182120213E+03  0.00000000000E+00 0. -1.
          6    2    1    2  501    0 -0.86999194591E+02  0.93663103062E+02  0.94113752468E+02  0.23389081726E+03  0.17177275471E+03 0.  0.
         24    2    3    3    0    0  0.83872334506E+00  0.54052117189E+02  0.98714232403E+02  0.13731036145E+03  0.78659397745E+02 0.  0.
         -6    2    1    2    0  502  0.86999194591E+02 -0.93663103062E+02  0.39199329332E+02  0.22306466879E+03  0.17854865530E+03 0.  0.
        -24    2    5    5    0    0  0.62907621702E+02 -0.78704661952E+02 -0.43388698662E+02  0.13561736344E+03  0.79735170499E+02 0.  0.
         12    1    4    4    0    0  0.27116562981E+02 -0.46765579837E+01  0.48234501684E+02  0.55531480578E+02  0.00000000000E+00 0. -1.
        -11    1    4    4    0    0 -0.26277839636E+02  0.58728675173E+02  0.50479730718E+02  0.81778880873E+02  0.00000000000E+00 0.  1.
          5    1    3    3  501    0 -0.87837917936E+02  0.39610985872E+02 -0.46004799346E+01  0.96580455811E+02  0.47000000000E+01 0. -1.
         11    1    6    6    0    0  0.18281023295E+02 -0.23434956498E+00 -0.41473665147E+02  0.45324558830E+02  0.00000000000E+00 0. -1.
        -12    1    6    6    0    0  0.44626598407E+02 -0.78470312387E+02 -0.19150335146E+01  0.90292804613E+02  0.00000000000E+00 0.  1.
         -5    1    5    5    0  502  0.24091572889E+02 -0.14958441109E+02  0.82588027993E+02  0.87447305347E+02  0.47000000000E+01 0.  1.
</event>
<event>
12    1  0.9749377E-001  0.3295732E+03  0.7818608E-02  0.1071326E+00
         21   -1    0    0  501  502  0.00000000000E+00  0.00000000000E+00  0.17821410124E+03  0.17821410124E+03  0.00000000000E+00 0. -1.
         21   -1    0    0  502  503 -0.00000000000E+00 -0.00000000000E+00 -0.72318050334E+03  0.72318050334E+03  0.00000000000E+00 0.  1.
         -6    2    1    2    0  503  0.28499372082E+03 -0.13182825358E+03 -0.24104132594E+03  0.43169229495E+03  0.17221268060E+03 0.  0.
        -24    2    3    3    0    0  0.29225152731E+03 -0.10899988653E+03 -0.24372123404E+03  0.40713456695E+03  0.95218617948E+02 0.  0.
          6    2    1    2  501    0 -0.28499372082E+03  0.13182825358E+03 -0.30392507616E+03  0.46970230963E+03  0.17219087783E+03 0.  0.
         24    2    5    5    0    0 -0.25532455084E+03  0.10870834449E+03 -0.18042856866E+03  0.34051923331E+03  0.79942163098E+02 0.  0.
         12    1    6    6    0    0 -0.66531733020E+02  0.54675602653E+01 -0.13316178023E+02  0.68071185615E+02  0.00000000000E+00 0. -1.
        -11    1    6    6    0    0 -0.18879281782E+03  0.10324078423E+03 -0.16711239063E+03  0.27244804769E+03  0.00000000000E+00 0.  1.
          5    1    5    5  501    0 -0.29669169979E+02  0.23119909088E+02 -0.12349650750E+03  0.12918307632E+03  0.47000000000E+01 0. -1.
         13    1    4    4    0    0  0.18797789087E+03 -0.91861394617E+02 -0.20944245401E+03  0.29604112015E+03  0.00000000000E+00 0. -1.
        -14    1    4    4    0    0  0.10427363644E+03 -0.17138491912E+02 -0.34278780028E+02  0.11109344680E+03  0.00000000000E+00 0.  1.
         -5    1    3    3    0  503 -0.72578064889E+01 -0.22828367051E+02  0.26799080957E+01  0.24557728003E+02  0.47000000000E+01 0.  1.
</event>
<event>
12    1  0.9749377E-001  0.1471509E+03  0.7818608E-02  0.1204018E+00
         21   -1    0    0  501  502  0.00000000000E+00  0.00000000000E+00  0.24607489229E+03  0.24607489229E+03  0.00000000000E+00 0.  1.
         21   -1    0    0  502  503 -0.00000000000E+00 -0.00000000000E+00 -0.16496129617E+03  0.16496129617E+03  0.00000000000E+00 0.  1.
         -6    2    1    2    0  503 -0.21476081996E+02 -0.15681102698E+02  0.14167078314E+03  0.22682402455E+03  0.17513254477E+03 0.  0.
        -24    2    3    3    0    0  0.21024537709E+02 -0.11113666581E+02  0.15968762412E+03  0.18019934539E+03  0.80038253416E+02 0.  0.
          6    2    1    2  501    0  0.21476081996E+02  0.15681102698E+02 -0.60557187016E+02  0.18421216391E+03  0.17192972214E+03 0.  0.
         24    2    5    5    0    0  0.29974338629E+02  0.75872192206E+02 -0.32875951537E+02  0.11725300905E+03  0.77539599020E+02 0.  0.
         14    1    6    6    0    0  0.54917148661E+02  0.36999904445E+02 -0.22284190990E+02  0.69867526893E+02  0.00000000000E+00 0. -1.
        -13    1    6    6    0    0 -0.24942810033E+02  0.38872287760E+02 -0.10591760548E+02  0.47385482160E+02  0.00000000000E+00 0.  1.
          5    1    5    5  501    0 -0.84982566325E+01 -0.60191089507E+02 -0.27681235479E+02  0.66959154859E+02  0.47000000000E+01 0. -1.
         11    1    4    4    0    0 -0.27537920948E+02  0.20357523280E+01  0.28442911669E+02  0.39641904620E+02  0.00000000000E+00 0. -1.
        -12    1    4    4    0    0  0.48562458657E+02 -0.13149418909E+02  0.13124471245E+03  0.14055744077E+03  0.00000000000E+00 0.  1.
         -5    1    3    3    0  503 -0.42500619705E+02 -0.45674361177E+01 -0.18016840980E+02  0.46624679162E+02  0.47000000000E+01 0.  1.
</event>
<event>
12    1  0.9749377E-001  0.3456635E+03  0.7818608E-02  0.1064409E+00
         21   -1    0    0  501  502  0.00000000000E+00  0.00000000000E+00  0.30425591191E+03  0.30425591191E+03  0.00000000000E+00 0.  1.
         21   -1    0    0  502  503 -0.00000000000E+00 -0.00000000000E+00 -0.66316133280E+03  0.66316133280E+03  0.00000000000E+00 0. -1.
         -6    2    1    2    0  503  0.19361583727E+03 -0.25352897052E+03  0.10812312916E+03  0.37456542885E+03  0.16384327297E+03 0.  0.
        -24    2    3    3    0    0  0.17704353992E+03 -0.15415773562E+03  0.35972332189E+02  0.25056094962E+03  0.79860868475E+02 0.  0.
          6    2    1    2  501    0 -0.19361583727E+03  0.25352897052E+03 -0.46702855005E+03  0.59285181586E+03  0.17774582323E+03 0.  0.
         24    2    5    5    0    0 -0.66158432312E+02  0.16753839448E+03 -0.17767805348E+03  0.26515444159E+03  0.79317938778E+02 0.  0.
         14    1    6    6    0    0 -0.68426195194E+02  0.75156837306E+02 -0.11508203217E+03  0.15354012020E+03  0.00000000000E+00 0. -1.
        -13    1    6    6    0    0  0.22677628819E+01  0.92381557173E+02 -0.62596021319E+02  0.11161432139E+03  0.00000000000E+00 0.  1.
          5    1    5    5  501    0 -0.12745740495E+03  0.85990576043E+02 -0.28935049656E+03  0.32769737428E+03  0.47000000000E+01 0. -1.
         11    1    4    4    0    0  0.64907050238E+02 -0.20360503702E+02 -0.12980052070E+02  0.69252848558E+02  0.00000000000E+00 0. -1.
        -12    1    4    4    0    0  0.11213648968E+03 -0.13379723191E+03  0.48952384259E+02  0.18130810106E+03  0.00000000000E+00 0.  1.
         -5    1    3    3    0  503  0.16572297347E+02 -0.99371234907E+02  0.72150796967E+02  0.12400447923E+03  0.47000000000E+01 0.  1.
</event>
<event>
12    1  0.9749377E-001  0.2666754E+03  0.7818608E-02  0.1103198E+00
         21   -1    0    0  503  502  0.00000000000E+00  0.00000000000E+00  0.12833671449E+03  0.12833671449E+03  0.00000000000E+00 0. -1.
         21   -1    0    0  501  503 -0.00000000000E+00 -0.00000000000E+00 -0.75109131860E+03  0.75109131860E+03  0.00000000000E+00 0.  1.
          6    2    1    2  501    0 -0.12955817409E+03  0.20783494989E+03 -0.43553023749E+03  0.52799642179E+03  0.17062516456E+03 0.  0.
         24    2    3    3    0    0 -0.10637200643E+03  0.12959410238E+03 -0.39549012760E+03  0.43697703379E+03  0.80167648773E+02 0.  0.
         -6    2    1    2    0  502  0.12955817409E+03 -0.20783494989E+03 -0.18722436662E+03  0.35143161130E+03  0.16873211636E+03 0.  0.
        -24    2    5    5    0    0  0.62387503881E+02 -0.18293044259E+03 -0.83800456464E+02  0.22553193452E+03  0.80538124629E+02 0.  0.
         14    1    4    4    0    0 -0.21904302432E+02 -0.88364708616E+00 -0.10756939021E+03  0.10978047644E+03  0.00000000000E+00 0. -1.
        -13    1    4    4    0    0 -0.84467704001E+02  0.13047774946E+03 -0.28792073739E+03  0.32719655735E+03  0.00000000000E+00 0.  1.
          5    1    3    3  501    0 -0.23186167655E+02  0.78240847517E+02 -0.40040109888E+02  0.91019387993E+02  0.47000000000E+01 0. -1.
         11    1    6    6    0    0  0.74039554402E+02 -0.16744925536E+03 -0.91504057637E+02  0.20468048588E+03  0.00000000000E+00 0. -1.
        -12    1    6    6    0    0 -0.11652050520E+02 -0.15481187235E+02  0.77036011729E+01  0.20851448644E+02  0.00000000000E+00 0.  1.
         -5    1    5    5    0  502  0.67170670207E+02 -0.24904507301E+02 -0.10342391016E+03  0.12589967677E+03  0.47000000000E+01 0.  1.
</event>
<event>
12    1  0.9749377E-001  0.6761278E+03  0.7818608E-02  0.9758951E-01
         21   -1    0    0  501  502  0.00000000000E+00  0.00000000000E+00  0.12986090597E+04  0.12986090597E+04  0.00000000000E+00 0. -1.
         21   -1    0    0  502  503 -0.00000000000E+00 -0.00000000000E+00 -0.38141448773E+03  0.38141448773E+03  0.00000000000E+00 0.  1.
         -6    2    1    2    0  503  0.52653057586E+03  0.40332430578E+03  0.26006873126E+03  0.73302752018E+03  0.17259390900E+03 0.  0.
        -24    2    3    3    0    0  0.20250718952E+03  0.92774245668E+02  0.89361653262E+02  0.25282392669E+03  0.79487171078E+02 0.  0.
          6    2    1    2  501    0 -0.52653057586E+03 -0.40332430578E+03  0.65712584071E+03  0.94699602724E+03  0.15837348935E+03 0.  0.
         24    2    5    5    0    0 -0.19297055578E+03 -0.22461481703E+03  0.33666308407E+03  0.45109499199E+03  0.49550057492E+02 0.  0.
         14    1    6    6    0    0 -0.11122106658E+03 -0.91517069325E+02  0.15972173627E+03  0.21507331928E+03  0.00000000000E+00 0. -1.
        -13    1    6    6    0    0 -0.81749489198E+02 -0.13309774770E+03  0.17694134779E+03  0.23602167271E+03  0.00000000000E+00 0.  1.
          5    1    5    5  501    0 -0.33356002008E+03 -0.17870948875E+03  0.32046275664E+03  0.49590103525E+03  0.47000000000E+01 0. -1.
         13    1    4    4    0    0  0.82725784219E+02  0.54207120244E+02  0.73006180556E+00  0.98906522788E+02  0.00000000000E+00 0. -1.
        -14    1    4    4    0    0  0.11978140531E+03  0.38567125423E+02  0.88631591457E+02  0.15391740390E+03  0.00000000000E+00 0.  1.
         -5    1    3    3    0  503  0.32402338634E+03  0.31055006011E+03  0.17070707799E+03  0.48020359349E+03  0.47000000000E+01 0.  1.
</event>
<event>
12    1  0.9749377E-001  0.3290505E+03  0.7818608E-02  0.1071558E+00
         21   -1    0    0  501  502  0.00000000000E+00  0.00000000000E+00  0.22628620683E+03  0.22628620683E+03  0.00000000000E+00 0. -1.
         21   -1    0    0  502  503 -0.00000000000E+00 -0.00000000000E+00 -0.55197150262E+03  0.55197150262E+03  0.00000000000E+00 0.  1.
         -6    2    1    2    0  503 -0.21373128245E+03 -0.19080244431E+03 -0.27552370045E+03  0.43337442267E+03  0.17266570840E+03 0.  0.
        -24    2    3    3    0    0 -0.56311119585E+02 -0.17390929397E+02 -0.95554139480E+02  0.13796996424E+03  0.80198072583E+02 0.  0.
          6    2    1    2  501    0  0.21373128245E+03  0.19080244431E+03 -0.50161595346E+02  0.34488328678E+03  0.18531503446E+03 0.  0.
         24    2    5    5    0    0  0.23864287564E+03  0.19049172259E+03 -0.42405184035E+02  0.31837034768E+03  0.79523331042E+02 0.  0.
         14    1    6    6    0    0  0.10433712118E+03  0.84288448288E+02  0.21042561842E+02  0.13577027208E+03  0.00000000000E+00 0. -1.
        -13    1    6    6    0    0  0.13430575446E+03  0.10620327430E+03 -0.63447745877E+02  0.18260007560E+03  0.00000000000E+00 0.  1.
          5    1    5    5  501    0 -0.24911593188E+02  0.31072172284E+00 -0.77564113111E+01  0.26512939097E+02  0.47000000000E+01 0. -1.
         13    1    4    4    0    0 -0.19252194972E+02 -0.43660651666E+02 -0.73106199004E+02  0.87300720776E+02  0.00000000000E+00 0. -1.
        -14    1    4    4    0    0 -0.37058924612E+02  0.26269722269E+02 -0.22447940476E+02  0.50669243463E+02  0.00000000000E+00 0.  1.
         -5    1    3    3    0  503 -0.15742016287E+03 -0.17341151492E+03 -0.17996956097E+03  0.29540445843E+03  0.47000000000E+01 0.  1.
</event>
<event>
12    1  0.9749377E-001  0.4469716E+03  0.7818608E-02  0.1028629E+00
         21   -1    0    0  501  502  0.00000000000E+00  0.00000000000E+00  0.14348255692E+04  0.14348255692E+04  0.00000000000E+00 0. -1.
         21   -1    0    0  502  503 -0.00000000000E+00 -0.00000000000E+00 -0.39088266702E+03  0.39088266702E+03  0.00000000000E+00 0.  1.
         -6    2    1    2    0  503  0.41633905765E+03  0.10688727948E+03  0.12378162330E+04  0.13240744772E+04  0.19031839930E+03 0.  0.
        -24    2    3    3    0    0  0.40034798969E+03  0.13165768617E+03  0.12082566124E+04  0.12820608071E+04  0.78635950398E+02 0.  0.
          6    2    1    2  501    0 -0.41633905765E+03 -0.10688727948E+03 -0.19387333078E+03  0.50163375905E+03  0.17113286766E+03 0.  0.
         24    2    5    5    0    0 -0.29026338176E+03 -0.55976909454E+02 -0.19688587816E+03  0.36555250660E+03  0.86477400986E+02 0.  0.
         12    1    6    6    0    0 -0.12361110718E+03  0.16394343423E+02 -0.98716355994E+02  0.15903898659E+03  0.00000000000E+00 0. -1.
        -11    1    6    6    0    0 -0.16665227458E+03 -0.72371252877E+02 -0.98169522165E+02  0.20651352001E+03  0.00000000000E+00 0.  1.
          5    1    5    5  501    0 -0.12607567588E+03 -0.50910370026E+02  0.30125473817E+01  0.13608125244E+03  0.47000000000E+01 0. -1.
         11    1    4    4    0    0  0.18825628353E+03  0.54808389256E+02  0.67877707248E+03  0.70652862784E+03  0.00000000000E+00 0. -1.
        -12    1    4    4    0    0  0.21209170616E+03  0.76849296910E+02  0.52947953989E+03  0.57553217931E+03  0.00000000000E+00 0.  1.
         -5    1    3    3    0  503  0.15991067954E+02 -0.24770406685E+02  0.29559620623E+02  0.42013670074E+02  0.47000000000E+01 0.  1.
</event>
<event>
12    1  0.1251679E+000  0.4075990E+03  0.7818608E-02  0.1041180E+00
         21   -1    0    0  501  502  0.00000000000E+00  0.00000000000E+00  0.60786927769E+03  0.60786927769E+03  0.00000000000E+00 0. -1.
         21   -1    0    0  502  503 -0.00000000000E+00 -0.00000000000E+00 -0.57153680680E+03  0.57153680680E+03  0.00000000000E+00 0.  1.
         -6    2    1    2    0  503 -0.50103758682E+02 -0.39899520890E+03  0.41314901148E+03  0.60165355196E+03  0.17200967281E+03 0.  0.
        -24    2    3    3    0    0 -0.24252791230E+02 -0.35599087226E+03  0.41269699216E+03  0.55125573644E+03  0.79034047091E+02 0.  0.
          6    2    1    2  501    0  0.50103758682E+02  0.39899520890E+03 -0.37681654058E+03  0.57775253253E+03  0.17349270943E+03 0.  0.
         24    2    5    5    0    0  0.22933533470E+02  0.28197788427E+03 -0.17440726766E+03  0.34233188949E+03  0.82071635639E+02 0.  0.
         14    1    6    6    0    0  0.73414993397E+01  0.66437366792E+02 -0.37107998588E+01  0.66944688769E+02  0.00000000000E+00 0. -1.
        -13    1    6    6    0    0  0.15592034130E+02  0.21554051747E+03 -0.17069646780E+03  0.27538720072E+03  0.00000000000E+00 0.  1.
          5    1    5    5  501    0  0.27170225212E+02  0.11701732464E+03 -0.20240927293E+03  0.23542064304E+03  0.47000000000E+01 0. -1.
         13    1    4    4    0    0 -0.42455201459E+02 -0.19206742780E+03  0.18445388567E+03  0.26965825945E+03  0.00000000000E+00 0. -1.
        -14    1    4    4    0    0  0.18202410229E+02 -0.16392344446E+03  0.22824310650E+03  0.28159747698E+03  0.00000000000E+00 0.  1.
         -5    1    3    3    0  503 -0.25850967452E+02 -0.43004336639E+02  0.45201931566E+00  0.50397815523E+02  0.47000000000E+01 0.  1.
</event>
<event>
12    1  0.9749377E-001  0.5517859E+03  0.7818608E-02  0.1001081E+00
         21   -1    0    0  501  502  0.00000000000E+00  0.00000000000E+00  0.15303357362E+04  0.15303357362E+04  0.00000000000E+00 0. -1.
         21   -1    0    0  502  503 -0.00000000000E+00 -0.00000000000E+00 -0.31881222268E+03  0.31881222268E+03  0.00000000000E+00 0.  1.
         -6    2    1    2    0  503 -0.47186742022E+03 -0.25842912404E+03  0.11498176604E+04  0.12809973850E+04  0.17154933331E+03 0.  0.
        -24    2    3    3    0    0 -0.11087349503E+03 -0.40925163345E+02  0.30186065222E+03  0.33406667756E+03  0.80702483258E+02 0.  0.
          6    2    1    2  501    0  0.47186742022E+03  0.25842912404E+03  0.61705853074E+02  0.56815057385E+03  0.17188073727E+03 0.  0.
         24    2    5    5    0    0  0.23257916987E+03  0.14424877620E+03  0.95286749011E+02  0.30085712993E+03  0.80837295862E+02 0.  0.
         12    1    6    6    0    0  0.14123529537E+03  0.61652235107E+02  0.88070585880E+02  0.17749601362E+03  0.00000000000E+00 0. -1.
        -11    1    6    6    0    0  0.91343874500E+02  0.82596541090E+02  0.72161631309E+01  0.12336111632E+03  0.00000000000E+00 0.  1.
          5    1    5    5  501    0  0.23928825035E+03  0.11418034784E+03 -0.33580895937E+02  0.26729344392E+03  0.47000000000E+01 0. -1.
         13    1    4    4    0    0 -0.10060872751E+03 -0.60612912920E+02  0.27617764090E+03  0.30011686157E+03  0.00000000000E+00 0. -1.
        -14    1    4    4    0    0 -0.10264767514E+02  0.19687749575E+02  0.25683011313E+02  0.33949815987E+02  0.00000000000E+00 0.  1.
         -5    1    3    3    0  503 -0.36099392520E+03 -0.21750396069E+03  0.84795700821E+03  0.94693070746E+03  0.47000000000E+01 0.  1.
</event>
<event>
12    1  0.9749377E-001  0.4674674E+03  0.7818608E-02  0.1022637E+00
         21   -1    0    0  503  502  0.00000000000E+00  0.00000000000E+00  0.36744426222E+03  0.36744426222E+03  0.00000000000E+00 0. -1.
         21   -1    0    0  501  503 -0.00000000000E+00 -0.00000000000E+00 -0.75726967267E+03  0.75726967267E+03  0.00000000000E+00 0.  1.
          6    2    1    2  501    0 -0.43526007728E+03  0.13094301046E+03  0.23856831043E+02  0.48656399549E+03  0.17198245974E+03 0.  0.
         24    2    3    3    0    0 -0.37097996944E+03  0.13131013598E+03 -0.29380947833E+02  0.40296723631E+03  0.81552828963E+02 0.  0.
         -6    2    1    2    0  502  0.43526007728E+03 -0.13094301046E+03 -0.41368224149E+03  0.63814993941E+03  0.17177002469E+03 0.  0.
        -24    2    5    5    0    0  0.20277105393E+03 -0.36274592971E+02 -0.26846255314E+03  0.34810838526E+03  0.81702870472E+02 0.  0.
         14    1    4    4    0    0 -0.29906108550E+03  0.13123048179E+03 -0.44119928999E+02  0.32955354701E+03  0.00000000000E+00 0. -1.
        -13    1    4    4    0    0 -0.71918883938E+02  0.79654190339E-01  0.14738981166E+02  0.73413689306E+02  0.00000000000E+00 0.  1.
          5    1    3    3  501    0 -0.64280107837E+02 -0.36712551501E+00  0.53237778876E+02  0.83596759174E+02  0.47000000000E+01 0. -1.
         13    1    6    6    0    0  0.54838494724E+01 -0.22479740782E+02 -0.20310885805E+02  0.30788690015E+02  0.00000000000E+00 0. -1.
        -14    1    6    6    0    0  0.19728720445E+03 -0.13794852188E+02 -0.24815166734E+03  0.31731969525E+03  0.00000000000E+00 0.  1.
         -5    1    5    5    0  502  0.23248902335E+03 -0.94668417491E+02 -0.14521968835E+03  0.29004155415E+03  0.47000000000E+01 0.  1.
</event>
<event>
12    1  0.9749377E-001  0.1167883E+03  0.7818608E-02  0.1248491E+00
         21   -1    0    0  501  502  0.00000000000E+00  0.00000000000E+00  0.10908519021E+04  0.10908519021E+04  0.00000000000E+00 0. -1.
         21   -1    0    0  502  503 -0.00000000000E+00 -0.00000000000E+00 -0.32115428251E+02  0.32115428251E+02  0.00000000000E+00 0. -1.
         -6    2    1    2    0  503  0.27621011983E+02 -0.26345332729E+02  0.71149846672E+03  0.73294737875E+03  0.17182780627E+03 0.  0.
        -24    2    3    3    0    0  0.36147079545E+02 -0.38530117189E+02  0.20665048206E+03  0.22785853467E+03  0.80149290664E+02 0.  0.
          6    2    1    2  501    0 -0.27621011983E+02  0.26345332729E+02  0.34723800714E+03  0.39001995161E+03  0.17344835599E+03 0.  0.
         24    2    5    5    0    0 -0.68024858735E+02  0.20438280699E+02  0.32709595021E+03  0.34424707151E+03  0.80431218282E+02 0.  0.
         12    1    6    6    0    0  0.45708501948E+01 -0.22372407421E+02  0.78490174416E+02  0.81744264418E+02  0.00000000000E+00 0. -1.
        -11    1    6    6    0    0 -0.72595708929E+02  0.42810688120E+02  0.24860577579E+03  0.26250280709E+03  0.00000000000E+00 0.  1.
          5    1    5    5  501    0  0.40403846752E+02  0.59070520295E+01  0.20142056932E+02  0.45772880109E+02  0.47000000000E+01 0. -1.
         11    1    4    4    0    0  0.71219874218E+01 -0.40069857650E+02  0.34741575106E+02  0.53509748997E+02  0.00000000000E+00 0. -1.
        -12    1    4    4    0    0  0.29025092123E+02  0.15397404610E+01  0.17190890696E+03  0.17434878567E+03  0.00000000000E+00 0.  1.
         -5    1    3    3    0  503 -0.85260675620E+01  0.12184784460E+02  0.50484798466E+03  0.50508884408E+03  0.47000000000E+01 0.  1.
</event>
<event>
12    1  0.9749377E-001  0.6959760E+03  0.7818608E-02  0.9724139E-01
         21   -1    0    0  501  502  0.00000000000E+00  0.00000000000E+00  0.15331971666E+04  0.15331971666E+04  0.00000000000E+00 0. -1.
         21   -1    0    0  502  503 -0.00000000000E+00 -0.00000000000E+00 -0.32964214332E+03  0.32964214332E+03  0.00000000000E+00 0.  1.
         -6    2    1    2    0  503 -0.67118311865E+03 -0.10630751001E+03  0.47201893619E+03  0.84952951543E+03  0.19264074339E+03 0.  0.
        -24    2    3    3    0    0 -0.17503680205E+03 -0.77572542697E+02  0.16729108170E+03  0.26654750787E+03  0.80036782090E+02 0.  0.
          6    2    1    2  501    0  0.67118311865E+03  0.10630751001E+03  0.73153608708E+03  0.10133097945E+04  0.17281095869E+03 0.  0.
         24    2    5    5    0    0  0.47766649119E+03  0.20243116140E+02  0.55716061020E+03  0.73892928873E+03  0.83746567905E+02 0.  0.
         12    1    6    6    0    0  0.33623571055E+03 -0.24113837617E+02  0.39194895759E+03  0.51697187116E+03  0.00000000000E+00 0. -1.
        -11    1    6    6    0    0  0.14143078063E+03  0.44356953757E+02  0.16521165261E+03  0.22195741757E+03  0.00000000000E+00 0.  1.
          5    1    5    5  501    0  0.19351662747E+03  0.86064393869E+02  0.17437547688E+03  0.27438050575E+03  0.47000000000E+01 0. -1.
         11    1    4    4    0    0 -0.65815520595E+02 -0.36837577485E+01  0.96542969364E+02  0.11690080306E+03  0.00000000000E+00 0. -1.
        -12    1    4    4    0    0 -0.10922128145E+03 -0.73888784948E+02  0.70748112332E+02  0.14964670482E+03  0.00000000000E+00 0.  1.
         -5    1    3    3    0  503 -0.49614631660E+03 -0.28734967312E+02  0.30472785449E+03  0.58298200755E+03  0.47000000000E+01 0.  1.
</event>
<event>
12    1  0.9749377E-001  0.6165300E+03  0.7818608E-02  0.9871693E-01
         21   -1    0    0  501  502  0.00000000000E+00  0.00000000000E+00  0.17170205593E+04  0.17170205593E+04  0.00000000000E+00 0. -1.
         21   -1    0    0  502  503 -0.00000000000E+00 -0.00000000000E+00 -0.23092945543E+03  0.23092945543E+03  0.00000000000E+00 0.  1.
         -6    2    1    2    0  503 -0.55219460679E+03  0.23428012604E+03  0.86489024722E+03  0.10664694543E+04  0.17180190930E+03 0.  0.
        -24    2    3    3    0    0 -0.23530853579E+03  0.15880800406E+03  0.46237369501E+03  0.54863310180E+03  0.81355745861E+02 0.  0.
          6    2    1    2  501    0  0.55219460679E+03 -0.23428012604E+03  0.62120085669E+03  0.88148056045E+03  0.17695031189E+03 0.  0.
         24    2    5    5    0    0  0.15054996067E+03 -0.27399197816E+02  0.14619631672E+03  0.22591245323E+03  0.79038388152E+02 0.  0.
         14    1    6    6    0    0  0.11356223096E+03  0.66750482998E+01  0.66777166131E+02  0.13190953903E+03  0.00000000000E+00 0. -1.
        -13    1    6    6    0    0  0.36987729715E+02 -0.34074246116E+02  0.79419150593E+02  0.94002914203E+02  0.00000000000E+00 0.  1.
          5    1    5    5  501    0  0.40164464611E+03 -0.20688092823E+03  0.47500453997E+03  0.65556810722E+03  0.47000000000E+01 0. -1.
         13    1    4    4    0    0 -0.18549639479E+02 -0.55735448568E+01  0.59003548824E+02  0.62101306757E+02  0.00000000000E+00 0. -1.
        -14    1    4    4    0    0 -0.21675889631E+03  0.16438154891E+03  0.40337014619E+03  0.48653179504E+03  0.00000000000E+00 0.  1.
         -5    1    3    3    0  503 -0.31688607100E+03  0.75472121986E+02  0.40251655221E+03  0.51783635252E+03  0.47000000000E+01 0.  1.
</event>
<event>
12    1  0.9749377E-001  0.4891053E+03  0.7818608E-02  0.1016662E+00
         21   -1    0    0  501  502  0.00000000000E+00  0.00000000000E+00  0.55022834839E+03  0.55022834839E+03  0.00000000000E+00 0.  1.
         21   -1    0    0  502  503 -0.00000000000E+00 -0.00000000000E+00 -0.91792049580E+03  0.91792049580E+03  0.00000000000E+00 0. -1.
         -6    2    1    2    0  503 -0.28612777182E+03 -0.37280726795E+03  0.33793168705E+03  0.60302953930E+03  0.16909299012E+03 0.  0.
        -24    2    3    3    0    0 -0.10479611962E+03 -0.96617091924E+02  0.70358766018E+02  0.17784776700E+03  0.79764548096E+02 0.  0.
          6    2    1    2  501    0  0.28612777182E+03  0.37280726795E+03 -0.70562383446E+03  0.86511930489E+03  0.17225578392E+03 0.  0.
         24    2    5    5    0    0  0.13891495738E+03  0.26824696850E+03 -0.37143953850E+03  0.48524340065E+03  0.78993832791E+02 0.  0.
         12    1    6    6    0    0  0.10205464030E+03  0.16296411248E+03 -0.17842089402E+03  0.26230986826E+03  0.00000000000E+00 0. -1.
        -11    1    6    6    0    0  0.36860317082E+02  0.10528285602E+03 -0.19301864448E+03  0.22293353239E+03  0.00000000000E+00 0.  1.
          5    1    5    5  501    0  0.14721281444E+03  0.10456029945E+03 -0.33418429596E+03  0.37987590424E+03  0.47000000000E+01 0. -1.
         13    1    4    4    0    0  0.10715380376E+02  0.26245488552E+01  0.54189504252E+01  0.12291161743E+02  0.00000000000E+00 0. -1.
        -14    1    4    4    0    0 -0.11551149999E+03 -0.99241640780E+02  0.64939815592E+02  0.16555660526E+03  0.00000000000E+00 0.  1.
         -5    1    3    3    0  503 -0.18133165221E+03 -0.27619017603E+03  0.26757292103E+03  0.42518177230E+03  0.47000000000E+01 0.  1.
</event>
<event>
12    1  0.9749377E-001  0.3423643E+03  0.7818608E-02  0.1065793E+00
         21   -1    0    0  503  502  0.00000000000E+00  0.00000000000E+00  0.45621613270E+03  0.45621613270E+03  0.00000000000E+00 0. -1.
         21   -1    0    0  501  503 -0.00000000000E+00 -0.00000000000E+00 -0.27798403967E+03  0.27798403967E+03  0.00000000000E+00 0.  1.
          6    2    1    2  501    0 -0.27972596499E+03 -0.14146088725E+03  0.85209231150E+02  0.36618631538E+03  0.16903847605E+03 0.  0.
         24    2    3    3    0    0 -0.67660277030E+02 -0.43365140127E+02 -0.66187728653E+01  0.11509050909E+03  0.82119234422E+02 0.  0.
         -6    2    1    2    0  502  0.27972596499E+03  0.14146088725E+03  0.93022861882E+02  0.36801385699E+03  0.16888797468E+03 0.  0.
        -24    2    5    5    0    0  0.10678904168E+03  0.68093707986E+02 -0.16082127594E+02  0.15072163171E+03  0.80110691844E+02 0.  0.
         12    1    4    4    0    0 -0.66609733719E+02  0.40357362976E+01 -0.10357147014E+02  0.67530839532E+02  0.00000000000E+00 0. -1.
        -11    1    4    4    0    0 -0.10505433106E+01 -0.47400876424E+02  0.37383741491E+01  0.47559669556E+02  0.00000000000E+00 0.  1.
          5    1    3    3  501    0 -0.21206568796E+03 -0.98095747122E+02  0.91828004016E+02  0.25109580629E+03  0.47000000000E+01 0. -1.
         13    1    6    6    0    0  0.10524756513E+02  0.49900956294E+02  0.22697495698E+01  0.51049267397E+02  0.00000000000E+00 0. -1.
        -14    1    6    6    0    0  0.96264285165E+02  0.18192751693E+02 -0.18351877164E+02  0.99672364314E+02  0.00000000000E+00 0.  1.
         -5    1    5    5    0  502  0.17293692331E+03  0.73367179263E+02  0.10910498948E+03  0.21729222528E+03  0.47000000000E+01 0.  1.
</event>
<event>
12    1  0.9749377E-001  0.4909687E+03  0.7818608E-02  0.1016163E+00
         21   -1    0    0  503  502  0.00000000000E+00  0.00000000000E+00  0.12835734632E+03  0.12835734632E+03  0.00000000000E+00 0.  1.
         21   -1    0    0  501  503 -0.00000000000E+00 -0.00000000000E+00 -0.20087098139E+04  0.20087098139E+04  0.00000000000E+00 0. -1.
          6    2    1    2  501    0  0.24376266671E+03  0.41146302213E+03 -0.95833662587E+03  0.10848412591E+04  0.17248018079E+03 0.  0.
         24    2    3    3    0    0  0.39971271837E+02  0.13457763854E+03 -0.25072151711E+03  0.29811533454E+03  0.79389106188E+02 0.  0.
         -6    2    1    2    0  502 -0.24376266671E+03 -0.41146302213E+03 -0.92201584173E+03  0.10522259011E+04  0.16835699667E+03 0.  0.
        -24    2    5    5    0    0 -0.22997919341E+03 -0.30507949140E+03 -0.79761339264E+03  0.88789240154E+03  0.78751933998E+02 0.  0.
         14    1    4    4    0    0 -0.28599425792E-01  0.15708694048E+02  0.21448147775E+01  0.15854466786E+02  0.00000000000E+00 0. -1.
        -13    1    4    4    0    0  0.39999871263E+02  0.11886894449E+03 -0.25286633189E+03  0.28226086776E+03  0.00000000000E+00 0.  1.
          5    1    3    3  501    0  0.20379139487E+03  0.27688538358E+03 -0.70761510877E+03  0.78672592459E+03  0.47000000000E+01 0. -1.
         13    1    6    6    0    0 -0.23483653496E+03 -0.28673190838E+03 -0.74835377099E+03  0.83510283917E+03  0.00000000000E+00 0. -1.
        -14    1    6    6    0    0  0.48573415453E+01 -0.18347583020E+02 -0.49259621651E+02  0.52789562366E+02  0.00000000000E+00 0.  1.
         -5    1    5    5    0  502 -0.13783473294E+02 -0.10638353073E+03 -0.12440244909E+03  0.16433349958E+03  0.47000000000E+01 0.  1.
</event>
<event>
12    1  0.9749377E-001  0.2793197E+03  0.7818608E-02  0.1096061E+00
         21   -1    0    0  503  502  0.00000000000E+00  0.00000000000E+00  0.11445471106E+04  0.11445471106E+04  0.00000000000E+00 0.  1.
         21   -1    0    0  501  503 -0.00000000000E+00 -0.00000000000E+00 -0.83516410314E+02  0.83516410314E+02  0.00000000000E+00 0. -1.
          6    2    1    2  501    0  0.25575263206E+03 -0.72809293564E+01  0.58351331375E+03  0.65940515670E+03  0.16989688819E+03 0.  0.
         24    2    3    3    0    0  0.16254028380E+03  0.39610662797E+02  0.26349234413E+03  0.32277052645E+03  0.82245053751E+02 0.  0.
         -6    2    1    2    0  502 -0.25575263206E+03  0.72809293564E+01  0.47751738657E+03  0.56865836425E+03  0.17287874370E+03 0.  0.
        -24    2    5    5    0    0 -0.15351712154E+03 -0.11404118173E+02  0.15506161930E+03  0.22983533898E+03  0.71292473279E+02 0.  0.
         14    1    4    4    0    0  0.35863291287E+02  0.41536387204E+02  0.11607224280E+03  0.12839085899E+03  0.00000000000E+00 0. -1.
        -13    1    4    4    0    0  0.12667699251E+03 -0.19257244074E+01  0.14742010134E+03  0.19437966747E+03  0.00000000000E+00 0.  1.
          5    1    3    3  501    0  0.93212348259E+02 -0.46891592153E+02  0.32002096962E+03  0.33663463024E+03  0.47000000000E+01 0. -1.
         13    1    6    6    0    0  0.73041163674E+01  0.53595699668E+00  0.22286555800E+01  0.76553426771E+01  0.00000000000E+00 0. -1.
        -14    1    6    6    0    0 -0.16082123790E+03 -0.11940075169E+02  0.15283296372E+03  0.22217999630E+03  0.00000000000E+00 0.  1.
         -5    1    5    5    0  502 -0.10223551052E+03  0.18685047529E+02  0.32245576727E+03  0.33882302528E+03  0.47000000000E+01 0.  1.
</event>
<event>
12    1  0.9749377E-001  0.1964363E+03  0.7818608E-02  0.1152781E+00
         21   -1    0    0  501  502  0.00000000000E+00  0.00000000000E+00  0.15824876605E+03  0.15824876605E+03  0.00000000000E+00 0.  1.
         21   -1    0    0  502  503 -0.00000000000E+00 -0.00000000000E+00 -0.54097908778E+03  0.54097908778E+03  0.00000000000E+00 0. -1.
         -6    2    1    2    0  503 -0.12546233969E+03 -0.42481309575E+02  0.40345937409E+02  0.22010216406E+03  0.17108976479E+03 0.  0.
        -24    2    3    3    0    0 -0.67357586947E+02  0.38253315427E+02  0.37127337953E+02  0.12046938157E+03  0.84463435944E+02 0.  0.
          6    2    1    2  501    0  0.12546233969E+03  0.42481309575E+02 -0.42307625914E+03  0.47912568977E+03  0.18172078914E+03 0.  0.
         24    2    5    5    0    0  0.48522983869E+02  0.52066418476E+02 -0.10007289110E+03  0.14691370240E+03  0.80645275894E+02 0.  0.
         14    1    6    6    0    0  0.50761907633E+02 -0.87889316309E+00 -0.29696611957E+02  0.58816940429E+02  0.00000000000E+00 0. -1.
        -13    1    6    6    0    0 -0.22389237634E+01  0.52945311639E+02 -0.70376279145E+02  0.88096761975E+02  0.00000000000E+00 0.  1.
          5    1    5    5  501    0  0.76939355818E+02 -0.95851089011E+01 -0.32300336803E+03  0.33221198736E+03  0.47000000000E+01 0. -1.
         13    1    4    4    0    0  0.75794394972E+01 -0.17089861128E+02 -0.31825068479E+01  0.18964166375E+02  0.00000000000E+00 0. -1.
        -14    1    4    4    0    0 -0.74937026445E+02  0.55343176555E+02  0.40309844801E+02  0.10150521519E+03  0.00000000000E+00 0.  1.
         -5    1    3    3    0  503 -0.58104752740E+02 -0.80734625002E+02  0.32185994565E+01  0.99632782495E+02  0.47000000000E+01 0.  1.
</event>
<event>
12    1  0.9749377E-001  0.3344549E+03  0.7818608E-02  0.1069183E+00
         21   -1    0    0  503  502  0.00000000000E+00  0.00000000000E+00  0.12455029267E+03  0.12455029267E+03  0.00000000000E+00 0. -1.
         21   -1    0    0  501  503 -0.00000000000E+00 -0.00000000000E+00 -0.12000808401E+04  0.12000808401E+04  0.00000000000E+00 0.  1.
          6    2    1    2  501    0  0.68345260773E+02 -0.30932649438E+03 -0.29907141179E+03  0.46869433245E+03  0.17284881580E+03 0.  0.
         24    2    3    3    0    0  0.89282689731E+02 -0.25212532461E+03 -0.17183085169E+03  0.32754689219E+03  0.78883122406E+02 0.  0.
         -6    2    1    2    0  502 -0.68345260773E+02  0.30932649438E+03 -0.77645913566E+03  0.85593680034E+03  0.17142071645E+03 0.  0.
        -24    2    5    5    0    0 -0.30418419782E+02  0.59055582485E+02 -0.28196589126E+03  0.30040135290E+03  0.79519600745E+02 0.  0.
         14    1    4    4    0    0  0.51381850203E+02 -0.16980013574E+03 -0.68673330089E+02  0.19023198178E+03  0.00000000000E+00 0. -1.
        -13    1    4    4    0    0  0.37900839529E+02 -0.82325188868E+02 -0.10315752160E+03  0.13731491041E+03  0.00000000000E+00 0.  1.
          5    1    3    3  501    0 -0.20937428958E+02 -0.57201169774E+02 -0.12724056010E+03  0.14114744025E+03  0.47000000000E+01 0. -1.
         11    1    6    6    0    0  0.16364733014E+02  0.18452380276E+02 -0.21654565156E+02  0.32820953925E+02  0.00000000000E+00 0. -1.
        -12    1    6    6    0    0 -0.46783152796E+02  0.40603202210E+02 -0.26031132610E+03  0.26758039897E+03  0.00000000000E+00 0.  1.
         -5    1    5    5    0  502 -0.37926840992E+02  0.25027091190E+03 -0.49449324440E+03  0.55553544744E+03  0.47000000000E+01 0.  1.
</event>
<event>
12    1  0.9749377E-001  0.2805119E+03  0.7818608E-02  0.1095410E+00
         21   -1    0    0  501  502  0.00000000000E+00  0.00000000000E+00  0.22476700943E+04  0.22476700943E+04  0.00000000000E+00 0. -1.
         21   -1    0    0  502  503 -0.00000000000E+00 -0.00000000000E+00 -0.43954296654E+02  0.43954296654E+02  0.00000000000E+00 0. -1.
         -6    2    1    2    0  503 -0.24998756903E+03  0.25204708244E+02  0.13952893229E+04  0.14279271615E+04  0.17033679036E+03 0.  0.
        -24    2    3    3    0    0 -0.76688230154E+02 -0.38853392443E+02  0.55867310918E+03  0.57113962654E+03  0.81817842385E+02 0.  0.
          6    2    1    2  501    0  0.24998756903E+03 -0.25204708244E+02  0.80842647474E+03  0.86369722939E+03  0.17114460844E+03 0.  0.
         24    2    5    5    0    0  0.20873645479E+03 -0.73482972993E+02  0.69500507166E+03  0.73362436538E+03  0.78752809280E+02 0.  0.
         14    1    6    6    0    0  0.15965509676E+03 -0.56706399188E+02  0.61781863928E+03  0.64062878227E+03  0.00000000000E+00 0. -1.
        -13    1    6    6    0    0  0.49081358028E+02 -0.16776573805E+02  0.77186432375E+02  0.92995583106E+02  0.00000000000E+00 0.  1.
          5    1    5    5  501    0  0.41251114244E+02  0.48278264749E+02  0.11342140309E+03  0.13007286401E+03  0.47000000000E+01 0. -1.
         13    1    4    4    0    0 -0.31463126627E+02 -0.33059723408E+02  0.96774986332E+02  0.10699659634E+03  0.00000000000E+00 0. -1.
        -14    1    4    4    0    0 -0.45225103527E+02 -0.57936690341E+01  0.46189812285E+03  0.46414303020E+03  0.00000000000E+00 0.  1.
         -5    1    3    3    0  503 -0.17329933888E+03  0.64058100687E+02  0.83661621370E+03  0.85678753501E+03  0.47000000000E+01 0.  1.
</event>
<event>
12    1  0.9749377E-001  0.5839661E+03  0.7818608E-02  0.9939241E-01
         21   -1    0    0  501  502  0.00000000000E+00  0.00000000000E+00  0.67061429585E+03  0.67061429585E+03  0.00000000000E+00 0.  1.
         21   -1    0    0  502  503 -0.00000000000E+00 -0.00000000000E+00 -0.53645554870E+03  0.53645554870E+03  0.00000000000E+00 0. -1.
         -6    2    1    2    0  503  0.17946943616E+03 -0.53159630376E+03  0.19110612637E+03  0.61747676651E+03  0.17306674132E+03 0.  0.
        -24    2    3    3    0    0  0.19816599957E+03 -0.52046766542E+03  0.17499383135E+03  0.58999760848E+03  0.85545209542E+02 0.  0.
          6    2    1    2  501    0 -0.17946943616E+03  0.53159630376E+03 -0.56947379214E+02  0.58959307804E+03  0.17196826736E+03 0.  0.
         24    2    5    5    0    0 -0.78952694657E+02  0.12372742398E+03 -0.19911502266E+02  0.16786522195E+03  0.78995325047E+02 0.  0.
         14    1    6    6    0    0 -0.55587315205E+02  0.18068745050E+02 -0.57889909573E+01  0.58736203280E+02  0.00000000000E+00 0. -1.
        -13    1    6    6    0    0 -0.23365379451E+02  0.10565867893E+03 -0.14122511308E+02  0.10912901867E+03  0.00000000000E+00 0.  1.
          5    1    5    5  501    0 -0.10051674150E+03  0.40786887979E+03 -0.37035876949E+02  0.42172785609E+03  0.47000000000E+01 0. -1.
         13    1    4    4    0    0  0.12807871752E+03 -0.27024684576E+03  0.56269410150E+02  0.30430866245E+03  0.00000000000E+00 0. -1.
        -14    1    4    4    0    0  0.70087282047E+02 -0.25022081966E+03  0.11872442120E+03  0.28568894604E+03  0.00000000000E+00 0.  1.
         -5    1    3    3    0  503 -0.18696563414E+02 -0.11128638346E+02  0.16112295016E+02  0.27479158022E+02  0.47000000000E+01 0.  1.
</event>
<event>
12    1  0.9749377E-001  0.3659763E+03  0.7818608E-02  0.1056242E+00
         21   -1    0    0  503  502  0.00000000000E+00  0.00000000000E+00  0.86411822378E+03  0.86411822378E+03  0.00000000000E+00 0. -1.
         21   -1    0    0  501  503 -0.00000000000E+00 -0.00000000000E+00 -0.23901562126E+03  0.23901562126E+03  0.00000000000E+00 0.  1.
          6    2    1    2  501    0  0.33785779572E+03  0.72551047116E+02  0.60338710666E+03  0.71673129523E+03  0.17382808896E+03 0.  0.
         24    2    3    3    0    0  0.22077396265E+03 -0.69260437601E+01  0.28998601691E+03  0.37283077909E+03  0.78241850508E+02 0.  0.
         -6    2    1    2    0  502 -0.33785779572E+03 -0.72551047116E+02  0.21715495863E+02  0.38640254981E+03  0.17153373772E+03 0.  0.
        -24    2    5    5    0    0 -0.69438036246E+02 -0.25549084012E+02 -0.47647248588E+00  0.11295616518E+03  0.85349116303E+02 0.  0.
         14    1    4    4    0    0  0.17674590613E+03  0.22568679769E+02  0.19563632452E+03  0.26461676461E+03  0.00000000000E+00 0. -1.
        -13    1    4    4    0    0  0.44028056514E+02 -0.29494723529E+02  0.94349692385E+02  0.10821401448E+03  0.00000000000E+00 0.  1.
          5    1    3    3  501    0  0.11708383307E+03  0.79477090877E+02  0.31340108975E+03  0.34390051614E+03  0.47000000000E+01 0. -1.
         11    1    6    6    0    0 -0.17543623698E+02  0.13136689585E+02 -0.33700186925E+02  0.40200173439E+02  0.00000000000E+00 0. -1.
        -12    1    6    6    0    0 -0.51894412548E+02 -0.38685773598E+02  0.33223714439E+02  0.72755991737E+02  0.00000000000E+00 0.  1.
         -5    1    5    5    0  502 -0.26841975947E+03 -0.47001963104E+02  0.22191968348E+02  0.27344638464E+03  0.47000000000E+01 0.  1.
</event>
<event>
12    1  0.9749377E-001  0.3654717E+03  0.7818608E-02  0.1056438E+00
         21   -1    0    0  503  502  0.00000000000E+00  0.00000000000E+00  0.94177163662E+03  0.94177163662E+03  0.00000000000E+00 0. -1.
         21   -1    0    0  501  503 -0.00000000000E+00 -0.00000000000E+00 -0.17434085057E+03  0.17434085057E+03  0.00000000000E+00 0.  1.
          6    2    1    2  501    0  0.10498206014E+03  0.33740920302E+03  0.51982624364E+03  0.65165049240E+03  0.17193846991E+03 0.  0.
         24    2    3    3    0    0  0.12338127051E+03  0.32368641707E+03  0.42668045138E+03  0.55560324147E+03  0.81504109287E+02 0.  0.
         -6    2    1    2    0  502 -0.10498206014E+03 -0.33740920302E+03  0.24760454241E+03  0.46446199479E+03  0.17190326334E+03 0.  0.
        -24    2    5    5    0    0 -0.66436335312E+02 -0.24056913210E+03  0.24576524034E+03  0.36011044822E+03  0.83616311745E+02 0.  0.
         14    1    4    4    0    0  0.27257232820E+02  0.15423101807E+03  0.23412997850E+03  0.28168601405E+03  0.00000000000E+00 0. -1.
        -13    1    4    4    0    0  0.96124037688E+02  0.16945539901E+03  0.19255047287E+03  0.27391722742E+03  0.00000000000E+00 0.  1.
          5    1    3    3  501    0 -0.18399210367E+02  0.13722785948E+02  0.93145792257E+02  0.96047250932E+02  0.47000000000E+01 0. -1.
         11    1    6    6    0    0  0.23684793699E+01 -0.32514859546E+02  0.76686051196E+02  0.83328123907E+02  0.00000000000E+00 0. -1.
        -12    1    6    6    0    0 -0.68804814682E+02 -0.20805427256E+03  0.16907918915E+03  0.27678232432E+03  0.00000000000E+00 0.  1.
         -5    1    5    5    0  502 -0.38545724829E+02 -0.96840070919E+02  0.18393020678E+01  0.10435154656E+03  0.47000000000E+01 0.  1.
</event>
<event>
12    1  0.9749377E-001  0.3493343E+03  0.7818608E-02  0.1062889E+00
         21   -1    0    0  503  502  0.00000000000E+00  0.00000000000E+00  0.74653008074E+03  0.74653008074E+03  0.00000000000E+00 0.  1.
         21   -1    0    0  501  503 -0.00000000000E+00 -0.00000000000E+00 -0.23821257061E+03  0.23821257061E+03  0.00000000000E+00 0. -1.
          6    2    1    2  501    0 -0.51557352495E+02  0.33371277199E+03  0.37665781126E+02  0.38085665955E+03  0.17207762571E+03 0.  0.
         24    2    3    3    0    0 -0.72805583129E+02  0.12073915232E+03 -0.17129851864E+02  0.15987272038E+03  0.73397949949E+02 0.  0.
         -6    2    1    2    0  502  0.51557352495E+02 -0.33371277199E+03  0.47065172900E+03  0.60388599180E+03  0.17071281818E+03 0.  0.
        -24    2    5    5    0    0  0.46882269257E+01 -0.17810394092E+03  0.15741594493E+03  0.25097018079E+03  0.80394394599E+02 0.  0.
         12    1    4    4    0    0 -0.82761810256E+01  0.38092581073E+02 -0.36316728484E+02  0.53277055783E+02  0.00000000000E+00 0. -1.
        -11    1    4    4    0    0 -0.64529402103E+02  0.82646571251E+02  0.19186876620E+02  0.10659566459E+03  0.00000000000E+00 0.  1.
          5    1    3    3  501    0  0.21248230634E+02  0.21297361967E+03  0.54795632990E+02  0.22098393918E+03  0.47000000000E+01 0. -1.
         11    1    6    6    0    0  0.34384743384E+00 -0.25438142874E+02  0.71154268117E+02  0.75565516045E+02  0.00000000000E+00 0. -1.
        -12    1    6    6    0    0  0.43443794918E+01 -0.15266579805E+03  0.86261676812E+02  0.17540466474E+03  0.00000000000E+00 0.  1.
         -5    1    5    5    0  502  0.46869125569E+02 -0.15560883107E+03  0.31323578407E+03  0.35291581101E+03  0.47000000000E+01 0.  1.
</event>
<event>
12    1  0.9749377E-001  0.1444450E+03  0.7818608E-02  0.1207470E+00
         21   -1    0    0  503  502  0.00000000000E+00  0.00000000000E+00  0.10808202101E+03  0.10808202101E+03  0.00000000000E+00 0. -1.
         21   -1    0    0  501  503 -0.00000000000E+00 -0.00000000000E+00 -0.83428749773E+03  0.83428749773E+03  0.00000000000E+00 0. -1.
          6    2    1    2  501    0 -0.52762813913E+02  0.67361778677E+02 -0.23899484544E+01  0.19336563467E+03  0.17338694605E+03 0.  0.
         24    2    3    3    0    0 -0.11749633144E+02  0.73936068145E+02 -0.59082779311E+02  0.12292793632E+03  0.77562276045E+02 0.  0.
         -6    2    1    2    0  502  0.52762813913E+02 -0.67361778677E+02 -0.72381552827E+03  0.74900388407E+03  0.17255832527E+03 0.  0.
        -24    2    5    5    0    0  0.57304546623E+01 -0.14132394508E+02 -0.15598470415E+03  0.17672829924E+03  0.81664564780E+02 0.  0.
         14    1    4    4    0    0  0.25878040057E+02  0.58761961108E+02 -0.49929048090E+02  0.81336036747E+02  0.00000000000E+00 0. -1.
        -13    1    4    4    0    0 -0.37627673202E+02  0.15174107036E+02 -0.91537312205E+01  0.41591899574E+02  0.00000000000E+00 0.  1.
          5    1    3    3  501    0 -0.41013180769E+02 -0.65742894676E+01  0.56692830856E+02  0.70437698353E+02  0.47000000000E+01 0. -1.
         11    1    6    6    0    0 -0.29415283271E+02  0.68322617230E+01 -0.24087556623E+02  0.38628345477E+02  0.00000000000E+00 0. -1.
        -12    1    6    6    0    0  0.35145737933E+02 -0.20964656231E+02 -0.13189714752E+03  0.13809995377E+03  0.00000000000E+00 0.  1.
         -5    1    5    5    0  502  0.47032359251E+02 -0.53229384169E+02 -0.56783082413E+03  0.57227558482E+03  0.47000000000E+01 0.  1.
</event>
<event>
12    1  0.9749377E-001  0.4332272E+03  0.7818608E-02  0.1032845E+00
         21   -1    0    0  503  502  0.00000000000E+00  0.00000000000E+00  0.11980267461E+04  0.11980267461E+04  0.00000000000E+00 0. -1.
         21   -1    0    0  501  503 -0.00000000000E+00 -0.00000000000E+00 -0.17267020219E+03  0.17267020219E+03  0.00000000000E+00 0.  1.
          6    2    1    2  501    0  0.31069409227E+03 -0.27197942497E+03  0.63552554185E+03  0.77713526985E+03  0.17188044310E+03 0.  0.
         24    2    3    3    0    0  0.96835304302E+02 -0.16006855051E+03  0.32794366669E+03  0.38612590302E+03  0.80914445222E+02 0.  0.
         -6    2    1    2    0  502 -0.31069409227E+03  0.27197942497E+03  0.38983100205E+03  0.59356167843E+03  0.17275308786E+03 0.  0.
        -24    2    5    5    0    0 -0.83131462523E+02  0.10969475294E+03  0.20782509526E+03  0.25999113816E+03  0.73894132487E+02 0.  0.
         12    1    4    4    0    0  0.35841084595E+02 -0.87126106488E+02  0.91721101506E+02  0.13148498864E+03  0.00000000000E+00 0. -1.
        -11    1    4    4    0    0  0.60994219708E+02 -0.72942444024E+02  0.23622256518E+03  0.25464091438E+03  0.00000000000E+00 0.  1.
          5    1    3    3  501    0  0.21385878797E+03 -0.11191087445E+03  0.30758187517E+03  0.39100936682E+03  0.47000000000E+01 0. -1.
         13    1    6    6    0    0  0.42021530741E+01 -0.83599343845E+01  0.13305283820E+02  0.16265828319E+02  0.00000000000E+00 0. -1.
        -14    1    6    6    0    0 -0.87333615597E+02  0.11805468732E+03  0.19451981144E+03  0.24372530984E+03  0.00000000000E+00 0.  1.
         -5    1    5    5    0  502 -0.22756262975E+03  0.16228467203E+03  0.18200590679E+03  0.33357054027E+03  0.47000000000E+01 0.  1.
</event>
<event>
12    1  0.9749377E-001  0.7999996E+03  0.7818608E-02  0.9560018E-01
         21   -1    0    0  503  502  0.00000000000E+00  0.00000000000E+00  0.19890983221E+04  0.19890983221E+04  0.00000000000E+00 0.  1.
         21   -1    0    0  501  503 -0.00000000000E+00 -0.00000000000E+00 -0.34750384265E+03  0.34750384265E+03  0.00000000000E+00 0. -1.
          6    2    1    2  501    0  0.51362640927E+03 -0.59829273984E+03  0.53898154331E+03  0.97023987607E+03  0.17058142410E+03 0.  0.
         24    2    3    3    0    0  0.40664077318E+03 -0.42431179366E+03  0.46212866096E+03  0.75196538950E+03  0.80571900027E+02 0.  0.
         -6    2    1    2    0  502 -0.51362640927E+03  0.59829273984E+03  0.11026129362E+04  0.13663622887E+04  0.17153520379E+03 0.  0.
        -24    2    5    5    0    0 -0.10714791018E+03  0.13666433806E+03  0.26072493614E+03  0.32371035918E+03  0.81566465904E+02 0.  0.
         14    1    4    4    0    0  0.31235662164E+03 -0.27482487169E+03  0.33713403360E+03  0.53549484199E+03  0.00000000000E+00 0. -1.
        -13    1    4    4    0    0  0.94284151536E+02 -0.14948692198E+03  0.12499462736E+03  0.21647054751E+03  0.00000000000E+00 0.  1.
          5    1    3    3  501    0  0.10698563609E+03 -0.17398094618E+03  0.76852882351E+02  0.21827448657E+03  0.47000000000E+01 0. -1.
         11    1    6    6    0    0 -0.42574030955E+02  0.11000785152E+03  0.19435330660E+03  0.22734881415E+03  0.00000000000E+00 0. -1.
        -12    1    6    6    0    0 -0.64573879224E+02  0.26656486536E+02  0.66371629546E+02  0.96361545032E+02  0.00000000000E+00 0.  1.
         -5    1    5    5    0  502 -0.40647849909E+03  0.46162840178E+03  0.84188800003E+03  0.10426519295E+04  0.47000000000E+01 0.  1.
</event>
<event>
12    1  0.9749377E-001  0.3631060E+03  0.7818608E-02  0.1057361E+00
         21   -1    0    0  503  502  0.00000000000E+00  0.00000000000E+00  0.96400348287E+03  0.96400348287E+03  0.00000000000E+00 0.  1.
         21   -1    0    0  501  503 -0.00000000000E+00 -0.00000000000E+00 -0.16803599964E+03  0.16803599964E+03  0.00000000000E+00 0. -1.
          6    2    1    2  501    0  0.25793025547E+03  0.21929525671E+03  0.20517812416E+03  0.43042471654E+03  0.16896433846E+03 0.  0.
         24    2    3    3    0    0  0.80740803016E+02  0.37453271066E+02  0.33266645849E+02  0.12376813960E+03  0.79309885062E+02 0.  0.
         -6    2    1    2    0  502 -0.25793025547E+03 -0.21929525671E+03  0.59078935907E+03  0.70161476597E+03  0.16915314580E+03 0.  0.
        -24    2    5    5    0    0 -0.95594039533E+02 -0.14288733436E+03  0.38049656337E+03  0.42514348803E+03  0.80089574620E+02 0.  0.
         14    1    4    4    0    0  0.60720880388E+02 -0.13890874016E+02  0.28357701331E+02  0.68440784046E+02  0.00000000000E+00 0. -1.
        -13    1    4    4    0    0  0.20019922628E+02  0.51344145082E+02  0.49089445180E+01  0.55327355553E+02  0.00000000000E+00 0.  1.
          5    1    3    3  501    0  0.17718945245E+03  0.18184198565E+03  0.17191147831E+03  0.30665657694E+03  0.47000000000E+01 0. -1.
         13    1    6    6    0    0 -0.39202014721E+02 -0.30559729580E+02  0.19385819725E+03  0.20012919745E+03  0.00000000000E+00 0. -1.
        -14    1    6    6    0    0 -0.56392024812E+02 -0.11232760478E+03  0.18663836613E+03  0.22501429059E+03  0.00000000000E+00 0.  1.
         -5    1    5    5    0  502 -0.16233621594E+03 -0.76407922352E+02  0.21029279570E+03  0.27647127794E+03  0.47000000000E+01 0.  1.
</event>
<event>
12    1  0.9749377E-001  0.1722534E+03  0.7818608E-02  0.1175518E+00
         21   -1    0    0  501  502  0.00000000000E+00  0.00000000000E+00  0.60179118217E+03  0.60179118217E+03  0.00000000000E+00 0.  1.
         21   -1    0    0  502  503 -0.00000000000E+00 -0.00000000000E+00 -0.79938785038E+02  0.79938785038E+02  0.00000000000E+00 0. -1.
         -6    2    1    2    0  503  0.12821359953E+03  0.43358964594E+02  0.28388944750E+03  0.35829324103E+03  0.17164527741E+03 0.  0.
        -24    2    3    3    0    0  0.12157489025E+03  0.73697955190E+02  0.28332943447E+03  0.32687779219E+03  0.79760140748E+02 0.  0.
          6    2    1    2  501    0 -0.12821359953E+03 -0.43358964594E+02  0.23796294963E+03  0.32343672617E+03  0.17223885602E+03 0.  0.
         24    2    5    5    0    0 -0.11085492197E+03 -0.66402341804E+02  0.98706652857E+02  0.18114573168E+03  0.79829117912E+02 0.  0.
         14    1    6    6    0    0  0.64213990396E+01 -0.86774484412E+01 -0.71472114267E+01  0.12946625362E+02  0.00000000000E+00 0. -1.
        -13    1    6    6    0    0 -0.11727632101E+03 -0.57724893363E+02  0.10585386428E+03  0.16819910632E+03  0.00000000000E+00 0.  1.
          5    1    5    5  501    0 -0.17358677559E+02  0.23043377211E+02  0.13925629678E+03  0.14229099449E+03  0.47000000000E+01 0. -1.
         13    1    4    4    0    0  0.41561538997E+02  0.29309781842E+02  0.33705640446E+02  0.61012253140E+02  0.00000000000E+00 0. -1.
        -14    1    4    4    0    0  0.80013351258E+02  0.44388173348E+02  0.24962379402E+03  0.26586553905E+03  0.00000000000E+00 0.  1.
         -5    1    3    3    0  503  0.66387092771E+01 -0.30338990596E+02  0.56001302477E+00  0.31415448841E+02  0.47000000000E+01 0.  1.
</event>
<event>
12    1  0.9749377E-001  0.1015718E+04  0.7818608E-02  0.9291471E-01
         21   -1    0    0  503  502  0.00000000000E+00  0.00000000000E+00  0.15423609380E+04  0.15423609380E+04  0.00000000000E+00 0. -1.
         21   -1    0    0  501  503 -0.00000000000E+00 -0.00000000000E+00 -0.68872850768E+03  0.68872850768E+03  0.00000000000E+00 0.  1.
          6    2    1    2  501    0 -0.95954590829E+03 -0.31215532887E+03  0.29588129189E+03  0.10654784305E+04  0.17184076194E+03 0.  0.
         24    2    3    3    0    0 -0.33188409484E+03 -0.12656797644E+03  0.15606489283E+03  0.39617077858E+03  0.80178113950E+02 0.  0.
         -6    2    1    2    0  502  0.95954590829E+03  0.31215532887E+03  0.55775113844E+03  0.11656110152E+04  0.17144505505E+03 0.  0.
        -24    2    5    5    0    0  0.76274550619E+03  0.21428949914E+03  0.37690674114E+03  0.88094471069E+03  0.79398961750E+02 0.  0.
         12    1    4    4    0    0  0.42336141463E+01  0.73926475987E-01  0.48926426254E+01  0.64704641042E+01  0.00000000000E+00 0. -1.
        -11    1    4    4    0    0 -0.33611770899E+03 -0.12664190292E+03  0.15117225021E+03  0.38970031448E+03  0.00000000000E+00 0.  1.
          5    1    3    3  501    0 -0.62766181345E+03 -0.18558735243E+03  0.13981639906E+03  0.66930765190E+03  0.47000000000E+01 0. -1.
         11    1    6    6    0    0  0.44862388119E+03  0.10222717279E+03  0.18315052084E+03  0.49523519151E+03  0.00000000000E+00 0. -1.
        -12    1    6    6    0    0  0.31412162500E+03  0.11206232635E+03  0.19375622030E+03  0.38570951918E+03  0.00000000000E+00 0.  1.
         -5    1    5    5    0  502  0.19680040210E+03  0.97865829734E+02  0.18084439729E+03  0.28466630452E+03  0.47000000000E+01 0.  1.
</event>
<event>
12    1  0.9749377E-001  0.7317332E+03  0.7818608E-02  0.9664452E-01
         21   -1    0    0  503  502  0.00000000000E+00  0.00000000000E+00  0.32647755242E+03  0.32647755242E+03  0.00000000000E+00 0. -1.
         21   -1    0    0  501  503 -0.00000000000E+00 -0.00000000000E+00 -0.17977896228E+04  0.17977896228E+04  0.00000000000E+00 0.  1.
          6    2    1    2  501    0 -0.50034846298E+03 -0.52165274919E+03 -0.47648058491E+03  0.88257912932E+03  0.17158670282E+03 0.  0.
         24    2    3    3    0    0 -0.28128394910E+03 -0.30489588911E+03 -0.35340491063E+03  0.55070187907E+03  0.79343339645E+02 0.  0.
         -6    2    1    2    0  502  0.50034846298E+03  0.52165274919E+03 -0.99483148547E+03  0.12416880459E+04  0.17213176249E+03 0.  0.
        -24    2    5    5    0    0  0.13768922595E+03  0.15065098288E+03 -0.35904651823E+03  0.42107324747E+03  0.82062390252E+02 0.  0.
         12    1    4    4    0    0 -0.13489314589E+03 -0.17874445574E+03 -0.23221359009E+03  0.32259710583E+03  0.00000000000E+00 0. -1.
        -11    1    4    4    0    0 -0.14639080321E+03 -0.12615143336E+03 -0.12119132054E+03  0.22810477325E+03  0.00000000000E+00 0.  1.
          5    1    3    3  501    0 -0.21906451388E+03 -0.21675686009E+03 -0.12307567428E+03  0.33187725025E+03  0.47000000000E+01 0. -1.
         11    1    6    6    0    0  0.14545001367E+03  0.15303047503E+03 -0.35125230292E+03  0.40981973241E+03  0.00000000000E+00 0. -1.
        -12    1    6    6    0    0 -0.77607877161E+01 -0.23794921530E+01 -0.77942153082E+01  0.11253515058E+02  0.00000000000E+00 0.  1.
         -5    1    5    5    0  502  0.36265923702E+03  0.37100176632E+03 -0.63578496724E+03  0.82061479841E+03  0.47000000000E+01 0.  1.
</event>
<event>
12    1  0.9749377E-001  0.2865543E+03  0.7818608E-02  0.1092162E+00
         21   -1    0    0  503  502  0.00000000000E+00  0.00000000000E+00  0.19891626804E+03  0.19891626804E+03  0.00000000000E+00 0. -1.
         21   -1    0    0  501  503 -0.00000000000E+00 -0.00000000000E+00 -0.54173160591E+03  0.54173160591E+03  0.00000000000E+00 0.  1.
          6    2    1    2  501    0  0.24782576531E+03  0.77588427867E+02 -0.28331491136E+03  0.42143213551E+03  0.17291654562E+03 0.  0.
         24    2    3    3    0    0  0.13026753916E+03  0.11055322799E+03 -0.15483854045E+03  0.24413328479E+03  0.80214955931E+02 0.  0.
         -6    2    1    2    0  502 -0.24782576531E+03 -0.77588427867E+02 -0.59500426517E+02  0.31921573845E+03  0.17584314836E+03 0.  0.
        -24    2    5    5    0    0 -0.17753814898E+03 -0.52186209046E+02  0.28081842288E+02  0.20398394795E+03  0.81102813754E+02 0.  0.
         14    1    4    4    0    0 -0.41500853659E+01  0.13194754122E+02  0.40033510634E+01  0.14399707102E+02  0.00000000000E+00 0. -1.
        -13    1    4    4    0    0  0.13441762453E+03  0.97358473872E+02 -0.15884189151E+03  0.22973357769E+03  0.00000000000E+00 0.  1.
          5    1    3    3  501    0  0.11755822615E+03 -0.32964800128E+02 -0.12847637091E+03  0.17729885072E+03  0.47000000000E+01 0. -1.
         13    1    6    6    0    0 -0.12544822585E+03 -0.66814438793E+02 -0.18654191446E+01  0.14214396360E+03  0.00000000000E+00 0. -1.
        -14    1    6    6    0    0 -0.52089923128E+02  0.14628229747E+02  0.29947261433E+02  0.61839984350E+02  0.00000000000E+00 0.  1.
         -5    1    5    5    0  502 -0.70287616332E+02 -0.25402218821E+02 -0.87582268805E+02  0.11523179049E+03  0.47000000000E+01 0.  1.
</event>
<event>
12    1  0.9749377E-001  0.5131302E+03  0.7818608E-02  0.1010407E+00
         21   -1    0    0  501  502  0.00000000000E+00  0.00000000000E+00  0.45272185254E+03  0.45272185254E+03  0.00000000000E+00 0. -1.
         21   -1    0    0  502  503 -0.00000000000E+00 -0.00000000000E+00 -0.67199394741E+03  0.67199394741E+03  0.00000000000E+00 0.  1.
         -6    2    1    2    0  503  0.52343682939E+02  0.49856575106E+03  0.46310519026E+02  0.53185077833E+03  0.17150194450E+03 0.  0.
        -24    2    3    3    0    0  0.48423070199E+02  0.50139252575E+03  0.63806170046E+02  0.51310112062E+03  0.73907198862E+02 0.  0.
          6    2    1    2  501    0 -0.52343682939E+02 -0.49856575106E+03 -0.26558261389E+03  0.59286502162E+03  0.17218344807E+03 0.  0.
         24    2    5    5    0    0 -0.21416661904E+02 -0.24227973656E+03 -0.20423086190E+03  0.32748768776E+03  0.79873628475E+02 0.  0.
         14    1    6    6    0    0 -0.33172391318E+02 -0.51211678188E+02 -0.74228266341E+02  0.96087871516E+02  0.00000000000E+00 0. -1.
        -13    1    6    6    0    0  0.11755729414E+02 -0.19106805838E+03 -0.13000259556E+03  0.23139981624E+03  0.00000000000E+00 0.  1.
          5    1    5    5  501    0 -0.30927021034E+02 -0.25628601449E+03 -0.61351751998E+02  0.26537733386E+03  0.47000000000E+01 0. -1.
         11    1    4    4    0    0  0.19509294912E+02  0.25464399466E+02  0.26189923286E+00  0.32079850675E+02  0.00000000000E+00 0. -1.
        -12    1    4    4    0    0  0.28913775287E+02  0.47592812629E+03  0.63544270813E+02  0.48102126995E+03  0.00000000000E+00 0.  1.
         -5    1    3    3    0  503  0.39206127398E+01 -0.28267746956E+01 -0.17495651020E+02  0.18749657705E+02  0.47000000000E+01 0.  1.
</event>
<event>
12    1  0.9749377E-001  0.5216112E+03  0.7818608E-02  0.1008287E+00
         21   -1    0    0  501  502  0.00000000000E+00  0.00000000000E+00  0.40998572562E+03  0.40998572562E+03  0.00000000000E+00 0. -1.
         21   -1    0    0  502  503 -0.00000000000E+00 -0.00000000000E+00 -0.72086526775E+03  0.72086526775E+03  0.00000000000E+00 0.  1.
         -6    2    1    2    0  503 -0.44531577502E+03 -0.25314759600E+03 -0.94445029640E+02  0.54838154098E+03  0.17150103796E+03 0.  0.
        -24    2    3    3    0    0 -0.38464956674E+03 -0.22595327333E+03 -0.13183055773E+03  0.47196369147E+03  0.79751233194E+02 0.  0.
          6    2    1    2  501    0  0.44531577502E+03  0.25314759600E+03 -0.21643451249E+03  0.58246945239E+03  0.17331162665E+03 0.  0.
         24    2    5    5    0    0  0.91643822246E+02  0.52940434003E+02 -0.37168566940E+02  0.13825652245E+03  0.80821308601E+02 0.  0.
         12    1    6    6    0    0  0.96557783752E+02  0.42215848415E+02 -0.67136448628E+01  0.10559666892E+03  0.00000000000E+00 0. -1.
        -11    1    6    6    0    0 -0.49139615065E+01  0.10724585588E+02 -0.30454922078E+02  0.32659853528E+02  0.00000000000E+00 0.  1.
          5    1    5    5  501    0  0.35367195278E+03  0.20020716200E+03 -0.17926594555E+03  0.44421292994E+03  0.47000000000E+01 0. -1.
         11    1    4    4    0    0 -0.11387580324E+03 -0.27222707548E+02 -0.27693677228E+02  0.12031506194E+03  0.00000000000E+00 0. -1.
        -12    1    4    4    0    0 -0.27077376350E+03 -0.19873056578E+03 -0.10413688050E+03  0.35164862954E+03  0.00000000000E+00 0.  1.
         -5    1    3    3    0  503 -0.60666208281E+02 -0.27194322671E+02  0.37385528093E+02  0.76417849508E+02  0.47000000000E+01 0.  1.
</event>
<event>
12    1  0.9749377E-001  0.3039692E+03  0.7818608E-02  0.1083273E+00
         21   -1    0    0  503  502  0.00000000000E+00  0.00000000000E+00  0.19783624845E+04  0.19783624845E+04  0.00000000000E+00 0.  1.
         21   -1    0    0  501  503 -0.00000000000E+00 -0.00000000000E+00 -0.12388318099E+03  0.12388318099E+03  0.00000000000E+00 0. -1.
          6    2    1    2  501    0 -0.94673893426E+02  0.24648670061E+03  0.11648417242E+03  0.33593604747E+03  0.17194657860E+03 0.  0.
         24    2    3    3    0    0 -0.27176113796E+02  0.20679774373E+03  0.12536961248E+03  0.25699173420E+03  0.82603654511E+02 0.  0.
         -6    2    1    2    0  502  0.94673893426E+02 -0.24648670061E+03  0.17379951311E+04  0.17663096180E+04  0.17176656070E+03 0.  0.
        -24    2    5    5    0    0  0.50140208480E+02 -0.39353080980E+02  0.45242327188E+03  0.46338802382E+03  0.77323593991E+02 0.  0.
         12    1    4    4    0    0  0.22035136070E+02  0.11323205513E+03  0.43522222233E+02  0.12329326567E+03  0.00000000000E+00 0. -1.
        -11    1    4    4    0    0 -0.49211249866E+02  0.93565688600E+02  0.81847390248E+02  0.13369846853E+03  0.00000000000E+00 0.  1.
          5    1    3    3  501    0 -0.67497779630E+02  0.39688956877E+02 -0.88854400569E+01  0.78944313272E+02  0.47000000000E+01 0. -1.
         13    1    6    6    0    0  0.63202571212E+02 -0.49240668865E+02  0.31660461379E+03  0.32658488935E+03  0.00000000000E+00 0. -1.
        -14    1    6    6    0    0 -0.13062362732E+02  0.98875878844E+01  0.13581865809E+03  0.13680313447E+03  0.00000000000E+00 0.  1.
         -5    1    5    5    0  502  0.44533684946E+02 -0.20713361963E+03  0.12855718592E+04  0.13029215942E+04  0.47000000000E+01 0.  1.
</event>
<event>
12    1  0.9749377E-001  0.4534266E+03  0.7818608E-02  0.1026705E+00
         21   -1    0    0  503  502  0.00000000000E+00  0.00000000000E+00  0.57335205005E+03  0.57335205005E+03  0.00000000000E+00 0. -1.
         21   -1    0    0  501  503 -0.00000000000E+00 -0.00000000000E+00 -0.43221899609E+03  0.43221899609E+03  0.00000000000E+00 0.  1.
          6    2    1    2  501    0  0.40733314565E+03  0.13082053571E+03 -0.11897745345E+03  0.47615395036E+03  0.17185065001E+03 0.  0.
         24    2    3    3    0    0  0.41471719062E+03  0.11171853999E+03 -0.10065112818E+03  0.44827287150E+03  0.79665157654E+02 0.  0.
         -6    2    1    2    0  502 -0.40733314565E+03 -0.13082053571E+03  0.26011050741E+03  0.52941709578E+03  0.17201942079E+03 0.  0.
        -24    2    5    5    0    0 -0.13130090596E+03 -0.16232501367E+02  0.44468049894E+02  0.16084149370E+03  0.79932200192E+02 0.  0.
         14    1    4    4    0    0  0.26231249444E+03  0.10986107373E+03 -0.67660782412E+02  0.29232735372E+03  0.00000000000E+00 0. -1.
        -13    1    4    4    0    0  0.15240469618E+03  0.18574662593E+01 -0.32990345764E+02  0.15594551777E+03  0.00000000000E+00 0.  1.
          5    1    3    3  501    0 -0.73840449722E+01  0.19101995715E+02 -0.18326325274E+02  0.27881078862E+02  0.47000000000E+01 0. -1.
         11    1    6    6    0    0 -0.33121629052E+02 -0.37122174869E+02 -0.29297263242E+01  0.49836547577E+02  0.00000000000E+00 0. -1.
        -12    1    6    6    0    0 -0.98179276911E+02  0.20889673502E+02  0.47397776218E+02  0.11100494612E+03  0.00000000000E+00 0.  1.
         -5    1    5    5    0  502 -0.27603223968E+03 -0.11458803434E+03  0.21564245752E+03  0.36857560208E+03  0.47000000000E+01 0.  1.
</event>
<event>
12    1  0.9749377E-001  0.1347763E+03  0.7818608E-02  0.1220536E+00
         21   -1    0    0  501  502  0.00000000000E+00  0.00000000000E+00  0.82888812455E+03  0.82888812455E+03  0.00000000000E+00 0. -1.
         21   -1    0    0  502  503 -0.00000000000E+00 -0.00000000000E+00 -0.72196123912E+02  0.72196123912E+02  0.00000000000E+00 0. -1.
         -6    2    1    2    0  503 -0.25963752656E+00 -0.35082294433E+02  0.69167567301E+03  0.71425056176E+03  0.17466480339E+03 0.  0.
        -24    2    3    3    0    0  0.53887952369E+02 -0.35697519670E+02  0.59189621605E+03  0.60062675252E+03  0.78950243530E+02 0.  0.
          6    2    1    2  501    0  0.25963752656E+00  0.35082294433E+02  0.65016327631E+02  0.18683368671E+03  0.17160672724E+03 0.  0.
         24    2    5    5    0    0  0.17511398246E+02 -0.39757528959E+02  0.52471540383E+01  0.89401317725E+02  0.77959943612E+02 0.  0.
         14    1    6    6    0    0 -0.16460962820E+02 -0.29542684781E+02  0.30751594279E+02  0.45709890305E+02  0.00000000000E+00 0. -1.
        -13    1    6    6    0    0  0.33972361066E+02 -0.10214844178E+02 -0.25504440241E+02  0.43691427420E+02  0.00000000000E+00 0.  1.
          5    1    5    5  501    0 -0.17251760720E+02  0.74839823392E+02  0.59769173593E+02  0.97432368981E+02  0.47000000000E+01 0. -1.
         13    1    4    4    0    0  0.32821024171E+02 -0.73408388777E+01  0.71306648087E+02  0.78840000028E+02  0.00000000000E+00 0. -1.
        -14    1    4    4    0    0  0.21066928198E+02 -0.28356680793E+02  0.52058956796E+03  0.52178675249E+03  0.00000000000E+00 0.  1.
         -5    1    3    3    0  503 -0.54147589896E+02  0.61522523716E+00  0.99779456961E+02  0.11362380923E+03  0.47000000000E+01 0.  1.
</event>
<event>
12    1  0.9749377E-001  0.2144930E+03  0.7818608E-02  0.1138057E+00
         21   -1    0    0  501  502  0.00000000000E+00  0.00000000000E+00  0.24006279416E+02  0.24006279416E+02  0.00000000000E+00 0. -1.
         21   -1    0    0  502  503 -0.00000000000E+00 -0.00000000000E+00 -0.34679046950E+04  0.34679046950E+04  0.00000000000E+00 0.  1.
         -6    2    1    2    0  503 -0.13787900005E+03  0.10033033141E+03 -0.77840831189E+03  0.81543245304E+03  0.17301384741E+03 0.  0.
        -24    2    3    3    0    0 -0.46913934842E+02  0.30125796633E+02 -0.56657701341E+03  0.57439737508E+03  0.76251894858E+02 0.  0.
          6    2    1    2  501    0  0.13787900005E+03 -0.10033033141E+03 -0.26654901037E+04  0.26764785214E+04  0.17211330118E+03 0.  0.
         24    2    5    5    0    0  0.16369439122E+03 -0.89093336216E+02 -0.19500949051E+04  0.19605140776E+04  0.77536014625E+02 0.  0.
         12    1    6    6    0    0  0.15572303004E+03 -0.64639249302E+02 -0.18268401482E+04  0.18346042684E+04  0.00000000000E+00 0. -1.
        -11    1    6    6    0    0  0.79713611741E+01 -0.24454086915E+02 -0.12325475685E+03  0.12590980920E+03  0.00000000000E+00 0.  1.
          5    1    5    5  501    0 -0.25815391173E+02 -0.11236995194E+02 -0.71539519867E+03  0.71596444378E+03  0.47000000000E+01 0. -1.
         11    1    4    4    0    0  0.15378141987E+02  0.24022265924E+02 -0.11406172963E+03  0.11757395408E+03  0.00000000000E+00 0. -1.
        -12    1    4    4    0    0 -0.62292076829E+02  0.61035307089E+01 -0.45251528377E+03  0.45682342100E+03  0.00000000000E+00 0.  1.
         -5    1    3    3    0  503 -0.90965065204E+02  0.70204534777E+02 -0.21183129848E+03  0.24103507796E+03  0.47000000000E+01 0.  1.
</event>
<event>
12    1  0.9749377E-001  0.3302297E+03  0.7818608E-02  0.1071035E+00
         21   -1    0    0  503  502  0.00000000000E+00  0.00000000000E+00  0.17401664585E+03  0.17401664585E+03  0.00000000000E+00 0. -1.
         21   -1    0    0  501  503 -0.00000000000E+00 -0.00000000000E+00 -0.73739489507E+03  0.73739489507E+03  0.00000000000E+00 0.  1.
          6    2    1    2  501    0  0.13900469201E+03 -0.26910326167E+03 -0.38584505659E+03  0.51989496093E+03  0.17226576230E+03 0.  0.
         24    2    3    3    0    0  0.25296537437E+02 -0.73182972161E+02 -0.70592019282E+02  0.13166710027E+03  0.79732865790E+02 0.  0.
         -6    2    1    2    0  502 -0.13900469201E+03  0.26910326167E+03 -0.17753319263E+03  0.39151657999E+03  0.17328683758E+03 0.  0.
        -24    2    5    5    0    0 -0.12219806032E+02  0.16465155009E+03 -0.84329554696E+02  0.20258914554E+03  0.81678831338E+02 0.  0.
         12    1    4    4    0    0  0.42895205812E+02 -0.67251008944E+02 -0.26880523501E+02  0.84173983090E+02  0.00000000000E+00 0. -1.
        -11    1    4    4    0    0 -0.17598668375E+02 -0.59319632176E+01 -0.43711495782E+02  0.47493117182E+02  0.00000000000E+00 0.  1.
          5    1    3    3  501    0  0.11370815457E+03 -0.19592028951E+03 -0.31525303730E+03  0.38822786065E+03  0.47000000000E+01 0. -1.
         13    1    6    6    0    0 -0.28824909694E+02  0.12380447066E+03 -0.26468509684E+02  0.12984222879E+03  0.00000000000E+00 0. -1.
        -14    1    6    6    0    0  0.16605103662E+02  0.40847079431E+02 -0.57861045013E+02  0.72746916743E+02  0.00000000000E+00 0.  1.
         -5    1    5    5    0  502 -0.12678488597E+03  0.10445171159E+03 -0.93203637937E+02  0.18892743445E+03  0.47000000000E+01 0.  1.
</event>
<event>
12    1  0.9749377E-001  0.2416067E+03  0.7818608E-02  0.1118727E+00
         21   -1    0    0  501  502  0.00000000000E+00  0.00000000000E+00  0.52700693212E+03  0.52700693212E+03  0.00000000000E+00 0.  1.
         21   -1    0    0  502  503 -0.00000000000E+00 -0.00000000000E+00 -0.39926807958E+03  0.39926807958E+03  0.00000000000E+00 0. -1.
         -6    2    1    2    0  503 -0.11677204331E+03 -0.16283406816E+03 -0.31499189217E+03  0.41090986514E+03  0.17168686987E+03 0.  0.
        -24    2    3    3    0    0 -0.14971308580E+03 -0.11282343454E+03 -0.23900645249E+03  0.31404886784E+03  0.79746295331E+02 0.  0.
          6    2    1    2  501    0  0.11677204331E+03  0.16283406816E+03  0.44273074470E+03  0.51536514656E+03  0.17158111239E+03 0.  0.
         24    2    5    5    0    0  0.78849783341E+02  0.36035448916E+02  0.12648355296E+03  0.17250896107E+03  0.79027910058E+02 0.  0.
         12    1    6    6    0    0  0.78924879774E+02  0.34753475516E+02  0.57806063988E+02  0.10381946706E+03  0.00000000000E+00 0. -1.
        -11    1    6    6    0    0 -0.75096433012E-01  0.12819734000E+01  0.68677488967E+02  0.68689494001E+02  0.00000000000E+00 0.  1.
          5    1    5    5  501    0  0.37922259969E+02  0.12679861924E+03  0.31624719175E+03  0.34285618549E+03  0.47000000000E+01 0. -1.
         13    1    4    4    0    0 -0.61078078645E+02 -0.94753486539E+02 -0.14379304378E+03  0.18271615785E+03  0.00000000000E+00 0. -1.
        -14    1    4    4    0    0 -0.88635007150E+02 -0.18069948004E+02 -0.95213408713E+02  0.13133270999E+03  0.00000000000E+00 0.  1.
         -5    1    3    3    0  503  0.32941042485E+02 -0.50010633617E+02 -0.75985439681E+02  0.96860997302E+02  0.47000000000E+01 0.  1.
</event>
<event>
12    1  0.9749377E-001  0.3489409E+03  0.7818608E-02  0.1063051E+00
         21   -1    0    0  503  502  0.00000000000E+00  0.00000000000E+00  0.14696241200E+04  0.14696241200E+04  0.00000000000E+00 0.  1.
         21   -1    0    0  501  503 -0.00000000000E+00 -0.00000000000E+00 -0.11346795503E+03  0.11346795503E+03  0.00000000000E+00 0. -1.
          6    2    1    2  501    0  0.26705490266E+03  0.18416976570E+03  0.33550406945E+03  0.49757827561E+03  0.17258138980E+03 0.  0.
         24    2    3    3    0    0  0.15506195734E+03  0.16616020157E+03  0.28547085501E+03  0.37351306393E+03  0.79780803868E+02 0.  0.
         -6    2    1    2    0  502 -0.26705490266E+03 -0.18416976570E+03  0.10206520956E+04  0.10855137994E+04  0.17712336098E+03 0.  0.
        -24    2    5    5    0    0 -0.25950377974E+03 -0.19849881528E+03  0.84962689401E+03  0.91365906230E+03  0.78504978965E+02 0.  0.
         14    1    4    4    0    0  0.16142915160E+03  0.15513811566E+03  0.24885463297E+03  0.33474741862E+03  0.00000000000E+00 0. -1.
        -13    1    4    4    0    0 -0.63671942581E+01  0.11022085912E+02  0.36616222035E+02  0.38765645315E+02  0.00000000000E+00 0.  1.
          5    1    3    3  501    0  0.11199294532E+03  0.18009564130E+02  0.50033214436E+02  0.12406521167E+03  0.47000000000E+01 0. -1.
         13    1    6    6    0    0 -0.81391774167E+01 -0.22733930191E+02  0.29931742458E+02  0.38457599996E+02  0.00000000000E+00 0. -1.
        -14    1    6    6    0    0 -0.25136460233E+03 -0.17576488509E+03  0.81969515156E+03  0.87520146230E+03  0.00000000000E+00 0.  1.
         -5    1    5    5    0  502 -0.75511229160E+01  0.14329049578E+02  0.17102520154E+03  0.17185473715E+03  0.47000000000E+01 0.  1.
</event>
<event>
12    1  0.9749377E-001  0.3344408E+03  0.7818608E-02  0.1069189E+00
         21   -1    0    0  501  502  0.00000000000E+00  0.00000000000E+00  0.38915485476E+03  0.38915485476E+03  0.00000000000E+00 0.  1.
         21   -1    0    0  502  503 -0.00000000000E+00 -0.00000000000E+00 -0.47565479782E+03  0.47565479782E+03  0.00000000000E+00 0. -1.
         -6    2    1    2    0  503  0.10141719379E+03 -0.30181714923E+03  0.19230128813E+03  0.40943251207E+03  0.17110276959E+03 0.  0.
        -24    2    3    3    0    0  0.10918036368E+03 -0.25680926631E+03  0.21208571078E+03  0.35943761521E+03  0.79647344218E+02 0.  0.
          6    2    1    2  501    0 -0.10141719379E+03  0.30181714923E+03 -0.27880123119E+03  0.45537714051E+03  0.16810465437E+03 0.  0.
         24    2    5    5    0    0 -0.10279362070E+03  0.21811779796E+03 -0.27091606407E+03  0.37116466035E+03  0.78903669621E+02 0.  0.
         14    1    6    6    0    0 -0.87996087371E+02  0.10691239522E+03 -0.12076989267E+03  0.18373605694E+03  0.00000000000E+00 0. -1.
        -13    1    6    6    0    0 -0.14797533329E+02  0.11120540275E+03 -0.15014617140E+03  0.18742860341E+03  0.00000000000E+00 0.  1.
          5    1    5    5  501    0  0.13764269100E+01  0.83699351266E+02 -0.78851671197E+01  0.84212480155E+02  0.47000000000E+01 0. -1.
         11    1    4    4    0    0 -0.10935798731E+02 -0.27782684536E+02  0.34996128044E+02  0.46002154645E+02  0.00000000000E+00 0. -1.
        -12    1    4    4    0    0  0.12011616241E+03 -0.22902658177E+03  0.17708958274E+03  0.31343546057E+03  0.00000000000E+00 0.  1.
         -5    1    3    3    0  503 -0.77631698864E+01 -0.45007882924E+02 -0.19784422653E+02  0.49994896857E+02  0.47000000000E+01 0.  1.
</event>
<event>
12    1  0.9749377E-001  0.1941545E+03  0.7818608E-02  0.1154767E+00
         21   -1    0    0  503  502  0.00000000000E+00  0.00000000000E+00  0.56244752968E+03  0.56244752968E+03  0.00000000000E+00 0. -1.
         21   -1    0    0  501  503 -0.00000000000E+00 -0.00000000000E+00 -0.88373404094E+02  0.88373404094E+02  0.00000000000E+00 0.  1.
          6    2    1    2  501    0 -0.10658339594E+03  0.95379452289E+02  0.24532056876E+03  0.33198796202E+03  0.17197838602E+03 0.  0.
         24    2    3    3    0    0 -0.26002825451E+02  0.72329566214E+02  0.54126581847E+02  0.12317762649E+03  0.79594771976E+02 0.  0.
         -6    2    1    2    0  502  0.10658339594E+03 -0.95379452289E+02  0.22875355682E+03  0.31883297175E+03  0.16990884000E+03 0.  0.
        -24    2    5    5    0    0  0.32275588960E+00 -0.41363763403E+02  0.48880231338E+02  0.10299617811E+03  0.80671374076E+02 0.  0.
         14    1    4    4    0    0  0.15466369112E+02  0.33072406336E+01 -0.11290032561E+02  0.19432221936E+02  0.00000000000E+00 0. -1.
        -13    1    4    4    0    0 -0.41469194563E+02  0.69022325580E+02  0.65416614408E+02  0.10374540456E+03  0.00000000000E+00 0.  1.
          5    1    3    3  501    0 -0.80580570492E+02  0.23049886075E+02  0.19119398692E+03  0.20881033552E+03  0.47000000000E+01 0. -1.
         11    1    6    6    0    0  0.34624293137E+02  0.47840578198E+00  0.29612012725E+02  0.45562504815E+02  0.00000000000E+00 0. -1.
        -12    1    6    6    0    0 -0.34301537248E+02 -0.41842169185E+02  0.19268218612E+02  0.57433673295E+02  0.00000000000E+00 0.  1.
         -5    1    5    5    0  502  0.10626064005E+03 -0.54015688886E+02  0.17987332548E+03  0.21583679364E+03  0.47000000000E+01 0.  1.
</event>
<event>
12    1  0.9749377E-001  0.3110871E+03  0.7818608E-02  0.1079826E+00
         21   -1    0    0  501  502  0.00000000000E+00  0.00000000000E+00  0.16484463709E+03  0.16484463709E+03  0.00000000000E+00 0. -1.
         21   -1    0    0  502  503 -0.00000000000E+00 -0.00000000000E+00 -0.73225731772E+03  0.73225731772E+03  0.00000000000E+00 0.  1.
         -6    2    1    2    0  503  0.18526256114E+03 -0.23772803130E+03 -0.29440412466E+03  0.45548466672E+03  0.17307703364E+03 0.  0.
        -24    2    3    3    0    0  0.12247453880E+03 -0.13380724602E+03 -0.89946857597E+02  0.21764705528E+03  0.79846175469E+02 0.  0.
          6    2    1    2  501    0 -0.18526256114E+03  0.23772803130E+03 -0.27300855597E+03  0.44161728809E+03  0.17220721261E+03 0.  0.
         24    2    5    5    0    0 -0.17986202805E+03  0.22503821344E+03 -0.29179945365E+03  0.41783946080E+03  0.80314053631E+02 0.  0.
         12    1    6    6    0    0 -0.19690291067E+02  0.81922995208E+02 -0.80110862580E+02  0.11626192416E+03  0.00000000000E+00 0. -1.
        -11    1    6    6    0    0 -0.16017173698E+03  0.14311521823E+03 -0.21168859107E+03  0.30157753664E+03  0.00000000000E+00 0.  1.
          5    1    5    5  501    0 -0.54005330904E+01  0.12689817865E+02  0.18790897675E+02  0.23777827288E+02  0.47000000000E+01 0. -1.
         11    1    4    4    0    0  0.50255170749E+02 -0.88551921178E+02 -0.12673642514E+02  0.10260431836E+03  0.00000000000E+00 0. -1.
        -12    1    4    4    0    0  0.72219368053E+02 -0.45255324845E+02 -0.77273215083E+02  0.11504273692E+03  0.00000000000E+00 0.  1.
         -5    1    3    3    0  503  0.62788022340E+02 -0.10392078528E+03 -0.20445726706E+03  0.23783761145E+03  0.47000000000E+01 0.  1.
</event>
<event>
12    1  0.9749377E-001  0.3754899E+03  0.7818608E-02  0.1052613E+00
         21   -1    0    0  503  502  0.00000000000E+00  0.00000000000E+00  0.10135510384E+03  0.10135510384E+03  0.00000000000E+00 0.  1.
         21   -1    0    0  501  503 -0.00000000000E+00 -0.00000000000E+00 -0.38444291247E+04  0.38444291247E+04  0.00000000000E+00 0. -1.
          6    2    1    2  501    0  0.34264294162E+03 -0.76586119416E+02 -0.34192226987E+04  0.34414758431E+04  0.17147156126E+03 0.  0.
         24    2    3    3    0    0  0.34002253216E+03 -0.41640366729E+02 -0.32285609832E+04  0.32475633579E+04  0.75581073188E+02 0.  0.
         -6    2    1    2    0  502 -0.34264294162E+03  0.76586119416E+02 -0.32385132216E+03  0.50430838542E+03  0.16179508527E+03 0.  0.
        -24    2    5    5    0    0 -0.11222057075E+03  0.48852869491E+02 -0.17483661621E+03  0.22846227845E+03  0.81529816303E+02 0.  0.
         12    1    4    4    0    0  0.27315220000E+03 -0.37146619596E+02 -0.28313222582E+04  0.28447104818E+04  0.00000000000E+00 0. -1.
        -11    1    4    4    0    0  0.66870332166E+02 -0.44937471331E+01 -0.39723872506E+03  0.40285287609E+03  0.00000000000E+00 0.  1.
          5    1    3    3  501    0  0.26204094532E+01 -0.34945752687E+02 -0.19066171547E+03  0.19391248521E+03  0.47000000000E+01 0. -1.
         13    1    6    6    0    0 -0.10431012451E+03  0.14217777506E+02 -0.15614327031E+03  0.18831746636E+03  0.00000000000E+00 0. -1.
        -14    1    6    6    0    0 -0.79104462427E+01  0.34635091984E+02 -0.18693345904E+02  0.40144812089E+02  0.00000000000E+00 0.  1.
         -5    1    5    5    0  502 -0.23042237086E+03  0.27733249925E+02 -0.14901470595E+03  0.27584610698E+03  0.47000000000E+01 0.  1.
</event>
<event>
12    1  0.9749377E-001  0.3430091E+03  0.7818608E-02  0.1065522E+00
         21   -1    0    0  501  502  0.00000000000E+00  0.00000000000E+00  0.19314396329E+04  0.19314396329E+04  0.00000000000E+00 0.  1.
         21   -1    0    0  502  503 -0.00000000000E+00 -0.00000000000E+00 -0.69368872939E+02  0.69368872939E+02  0.00000000000E+00 0. -1.
         -6    2    1    2    0  503 -0.99312750375E+00  0.31920017964E+03  0.79579073066E+03  0.87449388896E+03  0.17195038191E+03 0.  0.
        -24    2    3    3    0    0  0.32105859725E+02  0.26109097436E+03  0.49545639107E+03  0.56676831603E+03  0.80932104180E+02 0.  0.
          6    2    1    2  501    0  0.99312750375E+00 -0.31920017964E+03  0.10662800293E+04  0.11263146169E+04  0.17245803645E+03 0.  0.
         24    2    5    5    0    0  0.17682946245E+02 -0.97557604679E+02  0.25423921514E+03  0.28439041902E+03  0.80063469178E+02 0.  0.
         12    1    6    6    0    0  0.47141351263E+02 -0.60098354167E+02  0.18680231272E+03  0.20181482406E+03  0.00000000000E+00 0. -1.
        -11    1    6    6    0    0 -0.29458405018E+02 -0.37459250512E+02  0.67436902419E+02  0.82575594960E+02  0.00000000000E+00 0.  1.
          5    1    5    5  501    0 -0.16689818741E+02 -0.22164257496E+03  0.81204081419E+03  0.84192419789E+03  0.47000000000E+01 0. -1.
         11    1    4    4    0    0  0.51773066552E+02  0.12780629358E+03  0.21166809393E+03  0.25262280398E+03  0.00000000000E+00 0. -1.
        -12    1    4    4    0    0 -0.19667206827E+02  0.13328468078E+03  0.28378829713E+03  0.31414551206E+03  0.00000000000E+00 0.  1.
         -5    1    3    3    0  503 -0.33098987229E+02  0.58109205274E+02  0.30033433960E+03  0.30772557293E+03  0.47000000000E+01 0.  1.
</event>
<event>
12    1  0.9749377E-001  0.7865766E+03  0.7818608E-02  0.9579653E-01
         21   -1    0    0  503  502  0.00000000000E+00  0.00000000000E+00  0.74104221492E+03  0.74104221492E+03  0.00000000000E+00 0.  1.
         21   -1    0    0  501  503 -0.00000000000E+00 -0.00000000000E+00 -0.86284708170E+03  0.86284708170E+03  0.00000000000E+00 0. -1.
          6    2    1    2  501    0 -0.77176884820E+03 -0.10111955746E+03 -0.79868002936E+01  0.79821540395E+03  0.17672499023E+03 0.  0.
         24    2    3    3    0    0 -0.25019089220E+03  0.11143898000E+02 -0.25812241649E+02  0.26437415041E+03  0.80670630260E+02 0.  0.
         -6    2    1    2    0  502  0.77176884820E+03  0.10111955746E+03 -0.11381806649E+03  0.80567389267E+03  0.17407914614E+03 0.  0.
        -24    2    5    5    0    0  0.30859874552E+03  0.52999779829E+02 -0.10596669742E+03  0.33992096352E+03  0.79215895370E+02 0.  0.
         12    1    4    4    0    0 -0.10605672554E+03 -0.12205846286E+02  0.25228006170E+02  0.10969714678E+03  0.00000000000E+00 0. -1.
        -11    1    4    4    0    0 -0.14413416666E+03  0.23349744286E+02 -0.51040247819E+02  0.15467700363E+03  0.00000000000E+00 0.  1.
          5    1    3    3  501    0 -0.52157795600E+03 -0.11226345546E+03  0.17825441356E+02  0.53384125354E+03  0.47000000000E+01 0. -1.
         13    1    6    6    0    0  0.26284405130E+03  0.70550117006E+02 -0.10244005718E+03  0.29078906381E+03  0.00000000000E+00 0. -1.
        -14    1    6    6    0    0  0.45754694213E+02 -0.17550337176E+02 -0.35266402389E+01  0.49131899708E+02  0.00000000000E+00 0.  1.
         -5    1    5    5    0  502  0.46317010268E+03  0.48119777630E+02 -0.78513690621E+01  0.46575292915E+03  0.47000000000E+01 0.  1.
</event>
<event>
12    1  0.9749377E-001  0.4770453E+03  0.7818608E-02  0.1019950E+00
         21   -1    0    0  503  502  0.00000000000E+00  0.00000000000E+00  0.21642056203E+03  0.21642056203E+03  0.00000000000E+00 0. -1.
         21   -1    0    0  501  503 -0.00000000000E+00 -0.00000000000E+00 -0.11440119255E+04  0.11440119255E+04  0.00000000000E+00 0.  1.
          6    2    1    2  501    0  0.42035980088E+03  0.19650520038E+03 -0.53466403380E+03  0.72826472801E+03  0.17084270266E+03 0.  0.
         24    2    3    3    0    0  0.32013304796E+03  0.17207002274E+03 -0.32345996572E+03  0.49316532716E+03  0.80575612740E+02 0.  0.
         -6    2    1    2    0  502 -0.42035980088E+03 -0.19650520038E+03 -0.39292732967E+03  0.63216775952E+03  0.17299576237E+03 0.  0.
        -24    2    5    5    0    0 -0.10660198243E+03 -0.33659819971E+02 -0.14610429952E+03  0.20099924864E+03  0.80976944106E+02 0.  0.
         14    1    4    4    0    0  0.27565439552E+03  0.17629244740E+03 -0.27704012363E+03  0.42873721891E+03  0.00000000000E+00 0. -1.
        -13    1    4    4    0    0  0.44478652435E+02 -0.42224246593E+01 -0.46419842097E+02  0.64428108251E+02  0.00000000000E+00 0.  1.
          5    1    3    3  501    0  0.10022675292E+03  0.24435177647E+02 -0.21120406807E+03  0.23509940085E+03  0.47000000000E+01 0. -1.
         13    1    6    6    0    0 -0.11086827003E+03 -0.22056211688E+02 -0.15019157666E+03  0.18797808243E+03  0.00000000000E+00 0. -1.
        -14    1    6    6    0    0  0.42662876041E+01 -0.11603608283E+02  0.40872771376E+01  0.13021166211E+02  0.00000000000E+00 0.  1.
         -5    1    5    5    0  502 -0.31375781845E+03 -0.16284538041E+03 -0.24682303015E+03  0.43116851088E+03  0.47000000000E+01 0.  1.
</event>
<event>
12    1  0.9749377E-001  0.4984604E+03  0.7818608E-02  0.1014182E+00
         21   -1    0    0  503  502  0.00000000000E+00  0.00000000000E+00  0.36125804866E+03  0.36125804866E+03  0.00000000000E+00 0.  1.
         21   -1    0    0  501  503 -0.00000000000E+00 -0.00000000000E+00 -0.70486669151E+03  0.70486669151E+03  0.00000000000E+00 0. -1.
          6    2    1    2  501    0  0.35284515678E+03 -0.31693691951E+03 -0.18386330446E+03  0.53832810911E+03  0.17618945121E+03 0.  0.
         24    2    3    3    0    0  0.10649265370E+03 -0.67990420684E+02 -0.96484202824E+02  0.17732795335E+03  0.78566017141E+02 0.  0.
         -6    2    1    2    0  502 -0.35284515678E+03  0.31693691951E+03 -0.15974533839E+03  0.52779663107E+03  0.16763649668E+03 0.  0.
        -24    2    5    5    0    0 -0.32592542592E+03  0.22085513630E+03 -0.14202596724E+03  0.42634493277E+03  0.81204998830E+02 0.  0.
         12    1    4    4    0    0  0.97692841103E+02 -0.82907353592E+02 -0.95818676977E+02  0.15999606039E+03  0.00000000000E+00 0. -1.
        -11    1    4    4    0    0  0.87998125981E+01  0.14916932908E+02 -0.66552584712E+00  0.17331892966E+02  0.00000000000E+00 0.  1.
          5    1    3    3  501    0  0.24635250308E+03 -0.24894649883E+03 -0.87379101634E+02  0.36100015575E+03  0.47000000000E+01 0. -1.
         11    1    6    6    0    0 -0.14027530285E+03  0.49741379420E+02 -0.64713843011E+02  0.16229370565E+03  0.00000000000E+00 0. -1.
        -12    1    6    6    0    0 -0.18565012307E+03  0.17111375688E+03 -0.77312124233E+02  0.26405122712E+03  0.00000000000E+00 0.  1.
         -5    1    5    5    0  502 -0.26919730860E+02  0.96081783208E+02 -0.17719371147E+02  0.10145169830E+03  0.47000000000E+01 0.  1.
</event>
<event>
12    1  0.9749377E-001  0.2614532E+03  0.7818608E-02  0.1106273E+00
         21   -1    0    0  503  502  0.00000000000E+00  0.00000000000E+00  0.97522479397E+02  0.97522479397E+02  0.00000000000E+00 0.  1.
         21   -1    0    0  501  503 -0.00000000000E+00 -0.00000000000E+00 -0.11935416116E+04  0.11935416116E+04  0.00000000000E+00 0. -1.
          6    2    1    2  501    0  0.38512525048E+02 -0.22922695143E+03 -0.20826510514E+03  0.35740748415E+03  0.17417676611E+03 0.  0.
         24    2    3    3    0    0  0.65426312924E+02 -0.65258035220E+02 -0.64713831609E+02  0.13777320723E+03  0.79084531014E+02 0.  0.
         -6    2    1    2    0  502 -0.38512525048E+02  0.22922695143E+03 -0.88775402706E+03  0.93365660685E+03  0.17198615382E+03 0.  0.
        -24    2    5    5    0    0 -0.23747042895E+02  0.33589798051E+02 -0.35047864706E+03  0.36166111805E+03  0.79191449596E+02 0.  0.
         12    1    4    4    0    0  0.79597659275E+01 -0.20375949921E+02  0.17404245549E+02  0.27954337266E+02  0.00000000000E+00 0. -1.
        -11    1    4    4    0    0  0.57466546997E+02 -0.44882085299E+02 -0.82118077158E+02  0.10981886997E+03  0.00000000000E+00 0.  1.
          5    1    3    3  501    0 -0.26913787876E+02 -0.16396891621E+03 -0.14355127353E+03  0.21963427691E+03  0.47000000000E+01 0. -1.
         13    1    6    6    0    0 -0.34202941722E+02  0.42232261497E+01 -0.30242464604E+03  0.30438190385E+03  0.00000000000E+00 0. -1.
        -14    1    6    6    0    0  0.10455898828E+02  0.29366571902E+02 -0.48054001020E+02  0.57279214202E+02  0.00000000000E+00 0.  1.
         -5    1    5    5    0  502 -0.14765482154E+02  0.19563715338E+03 -0.53727538000E+03  0.57199548879E+03  0.47000000000E+01 0.  1.
</event>
<event>
12    1  0.9749377E-001  0.3865082E+03  0.7818608E-02  0.1048554E+00
         21   -1    0    0  501  502  0.00000000000E+00  0.00000000000E+00  0.22992399505E+03  0.22992399505E+03  0.00000000000E+00 0.  1.
         21   -1    0    0  502  503 -0.00000000000E+00 -0.00000000000E+00 -0.90736095013E+03  0.90736095013E+03  0.00000000000E+00 0. -1.
         -6    2    1    2    0  503 -0.17349850904E+03 -0.30259184433E+03 -0.63700158062E+03  0.74659460215E+03  0.17311536429E+03 0.  0.
        -24    2    3    3    0    0 -0.19929562420E+03 -0.28374596602E+03 -0.56668419507E+03  0.66921706671E+03  0.80560451693E+02 0.  0.
          6    2    1    2  501    0  0.17349850904E+03  0.30259184433E+03 -0.40435374458E+02  0.39069034303E+03  0.17129030251E+03 0.  0.
         24    2    5    5    0    0  0.12478503521E+02  0.12721274110E+03 -0.95946020855E+01  0.15056846717E+03  0.78993748911E+02 0.  0.
         12    1    6    6    0    0 -0.16787257467E+02 -0.43920627125E+00 -0.10114321240E+02  0.19603683571E+02  0.00000000000E+00 0. -1.
        -11    1    6    6    0    0  0.29265760987E+02  0.12765194737E+03  0.51971915420E+00  0.13096478360E+03  0.00000000000E+00 0.  1.
          5    1    5    5  501    0  0.16102000552E+03  0.17537910323E+03 -0.30840772372E+02  0.24012187586E+03  0.47000000000E+01 0. -1.
         13    1    4    4    0    0 -0.10901787667E+03 -0.91046039411E+02 -0.20093859634E+03  0.24607031155E+03  0.00000000000E+00 0. -1.
        -14    1    4    4    0    0 -0.90277747529E+02 -0.19269992661E+03 -0.36574559873E+03  0.42314675516E+03  0.00000000000E+00 0.  1.
         -5    1    3    3    0  503  0.25797115162E+02 -0.18845878310E+02 -0.70317385554E+02  0.77377535442E+02  0.47000000000E+01 0.  1.
</event>
<event>
12    1  0.9749377E-001  0.5828479E+03  0.7818608E-02  0.9941644E-01
         21   -1    0    0  501  502  0.00000000000E+00  0.00000000000E+00  0.17983402691E+03  0.17983402691E+03  0.00000000000E+00 0.  1.
         21   -1    0    0  502  503 -0.00000000000E+00 -0.00000000000E+00 -0.23685222637E+04  0.23685222637E+04  0.00000000000E+00 0. -1.
         -6    2    1    2    0  503 -0.54773818056E+03 -0.16639470507E+03 -0.16066395143E+04  0.17140640000E+04  0.17035420320E+03 0.  0.
        -24    2    3    3    0    0 -0.45825227088E+03 -0.18083666918E+03 -0.12505906925E+04  0.13466280846E+04  0.82055306657E+02 0.  0.
          6    2    1    2  501    0  0.54773818056E+03  0.16639470507E+03 -0.58204872246E+03  0.83429229068E+03  0.17192614298E+03 0.  0.
         24    2    5    5    0    0  0.52229641859E+03  0.17362347635E+03 -0.58683112515E+03  0.80700676774E+03  0.62852949959E+02 0.  0.
         12    1    6    6    0    0  0.18801918356E+03  0.83921506171E+02 -0.18649420907E+03  0.27780230848E+03  0.00000000000E+00 0. -1.
        -11    1    6    6    0    0  0.33427723503E+03  0.89701970179E+02 -0.40033691609E+03  0.52920445925E+03  0.00000000000E+00 0.  1.
          5    1    5    5  501    0  0.25441761977E+02 -0.72287712759E+01  0.47824026900E+01  0.27285522940E+02  0.47000000000E+01 0. -1.
         13    1    4    4    0    0 -0.58290712425E+02 -0.30515013277E+01 -0.20432579175E+03  0.21249975997E+03  0.00000000000E+00 0. -1.
        -14    1    4    4    0    0 -0.39996155846E+03 -0.17778516785E+03 -0.10462649007E+04  0.11341283246E+04  0.00000000000E+00 0.  1.
         -5    1    3    3    0  503 -0.89485909683E+02  0.14441964103E+02 -0.35604882187E+03  0.36743591539E+03  0.47000000000E+01 0.  1.
</event>
<event>
12    1  0.9749377E-001  0.4966108E+03  0.7818608E-02  0.1014667E+00
         21   -1    0    0  503  502  0.00000000000E+00  0.00000000000E+00  0.42943217113E+03  0.42943217113E+03  0.00000000000E+00 0. -1.
         21   -1    0    0  501  503 -0.00000000000E+00 -0.00000000000E+00 -0.64820908348E+03  0.64820908348E+03  0.00000000000E+00 0.  1.
          6    2    1    2  501    0 -0.43720741579E+03  0.22106794006E+03 -0.15759556954E+02  0.51984858132E+03  0.17312661645E+03 0.  0.
         24    2    3    3    0    0 -0.20540821466E+03  0.14999149786E+03  0.43569461998E+02  0.27019932181E+03  0.80121104661E+02 0.  0.
         -6    2    1    2    0  502  0.43720741579E+03 -0.22106794006E+03 -0.20301735539E+03  0.55779267329E+03  0.17290246165E+03 0.  0.
        -24    2    5    5    0    0  0.26624062283E+03 -0.95988644326E+02 -0.54472965427E+02  0.29902250440E+03  0.79682275917E+02 0.  0.
         12    1    4    4    0    0 -0.13126410742E+03  0.10842085116E+03  0.65495283994E+02  0.18241430615E+03  0.00000000000E+00 0. -1.
        -11    1    4    4    0    0 -0.74144107240E+02  0.41570646700E+02 -0.21925821996E+02  0.87785015667E+02  0.00000000000E+00 0.  1.
          5    1    3    3  501    0 -0.23179920113E+03  0.71076442201E+02 -0.59329018952E+02  0.24964925951E+03  0.47000000000E+01 0. -1.
         11    1    6    6    0    0  0.25340484896E+03 -0.87043319762E+02 -0.70051745617E+02  0.27694368391E+03  0.00000000000E+00 0. -1.
        -12    1    6    6    0    0  0.12835773862E+02 -0.89453245638E+01  0.15578780190E+02  0.22078820494E+02  0.00000000000E+00 0.  1.
         -5    1    5    5    0  502  0.17096679296E+03 -0.12507929573E+03 -0.14854438996E+03  0.25877016889E+03  0.47000000000E+01 0.  1.
</event>
<event>
12    1  0.9749377E-001  0.7416953E+03  0.7818608E-02  0.9648470E-01
         21   -1    0    0  503  502  0.00000000000E+00  0.00000000000E+00  0.37183592742E+03  0.37183592742E+03  0.00000000000E+00 0.  1.
         21   -1    0    0  501  503 -0.00000000000E+00 -0.00000000000E+00 -0.32994609361E+04  0.32994609361E+04  0.00000000000E+00 0. -1.
          6    2    1    2  501    0  0.41538799815E+02 -0.72575599221E+03 -0.28194174993E+04  0.29166313624E+04  0.17081052772E+03 0.  0.
         24    2    3    3    0    0  0.80030084245E+02 -0.60580598661E+03 -0.24570221732E+04  0.25329361120E+04  0.73496120332E+02 0.  0.
         -6    2    1    2    0  502 -0.41538799815E+02  0.72575599221E+03 -0.10820750936E+03  0.75466550114E+03  0.17135904238E+03 0.  0.
        -24    2    5    5    0    0  0.24845980282E+02  0.48336575622E+03 -0.72063070750E+02  0.50071968806E+03  0.10614774059E+03 0.  0.
         12    1    4    4    0    0  0.81589635905E+02 -0.41094721445E+03 -0.17606875796E+04  0.18098495061E+04  0.00000000000E+00 0. -1.
        -11    1    4    4    0    0 -0.15595516598E+01 -0.19485877216E+03 -0.69633459362E+03  0.72308660585E+03  0.00000000000E+00 0.  1.
          5    1    3    3  501    0 -0.38491284430E+02 -0.11995000560E+03 -0.36239532610E+03  0.38369525042E+03  0.47000000000E+01 0. -1.
         11    1    6    6    0    0  0.49021697541E+02  0.14818400654E+03 -0.50201960131E+02  0.16395689502E+03  0.00000000000E+00 0. -1.
        -12    1    6    6    0    0 -0.24175717258E+02  0.33518174968E+03 -0.21861110620E+02  0.33676279305E+03  0.00000000000E+00 0.  1.
         -5    1    5    5    0  502 -0.66384780097E+02  0.24239023600E+03 -0.36144438607E+02  0.25394581308E+03  0.47000000000E+01 0.  1.
</event>
<event>
12    1  0.9749377E-001  0.7978043E+03  0.7818608E-02  0.9563201E-01
         21   -1    0    0  501  502  0.00000000000E+00  0.00000000000E+00  0.22926043219E+04  0.22926043219E+04  0.00000000000E+00 0.  1.
         21   -1    0    0  502  503 -0.00000000000E+00 -0.00000000000E+00 -0.29445639741E+03  0.29445639741E+03  0.00000000000E+00 0. -1.
         -6    2    1    2    0  503 -0.46523518129E+03  0.64463034844E+03  0.81157259828E+03  0.11488794211E+04  0.17111920397E+03 0.  0.
        -24    2    3    3    0    0 -0.24165288296E+03  0.36910660990E+03  0.54084104987E+03  0.70253870381E+03  0.80098588121E+02 0.  0.
          6    2    1    2  501    0  0.46523518129E+03 -0.64463034844E+03  0.11865753262E+04  0.14381812982E+04  0.16855972720E+03 0.  0.
         24    2    5    5    0    0  0.16392290200E+03 -0.19923159322E+03  0.30018113739E+03  0.40141426130E+03  0.66788834322E+02 0.  0.
         14    1    6    6    0    0  0.71828049831E+02 -0.54340826166E+02  0.69017084951E+02  0.11347049020E+03  0.00000000000E+00 0. -1.
        -13    1    6    6    0    0  0.92094852171E+02 -0.14489076706E+03  0.23116405244E+03  0.28794377110E+03  0.00000000000E+00 0.  1.
          5    1    5    5  501    0  0.30131227929E+03 -0.44539875521E+03  0.88639418881E+03  0.10367670369E+04  0.47000000000E+01 0. -1.
         13    1    4    4    0    0 -0.16050706816E+03  0.25136339443E+03  0.30392573449E+03  0.42581325375E+03  0.00000000000E+00 0. -1.
        -14    1    4    4    0    0 -0.81145814799E+02  0.11774321547E+03  0.23691531538E+03  0.27672545006E+03  0.00000000000E+00 0.  1.
         -5    1    3    3    0  503 -0.22358229833E+03  0.27552373854E+03  0.27073154841E+03  0.44634071731E+03  0.47000000000E+01 0.  1.
</event>
<event>
12    1  0.9749377E-001  0.3522532E+03  0.7818608E-02  0.1061694E+00
         21   -1    0    0  501  502  0.00000000000E+00  0.00000000000E+00  0.25590111795E+04  0.25590111795E+04  0.00000000000E+00 0.  1.
         21   -1    0    0  502  503 -0.00000000000E+00 -0.00000000000E+00 -0.64511927666E+02  0.64511927666E+02  0.00000000000E+00 0. -1.
         -6    2    1    2    0  503  0.32948369113E+03 -0.88908800730E+02  0.80284800662E+03  0.88930250193E+03  0.17271288496E+03 0.  0.
        -24    2    3    3    0    0  0.16968887614E+03 -0.19561636686E+02  0.55521409943E+03  0.58650214847E+03  0.80901802491E+02 0.  0.
          6    2    1    2  501    0 -0.32948369113E+03  0.88908800730E+02  0.16916512452E+04  0.17342206052E+04  0.17138522292E+03 0.  0.
         24    2    5    5    0    0 -0.21705860084E+03  0.82866330923E+02  0.14056643809E+04  0.14268340588E+04  0.77342191800E+02 0.  0.
         14    1    6    6    0    0 -0.21877810282E+03  0.90228824744E+02  0.13770752811E+04  0.13972621189E+04  0.00000000000E+00 0. -1.
        -13    1    6    6    0    0  0.17195019883E+01 -0.73624938210E+01  0.28589099758E+02  0.29571939864E+02  0.00000000000E+00 0.  1.
          5    1    5    5  501    0 -0.11242509030E+03  0.60424698074E+01  0.28598686429E+03  0.30738654641E+03  0.47000000000E+01 0. -1.
         13    1    4    4    0    0  0.28821331942E+02  0.77799763355E+01  0.31141576341E+02  0.43139251080E+02  0.00000000000E+00 0. -1.
        -14    1    4    4    0    0  0.14086754419E+03 -0.27341613022E+02  0.52407252308E+03  0.54336289739E+03  0.00000000000E+00 0.  1.
         -5    1    3    3    0  503  0.15979481500E+03 -0.69347164044E+02  0.24763390719E+03  0.30280035346E+03  0.47000000000E+01 0.  1.
</event>
<event>
12    1  0.9749377E-001  0.1207094E+04  0.7818608E-02  0.9106670E-01
         21   -1    0    0  503  502  0.00000000000E+00  0.00000000000E+00  0.15687933291E+04  0.15687933291E+04  0.00000000000E+00 0.  1.
         21   -1    0    0  501  503 -0.00000000000E+00 -0.00000000000E+00 -0.12158266696E+04  0.12158266696E+04  0.00000000000E+00 0. -1.
          6    2    1    2  501    0  0.96629247358E+03 -0.71194456103E+03  0.84242316198E+03  0.14764551376E+04  0.17221146065E+03 0.  0.
         24    2    3    3    0    0  0.21906767602E+03 -0.15601493450E+03  0.18898195408E+03  0.33873366474E+03  0.81823041962E+02 0.  0.
         -6    2    1    2    0  502 -0.96629247358E+03  0.71194456103E+03 -0.48945650245E+03  0.13081648610E+04  0.17646935518E+03 0.  0.
        -24    2    5    5    0    0 -0.71997851409E+03  0.49840096342E+03 -0.42174958150E+03  0.97518175053E+03  0.79587410975E+02 0.  0.
         14    1    4    4    0    0  0.11176076810E+03 -0.30473380163E+02  0.73000065035E+02  0.13692372212E+03  0.00000000000E+00 0. -1.
        -13    1    4    4    0    0  0.10730690792E+03 -0.12554155434E+03  0.11598188904E+03  0.20180994262E+03  0.00000000000E+00 0.  1.
          5    1    3    3  501    0  0.74722479756E+03 -0.55592962653E+03  0.65344120791E+03  0.11377214729E+04  0.47000000000E+01 0. -1.
         13    1    6    6    0    0 -0.36512181512E+03  0.24270966445E+03 -0.16795204864E+03  0.46949953327E+03  0.00000000000E+00 0. -1.
        -14    1    6    6    0    0 -0.35485669897E+03  0.25569129896E+03 -0.25379753287E+03  0.50568221726E+03  0.00000000000E+00 0.  1.
         -5    1    5    5    0  502 -0.24631395949E+03  0.21354359761E+03 -0.67706920949E+02  0.33298311048E+03  0.47000000000E+01 0.  1.
</event>
<event>
12    1  0.9749377E-001  0.3420546E+03  0.7818608E-02  0.1065924E+00
         21   -1    0    0  501  502  0.00000000000E+00  0.00000000000E+00  0.77498269235E+03  0.77498269235E+03  0.00000000000E+00 0.  1.
         21   -1    0    0  502  503 -0.00000000000E+00 -0.00000000000E+00 -0.17126255870E+03  0.17126255870E+03  0.00000000000E+00 0. -1.
         -6    2    1    2    0  503  0.27219986042E+03 -0.16608032119E+03  0.29682335454E+03  0.46799910225E+03  0.17100765717E+03 0.  0.
        -24    2    3    3    0    0  0.19852900372E+03 -0.79373639398E+02  0.12152672489E+03  0.25896216255E+03  0.81109289353E+02 0.  0.
          6    2    1    2  501    0 -0.27219986042E+03  0.16608032119E+03  0.30689677910E+03  0.47824614880E+03  0.18126860930E+03 0.  0.
         24    2    5    5    0    0 -0.16963019244E+03  0.17170887522E+03  0.26253242980E+03  0.36625283248E+03  0.83423741139E+02 0.  0.
         14    1    6    6    0    0 -0.24413950689E+02  0.60637950739E+02  0.34289079779E+02  0.73815601672E+02  0.00000000000E+00 0. -1.
        -13    1    6    6    0    0 -0.14521624175E+03  0.11107092448E+03  0.22824335002E+03  0.29243723081E+03  0.00000000000E+00 0.  1.
          5    1    5    5  501    0 -0.10256966798E+03 -0.56285540349E+01  0.44364349302E+02  0.11199331632E+03  0.47000000000E+01 0. -1.
         11    1    4    4    0    0  0.65493134375E+01 -0.15594537976E+02  0.35127747038E+02  0.38987712592E+02  0.00000000000E+00 0. -1.
        -12    1    4    4    0    0  0.19197969028E+03 -0.63779101422E+02  0.86398977850E+02  0.21997444995E+03  0.00000000000E+00 0.  1.
         -5    1    3    3    0  503  0.73670856700E+02 -0.86706681789E+02  0.17529662965E+03  0.20903693971E+03  0.47000000000E+01 0.  1.
</event>
<event>
12    1  0.9749377E-001  0.5892113E+03  0.7818608E-02  0.9928045E-01
         21   -1    0    0  501  502  0.00000000000E+00  0.00000000000E+00  0.13648582924E+04  0.13648582924E+04  0.00000000000E+00 0.  1.
         21   -1    0    0  502  503 -0.00000000000E+00 -0.00000000000E+00 -0.30427311650E+03  0.30427311650E+03  0.00000000000E+00 0. -1.
         -6    2    1    2    0  503 -0.53106135131E+03  0.21334361073E+03  0.22007261313E+03  0.63788673268E+03  0.17585753776E+03 0.  0.
        -24    2    3    3    0    0 -0.44464362421E+03  0.22230591805E+03  0.14783410123E+03  0.52479898307E+03  0.80194622016E+02 0.  0.
          6    2    1    2  501    0  0.53106135131E+03 -0.21334361073E+03  0.84051256273E+03  0.10312446762E+04  0.17164661066E+03 0.  0.
         24    2    5    5    0    0  0.35546666135E+03 -0.20339047226E+03  0.64440802989E+03  0.76778379122E+03  0.80659838397E+02 0.  0.
         12    1    6    6    0    0  0.27810280216E+03 -0.11921849948E+03  0.48419710371E+03  0.57096502031E+03  0.00000000000E+00 0. -1.
        -11    1    6    6    0    0  0.77363859196E+02 -0.84171972775E+02  0.16021092619E+03  0.19681877091E+03  0.00000000000E+00 0.  1.
          5    1    5    5  501    0  0.17559468996E+03 -0.99531384787E+01  0.19610453283E+03  0.26346088496E+03  0.47000000000E+01 0. -1.
         13    1    4    4    0    0 -0.39348724597E+03  0.18248403962E+03  0.10249234349E+03  0.44568746665E+03  0.00000000000E+00 0. -1.
        -14    1    4    4    0    0 -0.51156378240E+02  0.39821878423E+02  0.45341757732E+02  0.79111516418E+02  0.00000000000E+00 0.  1.
         -5    1    3    3    0  503 -0.86417727102E+02 -0.89623073128E+01  0.72238511906E+02  0.11308774961E+03  0.47000000000E+01 0.  1.
</event>
<event>
12    1  0.9749377E-001  0.2837766E+03  0.7818608E-02  0.1093644E+00
         21   -1    0    0  503  502  0.00000000000E+00  0.00000000000E+00  0.26485229209E+03  0.26485229209E+03  0.00000000000E+00 0. -1.
         21   -1    0    0  501  503 -0.00000000000E+00 -0.00000000000E+00 -0.39804929800E+03  0.39804929800E+03  0.00000000000E+00 0.  1.
          6    2    1    2  501    0  0.20658701301E+01  0.23920728876E+03 -0.20560380055E+03  0.35898243366E+03  0.17137989982E+03 0.  0.
         24    2    3    3    0    0  0.55363663429E+02  0.19120793496E+03 -0.11748974496E+03  0.24526889213E+03  0.82020605059E+02 0.  0.
         -6    2    1    2    0  502 -0.20658701301E+01 -0.23920728876E+03  0.72406794643E+02  0.30391915643E+03  0.17291534032E+03 0.  0.
        -24    2    5    5    0    0  0.55013123669E+02 -0.19411425197E+03  0.77987084892E+02  0.23081222694E+03  0.80532677219E+02 0.  0.
         12    1    4    4    0    0  0.52215723551E+02  0.84472131767E+02 -0.21333876162E+02  0.10157340746E+03  0.00000000000E+00 0. -1.
        -11    1    4    4    0    0  0.31479398784E+01  0.10673580320E+03 -0.96155868802E+02  0.14369548467E+03  0.00000000000E+00 0.  1.
          5    1    3    3  501    0 -0.53297793299E+02  0.47999353800E+02 -0.88114055589E+02  0.11371354153E+03  0.47000000000E+01 0. -1.
         11    1    6    6    0    0 -0.31312020736E+01 -0.13038226553E+03  0.38877702248E+02  0.13609120223E+03  0.00000000000E+00 0. -1.
        -12    1    6    6    0    0  0.58144325743E+02 -0.63731986442E+02  0.39109382644E+02  0.94721024713E+02  0.00000000000E+00 0.  1.
         -5    1    5    5    0  502 -0.57078993799E+02 -0.45093036791E+02 -0.55802902490E+01  0.73106929490E+02  0.47000000000E+01 0.  1.
</event>
<event>
12    1  0.9749377E-001  0.1527507E+03  0.7818608E-02  0.1197133E+00
         21   -1    0    0  503  502  0.00000000000E+00  0.00000000000E+00  0.27871944329E+03  0.27871944329E+03  0.00000000000E+00 0.  1.
         21   -1    0    0  501  503 -0.00000000000E+00 -0.00000000000E+00 -0.65911032164E+03  0.65911032164E+03  0.00000000000E+00 0.  1.
          6    2    1    2  501    0 -0.51035080597E+02  0.33801422230E+02  0.23425082633E+03  0.29679693703E+03  0.17166204180E+03 0.  0.
         24    2    3    3    0    0  0.31907229748E+02  0.14627836554E+02  0.16157199912E+03  0.18476410631E+03  0.82463441405E+02 0.  0.
         -6    2    1    2    0  502  0.51035080597E+02 -0.33801422230E+02 -0.61464170468E+03  0.64103282790E+03  0.17143962705E+03 0.  0.
        -24    2    5    5    0    0  0.11728441429E+02 -0.85101932490E+02 -0.39042439769E+03  0.40763992957E+03  0.79744633813E+02 0.  0.
         14    1    4    4    0    0  0.34487453786E+02  0.24567520175E+02  0.16759344047E+03  0.17285979522E+03  0.00000000000E+00 0. -1.
        -13    1    4    4    0    0 -0.25802240383E+01 -0.99396836210E+01 -0.60214413478E+01  0.11904311088E+02  0.00000000000E+00 0.  1.
          5    1    3    3  501    0 -0.82942310345E+02  0.19173585676E+02  0.72678827212E+02  0.11203283071E+03  0.47000000000E+01 0. -1.
         11    1    6    6    0    0 -0.13016346807E+02 -0.74971590729E+02 -0.17859506800E+03  0.19412975819E+03  0.00000000000E+00 0. -1.
        -12    1    6    6    0    0  0.24744788235E+02 -0.10130341760E+02 -0.21182932969E+03  0.21351017139E+03  0.00000000000E+00 0.  1.
         -5    1    5    5    0  502  0.39306639169E+02  0.51300510260E+02 -0.22421730699E+03  0.23339289833E+03  0.47000000000E+01 0.  1.
</event>
<event>
12    1  0.9749377E-001  0.5869772E+03  0.7818608E-02  0.9932799E-01
         21   -1    0    0  503  502  0.00000000000E+00  0.00000000000E+00  0.84813503910E+03  0.84813503910E+03  0.00000000000E+00 0. -1.
         21   -1    0    0  501  503 -0.00000000000E+00 -0.00000000000E+00 -0.73695357839E+03  0.73695357839E+03  0.00000000000E+00 0.  1.
          6    2    1    2  501    0 -0.46639451227E+03  0.34164551045E+03  0.56990148191E+03  0.83029727194E+03  0.17424225899E+03 0.  0.
         24    2    3    3    0    0 -0.42683632973E+03  0.27238719160E+03  0.54094619581E+03  0.74531454941E+03  0.80541643088E+02 0.  0.
         -6    2    1    2    0  502  0.46639451227E+03 -0.34164551045E+03 -0.45872002121E+03  0.75479134556E+03  0.15824165568E+03 0.  0.
        -24    2    5    5    0    0  0.25741009245E+03 -0.15164599379E+03 -0.29509677852E+03  0.42834233024E+03  0.84490118086E+02 0.  0.
         14    1    4    4    0    0 -0.36568192404E+03  0.19637506677E+03  0.44301075125E+03  0.60707904110E+03  0.00000000000E+00 0. -1.
        -13    1    4    4    0    0 -0.61154405696E+02  0.76012124826E+02  0.97935444556E+02  0.13823550831E+03  0.00000000000E+00 0.  1.
          5    1    3    3  501    0 -0.39558182534E+02  0.69258318848E+02  0.28955286105E+02  0.84982722529E+02  0.47000000000E+01 0. -1.
         13    1    6    6    0    0  0.89661719992E+02 -0.58645061912E+02 -0.53164891351E+02  0.11960339874E+03  0.00000000000E+00 0. -1.
        -14    1    6    6    0    0  0.16774837246E+03 -0.93000931881E+02 -0.24193188717E+03  0.30873893150E+03  0.00000000000E+00 0.  1.
         -5    1    5    5    0  502  0.20898441981E+03 -0.18999951665E+03 -0.16362324269E+03  0.32644901532E+03  0.47000000000E+01 0.  1.
</event>
<event>
12    1  0.9749377E-001  0.5691084E+03  0.7818608E-02  0.9971654E-01
         21   -1    0    0  503  502  0.00000000000E+00  0.00000000000E+00  0.68928389890E+03  0.68928389890E+03  0.00000000000E+00 0.  1.
         21   -1    0    0  501  503 -0.00000000000E+00 -0.00000000000E+00 -0.97488723965E+03  0.97488723965E+03  0.00000000000E+00 0. -1.
          6    2    1    2  501    0  0.45293349917E+03  0.31769042489E+03  0.44625259183E+03  0.73072781657E+03  0.16954588007E+03 0.  0.
         24    2    3    3    0    0  0.28901156293E+03  0.26707806988E+03  0.35926520617E+03  0.53831963866E+03  0.76538657450E+02 0.  0.
         -6    2    1    2    0  502 -0.45293349917E+03 -0.31769042489E+03 -0.73185593259E+03  0.93344332199E+03  0.17212602523E+03 0.  0.
        -24    2    5    5    0    0 -0.22008851006E+03 -0.23316419009E+03 -0.40950984175E+03  0.52688389754E+03  0.84284276128E+02 0.  0.
         14    1    4    4    0    0  0.16312053502E+03  0.16264609757E+03  0.15974703803E+03  0.28032334573E+03  0.00000000000E+00 0. -1.
        -13    1    4    4    0    0  0.12589102791E+03  0.10443197231E+03  0.19951816815E+03  0.25799629294E+03  0.00000000000E+00 0.  1.
          5    1    3    3  501    0  0.16392193624E+03  0.50612355007E+02  0.86987385657E+02  0.19240817790E+03  0.47000000000E+01 0. -1.
         11    1    6    6    0    0 -0.10049803131E+03 -0.14464430350E+03 -0.16915244529E+03  0.24420151224E+03  0.00000000000E+00 0. -1.
        -12    1    6    6    0    0 -0.11959047875E+03 -0.88519886589E+02 -0.24035739646E+03  0.28268238531E+03  0.00000000000E+00 0.  1.
         -5    1    5    5    0  502 -0.23284498911E+03 -0.84526234799E+02 -0.32234609084E+03  0.40655942444E+03  0.47000000000E+01 0.  1.
</event>
<event>
12    1  0.9749377E-001  0.6580861E+03  0.7818608E-02  0.9791723E-01
         21   -1    0    0  501  502  0.00000000000E+00  0.00000000000E+00  0.29833114778E+03  0.29833114778E+03  0.00000000000E+00 0.  1.
         21   -1    0    0  502  503 -0.00000000000E+00 -0.00000000000E+00 -0.15765586847E+04  0.15765586847E+04  0.00000000000E+00 0. -1.
         -6    2    1    2    0  503 -0.27267787056E+03 -0.58574638534E+03 -0.84705349583E+03  0.10792639665E+04  0.17279767205E+03 0.  0.
        -24    2    3    3    0    0 -0.10380427642E+03 -0.13970612447E+03 -0.21253138873E+03  0.28546890505E+03  0.77651629336E+02 0.  0.
          6    2    1    2  501    0  0.27267787056E+03  0.58574638534E+03 -0.43117404110E+03  0.79562586602E+03  0.17221328613E+03 0.  0.
         24    2    5    5    0    0  0.12533916701E+03  0.16640473651E+03 -0.12642571227E+03  0.25669196846E+03  0.80665127714E+02 0.  0.
         14    1    6    6    0    0  0.12915474752E+03  0.14324255866E+03 -0.88771716902E+02  0.21232003471E+03  0.00000000000E+00 0. -1.
        -13    1    6    6    0    0 -0.38155805105E+01  0.23162177854E+02 -0.37653995366E+02  0.44371933748E+02  0.00000000000E+00 0.  1.
          5    1    5    5  501    0  0.14733870355E+03  0.41934164883E+03 -0.30474832883E+03  0.53893389756E+03  0.47000000000E+01 0. -1.
         13    1    4    4    0    0 -0.59406949621E+02 -0.10978754257E+03 -0.96834360118E+02  0.15798539004E+03  0.00000000000E+00 0. -1.
        -14    1    4    4    0    0 -0.44397326800E+02 -0.29918581897E+02 -0.11569702861E+03  0.12748351501E+03  0.00000000000E+00 0.  1.
         -5    1    3    3    0  503 -0.16887359414E+03 -0.44604026087E+03 -0.63452210710E+03  0.79379506141E+03  0.47000000000E+01 0.  1.
</event>
<event>
12    1  0.9749377E-001  0.5151976E+03  0.7818608E-02  0.1009887E+00
         21   -1    0    0  503  502  0.00000000000E+00  0.00000000000E+00  0.41685739681E+03  0.41685739681E+03  0.00000000000E+00 0.  1.
         21   -1    0    0  501  503 -0.00000000000E+00 -0.00000000000E+00 -0.14288898158E+04  0.14288898158E+04  0.00000000000E+00 0. -1.
          6    2    1    2  501    0 -0.40162760683E+03  0.29950909483E+03  0.16163078867E+03  0.55822395488E+03  0.18568532388E+03 0.  0.
         24    2    3    3    0    0 -0.37063985111E+03  0.20669428829E+03  0.16186644147E+03  0.46025980405E+03  0.74444034696E+02 0.  0.
         -6    2    1    2    0  502  0.40162760683E+03 -0.29950909483E+03 -0.11736632077E+04  0.12875232577E+04  0.17093970197E+03 0.  0.
        -24    2    5    5    0    0  0.11739150060E+03 -0.69223675838E+02 -0.29716518630E+03  0.33773780314E+03  0.84776140587E+02 0.  0.
         12    1    4    4    0    0 -0.15151032836E+02 -0.56012340059E+01  0.11147177204E+02  0.19626186029E+02  0.00000000000E+00 0. -1.
        -11    1    4    4    0    0 -0.35548881827E+03  0.21229552230E+03  0.15071926426E+03  0.44063361802E+03  0.00000000000E+00 0.  1.
          5    1    3    3  501    0 -0.30987755720E+02  0.92814806535E+02 -0.23565280010E+00  0.97964150836E+02  0.47000000000E+01 0. -1.
         11    1    6    6    0    0  0.10501486303E+03 -0.60059256637E+02 -0.29869303336E+03  0.32226194926E+03  0.00000000000E+00 0. -1.
        -12    1    6    6    0    0  0.12376637570E+02 -0.91644192009E+01  0.15278470544E+01  0.15475853884E+02  0.00000000000E+00 0.  1.
         -5    1    5    5    0  502  0.28423610623E+03 -0.23028541899E+03 -0.87649802136E+03  0.94978545458E+03  0.47000000000E+01 0.  1.
</event>
<event>
12    1  0.9749377E-001  0.4652898E+03  0.7818608E-02  0.1023258E+00
         21   -1    0    0  501  502  0.00000000000E+00  0.00000000000E+00  0.17645646262E+04  0.17645646262E+04  0.00000000000E+00 0.  1.
         21   -1    0    0  502  503 -0.00000000000E+00 -0.00000000000E+00 -0.16103554123E+03  0.16103554123E+03  0.00000000000E+00 0. -1.
         -6    2    1    2    0  503 -0.10050121014E+03  0.43572745121E+03  0.12232777468E+04  0.13137981043E+04  0.17233139023E+03 0.  0.
        -24    2    3    3    0    0 -0.13585257504E+03  0.33680734254E+03  0.10064327953E+04  0.10728028141E+04  0.78126809591E+02 0.  0.
          6    2    1    2  501    0  0.10050121014E+03 -0.43572745121E+03  0.38025133822E+03  0.61180206318E+03  0.17248704104E+03 0.  0.
         24    2    5    5    0    0  0.22219229204E+02 -0.32056738774E+03  0.31773453540E+03  0.45909204586E+03  0.80951388857E+02 0.  0.
         14    1    6    6    0    0  0.27911036530E+02 -0.18459538553E+03  0.23382029216E+03  0.29920964447E+03  0.00000000000E+00 0. -1.
        -13    1    6    6    0    0 -0.56918073258E+01 -0.13597200221E+03  0.83914243242E+02  0.15988240139E+03  0.00000000000E+00 0.  1.
          5    1    5    5  501    0  0.78281980934E+02 -0.11516006347E+03  0.62516802821E+02  0.15271001733E+03  0.47000000000E+01 0. -1.
         11    1    4    4    0    0 -0.82714126428E+02  0.19163679207E+03  0.46427753056E+03  0.50903822270E+03  0.00000000000E+00 0. -1.
        -12    1    4    4    0    0 -0.53138448609E+02  0.14517055047E+03  0.54215526476E+03  0.56376459143E+03  0.00000000000E+00 0.  1.
         -5    1    3    3    0  503  0.35351364899E+02  0.98920108663E+02  0.21684495144E+03  0.24099529012E+03  0.47000000000E+01 0.  1.
</event>
<event>
12    1  0.9749377E-001  0.5902973E+03  0.7818608E-02  0.9925743E-01
         21   -1    0    0  501  502  0.00000000000E+00  0.00000000000E+00  0.10352220322E+04  0.10352220322E+04  0.00000000000E+00 0.  1.
         21   -1    0    0  502  503 -0.00000000000E+00 -0.00000000000E+00 -0.36261418500E+03  0.36261418500E+03  0.00000000000E+00 0. -1.
         -6    2    1    2    0  503 -0.51945869130E+03 -0.25935373618E+03  0.44278194562E+03  0.75012525072E+03  0.17184396402E+03 0.  0.
        -24    2    3    3    0    0 -0.41302593001E+03 -0.25025338246E+03  0.31106644995E+03  0.58047322182E+03  0.83484433695E+02 0.  0.
          6    2    1    2  501    0  0.51945869130E+03  0.25935373618E+03  0.22982590161E+03  0.64771096651E+03  0.17206934255E+03 0.  0.
         24    2    5    5    0    0  0.42006115607E+03  0.16513507497E+03  0.12365330192E+03  0.47435659808E+03  0.77479514969E+02 0.  0.
         14    1    6    6    0    0  0.26114261681E+03  0.11675169745E+03  0.41553114481E+02  0.28905550764E+03  0.00000000000E+00 0. -1.
        -13    1    6    6    0    0  0.15891853926E+03  0.48383377515E+02  0.82100187441E+02  0.18530109044E+03  0.00000000000E+00 0.  1.
          5    1    5    5  501    0  0.99397535233E+02  0.94218661212E+02  0.10617259968E+03  0.17335436843E+03  0.47000000000E+01 0. -1.
         11    1    4    4    0    0 -0.14858534824E+03 -0.68732603552E+02  0.64719050678E+02  0.17604071127E+03  0.00000000000E+00 0. -1.
        -12    1    4    4    0    0 -0.26444058177E+03 -0.18152077890E+03  0.24634739928E+03  0.40443251055E+03  0.00000000000E+00 0.  1.
         -5    1    3    3    0  503 -0.10643276129E+03 -0.91003537248E+01  0.13171549566E+03  0.16965202891E+03  0.47000000000E+01 0.  1.
</event>
<event>
12    1  0.9749377E-001  0.3001153E+03  0.7818608E-02  0.1085183E+00
         21   -1    0    0  503  502  0.00000000000E+00  0.00000000000E+00  0.72580787469E+03  0.72580787469E+03  0.00000000000E+00 0. -1.
         21   -1    0    0  501  503 -0.00000000000E+00 -0.00000000000E+00 -0.15563118014E+03  0.15563118014E+03  0.00000000000E+00 0.  1.
          6    2    1    2  501    0 -0.17553467616E+03 -0.22364190491E+03  0.21085432291E+03  0.39198936254E+03  0.16842799853E+03 0.  0.
         24    2    3    3    0    0 -0.18759642019E+03 -0.18197576789E+03  0.13402146230E+03  0.30363252289E+03  0.76963365541E+02 0.  0.
         -6    2    1    2    0  502  0.17553467616E+03  0.22364190491E+03  0.35932237164E+03  0.48944969230E+03  0.17210552102E+03 0.  0.
        -24    2    5    5    0    0  0.14278575242E+03  0.19488020152E+03  0.36576398509E+03  0.44514041594E+03  0.77463753289E+02 0.  0.
         14    1    4    4    0    0 -0.75605346172E+02 -0.64904119507E+02  0.93473983563E+02  0.13662393166E+03  0.00000000000E+00 0. -1.
        -13    1    4    4    0    0 -0.11199107401E+03 -0.11707164838E+03  0.40547478735E+02  0.16700859123E+03  0.00000000000E+00 0.  1.
          5    1    3    3  501    0  0.12061744023E+02 -0.41666137014E+02  0.76832860615E+02  0.88356839649E+02  0.47000000000E+01 0. -1.
         13    1    6    6    0    0  0.47829849467E+02  0.12312259089E+03  0.22394022286E+03  0.25999248124E+03  0.00000000000E+00 0. -1.
        -14    1    6    6    0    0  0.94955902956E+02  0.71757610631E+02  0.14182376223E+03  0.18514793470E+03  0.00000000000E+00 0.  1.
         -5    1    5    5    0  502  0.32748923741E+02  0.28761703385E+02 -0.64416134485E+01  0.44309276361E+02  0.47000000000E+01 0.  1.
</event>
<event>
12    1  0.9749377E-001  0.3706839E+03  0.7818608E-02  0.1054432E+00
         21   -1    0    0  501  502  0.00000000000E+00  0.00000000000E+00  0.66255646331E+03  0.66255646331E+03  0.00000000000E+00 0. -1.
         21   -1    0    0  502  503 -0.00000000000E+00 -0.00000000000E+00 -0.22444907095E+03  0.22444907095E+03  0.00000000000E+00 0.  1.
         -6    2    1    2    0  503  0.34455858451E+03  0.76208940537E+01  0.23980918192E+03  0.45377826594E+03  0.17212662410E+03 0.  0.
        -24    2    3    3    0    0  0.72442569263E+02  0.23717391799E+02  0.43401929697E+02  0.11776618027E+03  0.78579292428E+02 0.  0.
          6    2    1    2  501    0 -0.34455858451E+03 -0.76208940537E+01  0.19829821044E+03  0.43322726832E+03  0.17200287664E+03 0.  0.
         24    2    5    5    0    0 -0.12992898953E+03  0.39804984362E+02  0.12889035841E+03  0.20267441775E+03  0.77448150522E+02 0.  0.
         14    1    6    6    0    0 -0.62080421283E+02  0.36932962326E+02  0.11102241964E+03  0.13245376581E+03  0.00000000000E+00 0. -1.
        -13    1    6    6    0    0 -0.67848568242E+02  0.28720220355E+01  0.17867938763E+02  0.70220651939E+02  0.00000000000E+00 0.  1.
          5    1    5    5  501    0 -0.21462959498E+03 -0.47425878415E+02  0.69407852034E+02  0.23055285058E+03  0.47000000000E+01 0. -1.
         11    1    4    4    0    0  0.83461172821E+02  0.98031811149E+00  0.38961951699E+02  0.92112768238E+02  0.00000000000E+00 0. -1.
        -12    1    4    4    0    0 -0.11018603557E+02  0.22737073687E+02  0.44399779979E+01  0.25653412031E+02  0.00000000000E+00 0.  1.
         -5    1    3    3    0  503  0.27211601524E+03 -0.16096497745E+02  0.19640725223E+03  0.33601208567E+03  0.47000000000E+01 0.  1.
</event>
<event>
12    1  0.9749377E-001  0.1744859E+03  0.7818608E-02  0.1173249E+00
         21   -1    0    0  501  502  0.00000000000E+00  0.00000000000E+00  0.49959670640E+03  0.49959670640E+03  0.00000000000E+00 0.  1.
         21   -1    0    0  502  503 -0.00000000000E+00 -0.00000000000E+00 -0.86271372199E+02  0.86271372199E+02  0.00000000000E+00 0.  1.
         -6    2    1    2    0  503  0.60482155436E+02 -0.91421430073E+02  0.25728765597E+03  0.32795943224E+03  0.17130231254E+03 0.  0.
        -24    2    3    3    0    0  0.22333918267E+02 -0.41138287643E+02  0.38698069579E+02  0.10039146506E+03  0.79935868367E+02 0.  0.
          6    2    1    2  501    0 -0.60482155436E+02  0.91421430073E+02  0.15603767824E+03  0.25790864636E+03  0.17364660617E+03 0.  0.
         24    2    5    5    0    0  0.18815703244E+02  0.93157589171E+02  0.78442081587E+02  0.14684861188E+03  0.79868564142E+02 0.  0.
         12    1    6    6    0    0 -0.69333365663E+01  0.95849239787E+02  0.72247959542E+02  0.12022859719E+03  0.00000000000E+00 0. -1.
        -11    1    6    6    0    0  0.25749039810E+02 -0.26916506165E+01  0.61941220453E+01  0.26620014690E+02  0.00000000000E+00 0.  1.
          5    1    5    5  501    0 -0.79297858680E+02 -0.17361590980E+01  0.77595596652E+02  0.11106003448E+03  0.47000000000E+01 0. -1.
         11    1    4    4    0    0  0.34114917667E+02 -0.55815149946E+02  0.10150096297E+02  0.66198059078E+02  0.00000000000E+00 0. -1.
        -12    1    4    4    0    0 -0.11780999400E+02  0.14676862302E+02  0.28547973282E+02  0.34193405979E+02  0.00000000000E+00 0.  1.
         -5    1    3    3    0  503  0.38148237169E+02 -0.50283142429E+02  0.21858958639E+03  0.22756796718E+03  0.47000000000E+01 0.  1.
</event>
<event>
12    1  0.9749377E-001  0.4259764E+03  0.7818608E-02  0.1035139E+00
         21   -1    0    0  503  502  0.00000000000E+00  0.00000000000E+00  0.63285719179E+03  0.63285719179E+03  0.00000000000E+00 0.  1.
         21   -1    0    0  501  503 -0.00000000000E+00 -0.00000000000E+00 -0.36253053315E+03  0.36253053315E+03  0.00000000000E+00 0. -1.
          6    2    1    2  501    0 -0.39840358293E+03 -0.24379754895E+02  0.34385806863E+03  0.55470824981E+03  0.17361763647E+03 0.  0.
         24    2    3    3    0    0 -0.27903496469E+03 -0.83109541694E+02  0.25390193323E+03  0.39404633404E+03  0.77708521004E+02 0.  0.
         -6    2    1    2    0  502  0.39840358293E+03  0.24379754895E+02 -0.73531409995E+02  0.44067947514E+03  0.17167336488E+03 0.  0.
        -24    2    5    5    0    0  0.40045196195E+03  0.12135881888E+02 -0.91244996031E+02  0.41854422242E+03  0.79652767398E+02 0.  0.
         12    1    4    4    0    0 -0.27612215687E+03 -0.67666962149E+02  0.23120304437E+03  0.36643841366E+03  0.00000000000E+00 0. -1.
        -11    1    4    4    0    0 -0.29128078185E+01 -0.15442579545E+02  0.22698888858E+02  0.27607920381E+02  0.00000000000E+00 0.  1.
          5    1    3    3  501    0 -0.11936861824E+03  0.58729786799E+02  0.89956135410E+02  0.16066191576E+03  0.47000000000E+01 0. -1.
         11    1    6    6    0    0  0.43144168551E+02  0.21328834703E+02 -0.27647517896E+02  0.55504267543E+02  0.00000000000E+00 0. -1.
        -12    1    6    6    0    0  0.35730779340E+03 -0.91929528141E+01 -0.63597478135E+02  0.36303995487E+03  0.00000000000E+00 0.  1.
         -5    1    5    5    0  502 -0.20483790202E+01  0.12243873006E+02  0.17713586036E+02  0.22135252722E+02  0.47000000000E+01 0.  1.
</event>
<event>
12    1  0.9749377E-001  0.3763517E+03  0.7818608E-02  0.1052290E+00
         21   -1    0    0  501  502  0.00000000000E+00  0.00000000000E+00  0.25577038488E+03  0.25577038488E+03  0.00000000000E+00 0. -1.
         21   -1    0    0  502  503 -0.00000000000E+00 -0.00000000000E+00 -0.65789522057E+03  0.65789522057E+03  0.00000000000E+00 0.  1.
         -6    2    1    2    0  503 -0.52554339818E+02  0.35624299129E+03 -0.30727781935E+03  0.50382490207E+03  0.17247853838E+03 0.  0.
        -24    2    3    3    0    0 -0.54686091768E+02  0.24934068735E+03 -0.13031399260E+03  0.29701355583E+03  0.77935670129E+02 0.  0.
          6    2    1    2  501    0  0.52554339818E+02 -0.35624299129E+03 -0.94847016332E+02  0.40984070338E+03  0.17117949108E+03 0.  0.
         24    2    5    5    0    0  0.94146816288E+02 -0.31564538066E+03 -0.62201701058E+02  0.34301326368E+03  0.72755880165E+02 0.  0.
         12    1    6    6    0    0  0.65621554608E+02 -0.25669576768E+03 -0.21309608877E+02  0.26580632988E+03  0.00000000000E+00 0. -1.
        -11    1    6    6    0    0  0.28525261680E+02 -0.58949612985E+02 -0.40892092180E+02  0.77206933807E+02  0.00000000000E+00 0.  1.
          5    1    5    5  501    0 -0.41592476471E+02 -0.40597610627E+02 -0.32645315274E+02  0.66827439700E+02  0.47000000000E+01 0. -1.
         13    1    4    4    0    0 -0.15231799153E+02  0.13728748160E+03 -0.10981190792E+03  0.17646108758E+03  0.00000000000E+00 0. -1.
        -14    1    4    4    0    0 -0.39454292615E+02  0.11205320575E+03 -0.20502084681E+02  0.12055246825E+03  0.00000000000E+00 0.  1.
         -5    1    3    3    0  503  0.21317519503E+01  0.10690230394E+03 -0.17696382675E+03  0.20681134623E+03  0.47000000000E+01 0.  1.
</event>
<event>
12    1  0.9749377E-001  0.3137777E+03  0.7818608E-02  0.1078549E+00
         21   -1    0    0  501  502  0.00000000000E+00  0.00000000000E+00  0.44948100021E+03  0.44948100021E+03  0.00000000000E+00 0.  1.
         21   -1    0    0  502  503 -0.00000000000E+00 -0.00000000000E+00 -0.24329521900E+03  0.24329521900E+03  0.00000000000E+00 0. -1.
         -6    2    1    2    0  503  0.39646389658E+02  0.27868596698E+03  0.77137973038E+02  0.33908334200E+03  0.17259647022E+03 0.  0.
        -24    2    3    3    0    0  0.23710848320E+02  0.44018846054E+02  0.33590300865E+02  0.99832241956E+02  0.79613473016E+02 0.  0.
          6    2    1    2  501    0 -0.39646389658E+02 -0.27868596698E+03  0.12904780817E+03  0.35369287721E+03  0.17090234109E+03 0.  0.
         24    2    5    5    0    0 -0.70808945908E+02 -0.14662476601E+03  0.12062427622E+03  0.21766232328E+03  0.79460317959E+02 0.  0.
         14    1    6    6    0    0 -0.87792273479E+02 -0.12986314688E+03  0.98573329235E+02  0.18517187000E+03  0.00000000000E+00 0. -1.
        -13    1    6    6    0    0  0.16983327571E+02 -0.16761619129E+02  0.22050946990E+02  0.32490453280E+02  0.00000000000E+00 0.  1.
          5    1    5    5  501    0  0.31162556251E+02 -0.13206120097E+03  0.84235319474E+01  0.13603055393E+03  0.47000000000E+01 0. -1.
         11    1    4    4    0    0  0.40601320344E+02  0.16925047743E+02 -0.10664964593E+02  0.45262190894E+02  0.00000000000E+00 0. -1.
        -12    1    4    4    0    0 -0.16890472024E+02  0.27093798311E+02  0.44255265458E+02  0.54570051061E+02  0.00000000000E+00 0.  1.
         -5    1    3    3    0  503  0.15935541338E+02  0.23466712093E+03  0.43547672173E+02  0.23925110005E+03  0.47000000000E+01 0.  1.
</event>
<event>
12    1  0.9749377E-001  0.6412552E+03  0.7818608E-02  0.9823328E-01
         21   -1    0    0  503  502  0.00000000000E+00  0.00000000000E+00  0.27942979188E+04  0.27942979188E+04  0.00000000000E+00 0.  1.
         21   -1    0    0  501  503 -0.00000000000E+00 -0.00000000000E+00 -0.19659504713E+03  0.19659504713E+03  0.00000000000E+00 0. -1.
          6    2    1    2  501    0  0.55340454112E+03  0.30736109763E+03  0.60298828308E+03  0.89098254554E+03  0.17183595797E+03 0.  0.
         24    2    3    3    0    0  0.15307833184E+03  0.48904475485E+02  0.16196548226E+03  0.24168746608E+03  0.79720702545E+02 0.  0.
         -6    2    1    2    0  502 -0.55340454112E+03 -0.30736109763E+03  0.19947145886E+04  0.20999104204E+04  0.17323409969E+03 0.  0.
        -24    2    5    5    0    0 -0.29028635475E+03 -0.10562034439E+03  0.84870575799E+03  0.90689372255E+03  0.82054466445E+02 0.  0.
         12    1    4    4    0    0  0.10565393192E+03  0.37501627881E+02  0.15663213429E+03  0.19262074374E+03  0.00000000000E+00 0. -1.
        -11    1    4    4    0    0  0.47424399917E+02  0.11402847603E+02  0.53333479697E+01  0.49066722344E+02  0.00000000000E+00 0.  1.
          5    1    3    3  501    0  0.40032620928E+03  0.25845662214E+03  0.44102280082E+03  0.64929507946E+03  0.47000000000E+01 0. -1.
         13    1    6    6    0    0 -0.22237714515E+03 -0.55789431473E+02  0.69191204535E+03  0.72890763053E+03  0.00000000000E+00 0. -1.
        -14    1    6    6    0    0 -0.67909209592E+02 -0.49830912913E+02  0.15679371264E+03  0.17798609202E+03  0.00000000000E+00 0.  1.
         -5    1    5    5    0  502 -0.26311818638E+03 -0.20174075324E+03  0.11460088306E+04  0.11930166979E+04  0.47000000000E+01 0.  1.
</event>
<event>
12    1  0.9749377E-001  0.3201336E+03  0.7818608E-02  0.1075588E+00
         21   -1    0    0  503  502  0.00000000000E+00  0.00000000000E+00  0.20691023770E+04  0.20691023770E+04  0.00000000000E+00 0.  1.
         21   -1    0    0  501  503 -0.00000000000E+00 -0.00000000000E+00 -0.60165137782E+02  0.60165137782E+02  0.00000000000E+00 0. -1.
          6    2    1    2  501    0  0.12620201117E+03  0.27661121370E+03  0.90439710074E+03  0.97075496388E+03  0.17885852761E+03 0.  0.
         24    2    3    3    0    0  0.69867539921E+01  0.60785813259E+02  0.34163087733E+03  0.35632775645E+03  0.80709874523E+02 0.  0.
         -6    2    1    2    0  502 -0.12620201117E+03 -0.27661121370E+03  0.11045401385E+04  0.11585125509E+04  0.17234181711E+03 0.  0.
        -24    2    5    5    0    0 -0.34915070211E+02 -0.91697632099E+02  0.24973402913E+03  0.27917080117E+03  0.77082637858E+02 0.  0.
         14    1    4    4    0    0  0.10761063647E+02  0.30623482846E+02  0.31264501217E+03  0.31432547117E+03  0.00000000000E+00 0. -1.
        -13    1    4    4    0    0 -0.37743096544E+01  0.30162330413E+02  0.28985865155E+02  0.42002285272E+02  0.00000000000E+00 0.  1.
          5    1    3    3  501    0  0.11921525718E+03  0.21582540044E+03  0.56276622341E+03  0.61442720743E+03  0.47000000000E+01 0. -1.
         11    1    6    6    0    0 -0.50993030419E+02 -0.95271999761E+02  0.22229143091E+03  0.24716497192E+03  0.00000000000E+00 0. -1.
        -12    1    6    6    0    0  0.16077960208E+02  0.35743676614E+01  0.27442598223E+02  0.32005829248E+02  0.00000000000E+00 0.  1.
         -5    1    5    5    0  502 -0.91286940958E+02 -0.18491358160E+03  0.85480610934E+03  0.87934174972E+03  0.47000000000E+01 0.  1.
</event>
<event>
12    1  0.9749377E-001  0.2434816E+03  0.7818608E-02  0.1117495E+00
         21   -1    0    0  503  502  0.00000000000E+00  0.00000000000E+00  0.13900053686E+03  0.13900053686E+03  0.00000000000E+00 0.  1.
         21   -1    0    0  501  503 -0.00000000000E+00 -0.00000000000E+00 -0.48880413040E+03  0.48880413040E+03  0.00000000000E+00 0. -1.
          6    2    1    2  501    0 -0.34656447798E+02 -0.18727752959E+03 -0.11758745565E+03  0.28197192099E+03  0.17148589458E+03 0.  0.
         24    2    3    3    0    0  0.37886822102E+02 -0.14910213394E+03 -0.86116955321E+02  0.19403802974E+03  0.81041775371E+02 0.  0.
         -6    2    1    2    0  502  0.34656447798E+02  0.18727752959E+03 -0.23221613789E+03  0.34583274626E+03  0.17147014675E+03 0.  0.
        -24    2    5    5    0    0  0.73570435312E+02  0.11002231113E+03 -0.20202499520E+03  0.25409255714E+03  0.78939286846E+02 0.  0.
         12    1    4    4    0    0  0.42483511626E+02 -0.25424847334E+02 -0.32065914241E+02  0.58987239960E+02  0.00000000000E+00 0. -1.
        -11    1    4    4    0    0 -0.45966895243E+01 -0.12367728661E+03 -0.54051041080E+02  0.13505078978E+03  0.00000000000E+00 0.  1.
          5    1    3    3  501    0 -0.72543269899E+02 -0.38175395652E+02 -0.31470500326E+02  0.87933891257E+02  0.47000000000E+01 0. -1.
         13    1    6    6    0    0  0.44292348525E+02  0.10664666050E+03 -0.11824179729E+03  0.16527687364E+03  0.00000000000E+00 0. -1.
        -14    1    6    6    0    0  0.29278086788E+02  0.33756506341E+01 -0.83783197912E+02  0.88815683499E+02  0.00000000000E+00 0.  1.
         -5    1    5    5    0  502 -0.38913987515E+02  0.77255218461E+02 -0.30191142691E+02  0.91740189125E+02  0.47000000000E+01 0.  1.
</event>
<event>
12    1  0.9749377E-001  0.6128967E+03  0.7818608E-02  0.9879005E-01
         21   -1    0    0  501  502  0.00000000000E+00  0.00000000000E+00  0.11181162096E+04  0.11181162096E+04  0.00000000000E+00 0.  1.
         21   -1    0    0  502  503 -0.00000000000E+00 -0.00000000000E+00 -0.44746012326E+03  0.44746012326E+03  0.00000000000E+00 0. -1.
         -6    2    1    2    0  503 -0.52658795372E+03 -0.28522274703E+03 -0.35035488375E+02  0.62422778784E+03  0.17258608649E+03 0.  0.
        -24    2    3    3    0    0 -0.38689580964E+03 -0.17063659065E+03 -0.75156194431E+02  0.43909096437E+03  0.91363055160E+02 0.  0.
          6    2    1    2  501    0  0.52658795372E+03  0.28522274703E+03  0.70569157471E+03  0.94134854501E+03  0.17172535097E+03 0.  0.
         24    2    5    5    0    0  0.18834725682E+03  0.52136778254E+02  0.21912764780E+03  0.30455785504E+03  0.80905056919E+02 0.  0.
         14    1    6    6    0    0  0.46623847601E+02 -0.12749840001E+02  0.89957150601E+02  0.10212066651E+03  0.00000000000E+00 0. -1.
        -13    1    6    6    0    0  0.14172340922E+03  0.64886618255E+02  0.12917049720E+03  0.20243718852E+03  0.00000000000E+00 0.  1.
          5    1    5    5  501    0  0.33824069689E+03  0.23308596878E+03  0.48656392691E+03  0.63679068998E+03  0.47000000000E+01 0. -1.
         11    1    4    4    0    0 -0.67642724225E+02 -0.64895467620E+02  0.31277775005E+01  0.93790952923E+02  0.00000000000E+00 0. -1.
        -12    1    4    4    0    0 -0.31925308541E+03 -0.10574112303E+03 -0.78283971931E+02  0.34530001145E+03  0.00000000000E+00 0.  1.
         -5    1    3    3    0  503 -0.13969214408E+03 -0.11458615638E+03  0.40120706055E+02  0.18513682348E+03  0.47000000000E+01 0.  1.
</event>
<event>
12    1  0.9749377E-001  0.3670558E+03  0.7818608E-02  0.1055824E+00
         21   -1    0    0  503  502  0.00000000000E+00  0.00000000000E+00  0.15896547229E+03  0.15896547229E+03  0.00000000000E+00 0. -1.
         21   -1    0    0  501  503 -0.00000000000E+00 -0.00000000000E+00 -0.91389429620E+03  0.91389429620E+03  0.00000000000E+00 0.  1.
          6    2    1    2  501    0 -0.21290763887E+03  0.25028686651E+03 -0.50182755773E+03  0.62391605372E+03  0.17166003073E+03 0.  0.
         24    2    3    3    0    0 -0.40000025675E+02  0.57813573603E+02 -0.13715881808E+03  0.17676016271E+03  0.86540177939E+02 0.  0.
         -6    2    1    2    0  502  0.21290763887E+03 -0.25028686651E+03 -0.25310126618E+03  0.44894371478E+03  0.17180520907E+03 0.  0.
        -24    2    5    5    0    0  0.93676004516E+02 -0.20681157745E+03 -0.19218121390E+03  0.30809050694E+03  0.80249106527E+02 0.  0.
         14    1    4    4    0    0 -0.61779933085E+02  0.17243931596E+02 -0.66252043096E+02  0.92214134075E+02  0.00000000000E+00 0. -1.
        -13    1    4    4    0    0  0.21779907409E+02  0.40569642007E+02 -0.70906774989E+02  0.84546028639E+02  0.00000000000E+00 0.  1.
          5    1    3    3  501    0 -0.17290761319E+03  0.19247329290E+03 -0.36466873965E+03  0.44715589100E+03  0.47000000000E+01 0. -1.
         13    1    6    6    0    0  0.10153923264E+03 -0.15211371371E+03 -0.16579567909E+03  0.24685421785E+03  0.00000000000E+00 0. -1.
        -14    1    6    6    0    0 -0.78632281240E+01 -0.54697863739E+02 -0.26385534811E+02  0.61236289089E+02  0.00000000000E+00 0.  1.
         -5    1    5    5    0  502  0.11923163435E+03 -0.43475289054E+02 -0.60920052278E+02  0.14085320784E+03  0.47000000000E+01 0.  1.
</event>
<event>
12    1  0.9749377E-001  0.6162018E+03  0.7818608E-02  0.9872351E-01
         21   -1    0    0  503  502  0.00000000000E+00  0.00000000000E+00  0.82179361742E+03  0.82179361742E+03  0.00000000000E+00 0.  1.
         21   -1    0    0  501  503 -0.00000000000E+00 -0.00000000000E+00 -0.58444438879E+03  0.58444438879E+03  0.00000000000E+00 0. -1.
          6    2    1    2  501    0 -0.55157448152E+03  0.24731671310E+03  0.41515425729E+03  0.75312915784E+03  0.17161149671E+03 0.  0.
         24    2    3    3    0    0 -0.21841619862E+03  0.14311941679E+03  0.23533138979E+03  0.36043351017E+03  0.79640749319E+02 0.  0.
         -6    2    1    2    0  502  0.55157448152E+03 -0.24731671310E+03 -0.17780502866E+03  0.65310884837E+03  0.17186207947E+03 0.  0.
        -24    2    5    5    0    0  0.18858152466E+03 -0.38499366747E+02 -0.80583926602E+02  0.22317559360E+03  0.79173124673E+02 0.  0.
         12    1    4    4    0    0 -0.15962526864E+03  0.68900306599E+02  0.18228550055E+03  0.25190371643E+03  0.00000000000E+00 0. -1.
        -11    1    4    4    0    0 -0.58790929984E+02  0.74219110190E+02  0.53045889238E+02  0.10852979375E+03  0.00000000000E+00 0.  1.
          5    1    3    3  501    0 -0.33315828289E+03  0.10419729631E+03  0.17982286750E+03  0.39269564766E+03  0.47000000000E+01 0. -1.
         11    1    6    6    0    0  0.30666778419E+02 -0.20801581492E+02  0.12388273074E+02  0.39072066760E+02  0.00000000000E+00 0. -1.
        -12    1    6    6    0    0  0.15791474624E+03 -0.17697785255E+02 -0.92972199676E+02  0.18410352684E+03  0.00000000000E+00 0.  1.
         -5    1    5    5    0  502  0.36299295686E+03 -0.20881734635E+03 -0.97221102055E+02  0.42993325477E+03  0.47000000000E+01 0.  1.
</event>
<event>
12    1  0.9749377E-001  0.8972524E+03  0.7818608E-02  0.9429023E-01
         21   -1    0    0  501  502  0.00000000000E+00  0.00000000000E+00  0.12801327965E+04  0.12801327965E+04  0.00000000000E+00 0. -1.
         21   -1    0    0  502  503 -0.00000000000E+00 -0.00000000000E+00 -0.67743554650E+03  0.67743554650E+03  0.00000000000E+00 0.  1.
         -6    2    1    2    0  503  0.29357676845E+03 -0.83948915262E+03  0.73393146105E+02  0.90844142852E+03  0.17014675673E+03 0.  0.
        -24    2    3    3    0    0  0.17675131621E+03 -0.52799891061E+03 -0.20612961364E+02  0.56270511947E+03  0.78665620902E+02 0.  0.
          6    2    1    2  501    0 -0.29357676845E+03  0.83948915262E+03  0.52930410388E+03  0.10491269145E+04  0.17197410250E+03 0.  0.
         24    2    5    5    0    0 -0.20871121455E+03  0.39534557146E+03  0.26089723531E+03  0.52326569701E+03  0.76688527994E+02 0.  0.
         12    1    6    6    0    0 -0.17916973752E+03  0.32473790361E+03  0.24664861586E+03  0.44541221423E+03  0.00000000000E+00 0. -1.
        -11    1    6    6    0    0 -0.29541477033E+02  0.70607667851E+02  0.14248619449E+02  0.77853482779E+02  0.00000000000E+00 0.  1.
          5    1    5    5  501    0 -0.84865553903E+02  0.44414358116E+03  0.26840686857E+03  0.52586121745E+03  0.47000000000E+01 0. -1.
         13    1    4    4    0    0  0.32434297043E+01 -0.10384941080E+03  0.14191845033E+01  0.10390973989E+03  0.00000000000E+00 0. -1.
        -14    1    4    4    0    0  0.17350788651E+03 -0.42414949981E+03 -0.22032145867E+02  0.45879537958E+03  0.00000000000E+00 0.  1.
         -5    1    3    3    0  503  0.11682545224E+03 -0.31149024200E+03  0.94006107468E+02  0.34573630905E+03  0.47000000000E+01 0.  1.
</event>
<event>
12    1  0.9749377E-001  0.3189876E+03  0.7818608E-02  0.1076116E+00
         21   -1    0    0  501  502  0.00000000000E+00  0.00000000000E+00  0.34797952126E+03  0.34797952126E+03  0.00000000000E+00 0.  1.
         21   -1    0    0  502  503 -0.00000000000E+00 -0.00000000000E+00 -0.34529660305E+03  0.34529660305E+03  0.00000000000E+00 0. -1.
         -6    2    1    2    0  503 -0.18546410464E+03  0.22203730684E+03  0.81978674100E+02  0.34661384593E+03  0.17240404705E+03 0.  0.
        -24    2    3    3    0    0 -0.12602927547E+03  0.72697869830E+02 -0.10492169208E+01  0.16564288955E+03  0.79171380234E+02 0.  0.
          6    2    1    2  501    0  0.18546410464E+03 -0.22203730684E+03 -0.79295755890E+02  0.34666227838E+03  0.17375102476E+03 0.  0.
         24    2    5    5    0    0  0.22925800095E+02 -0.84456532455E+02 -0.57155672860E+02  0.13251409790E+03  0.81453772268E+02 0.  0.
         12    1    6    6    0    0 -0.84407988397E+01  0.37216386423E+01 -0.35191458774E+02  0.36380440485E+02  0.00000000000E+00 0. -1.
        -11    1    6    6    0    0  0.31366598934E+02 -0.88178171097E+02 -0.21964214086E+02  0.96133657411E+02  0.00000000000E+00 0.  1.
          5    1    5    5  501    0  0.16253830455E+03 -0.13758077439E+03 -0.22140083030E+02  0.21414818048E+03  0.47000000000E+01 0. -1.
         13    1    4    4    0    0  0.80558676779E+01  0.11317177094E+02 -0.11175687399E+02  0.17828950901E+02  0.00000000000E+00 0. -1.
        -14    1    4    4    0    0 -0.13408514315E+03  0.61380692736E+02  0.10126470478E+02  0.14781393864E+03  0.00000000000E+00 0.  1.
         -5    1    3    3    0  503 -0.59434829175E+02  0.14933943701E+03  0.83027891021E+02  0.18097095638E+03  0.47000000000E+01 0.  1.
</event>
<event>
12    1  0.9749377E-001  0.3724170E+03  0.7818608E-02  0.1053773E+00
         21   -1    0    0  503  502  0.00000000000E+00  0.00000000000E+00  0.67521234523E+03  0.67521234523E+03  0.00000000000E+00 0.  1.
         21   -1    0    0  501  503 -0.00000000000E+00 -0.00000000000E+00 -0.26040629151E+03  0.26040629151E+03  0.00000000000E+00 0. -1.
          6    2    1    2  501    0 -0.32718615734E+03 -0.99651359500E+02  0.16520760986E+02  0.38301500379E+03  0.17159948303E+03 0.  0.
         24    2    3    3    0    0 -0.89208753468E+02 -0.44910169054E+02 -0.34875406806E+02  0.13342834800E+03  0.81312391855E+02 0.  0.
         -6    2    1    2    0  502  0.32718615734E+03  0.99651359500E+02  0.39828529274E+03  0.55260363296E+03  0.17250630638E+03 0.  0.
        -24    2    5    5    0    0  0.32039599342E+03  0.12561155412E+03  0.38536076836E+03  0.52245116438E+03  0.77591508820E+02 0.  0.
         12    1    4    4    0    0  0.12539344896E+02  0.27619173289E+01  0.55867498146E+01  0.14002683002E+02  0.00000000000E+00 0. -1.
        -11    1    4    4    0    0 -0.10174809836E+03 -0.47672086383E+02 -0.40462156620E+02  0.11942566499E+03  0.00000000000E+00 0.  1.
          5    1    3    3  501    0 -0.23797740387E+03 -0.54741190445E+02  0.51396167792E+02  0.24958665579E+03  0.47000000000E+01 0. -1.
         11    1    6    6    0    0  0.12308215320E+03  0.76146559227E+02  0.20262375722E+03  0.24900582705E+03  0.00000000000E+00 0. -1.
        -12    1    6    6    0    0  0.19731384022E+03  0.49464994897E+02  0.18273701114E+03  0.27344533732E+03  0.00000000000E+00 0.  1.
         -5    1    5    5    0  502  0.67901639256E+01 -0.25960194625E+02  0.12924524378E+02  0.30152468580E+02  0.47000000000E+01 0.  1.
</event>
<event>
12    1  0.9749377E-001  0.1014490E+04  0.7818608E-02  0.9292793E-01
         21   -1    0    0  501  502  0.00000000000E+00  0.00000000000E+00  0.17918390579E+04  0.17918390579E+04  0.00000000000E+00 0. -1.
         21   -1    0    0  502  503 -0.00000000000E+00 -0.00000000000E+00 -0.66826295227E+03  0.66826295227E+03  0.00000000000E+00 0.  1.
         -6    2    1    2    0  503 -0.81185425472E+03  0.60193554647E+03  0.13162919539E+03  0.10336417097E+04  0.17220686962E+03 0.  0.
        -24    2    3    3    0    0 -0.35584328172E+03  0.24593400994E+03  0.11119803616E+03  0.45474394344E+03  0.85551577807E+02 0.  0.
          6    2    1    2  501    0  0.81185425472E+03 -0.60193554647E+03  0.99194691029E+03  0.14264603005E+04  0.17145431773E+03 0.  0.
         24    2    5    5    0    0  0.77638656352E+03 -0.59531696777E+03  0.91879869218E+03  0.13447625985E+04  0.83767663192E+02 0.  0.
         14    1    6    6    0    0  0.70872694205E+03 -0.56737745026E+03  0.83462176573E+03  0.12332090420E+04  0.00000000000E+00 0. -1.
        -13    1    6    6    0    0  0.67659621476E+02 -0.27939517507E+02  0.84176926452E+02  0.11155355648E+03  0.00000000000E+00 0.  1.
          5    1    5    5  501    0  0.35467691202E+02 -0.66185786979E+01  0.73148218104E+02  0.81697702018E+02  0.47000000000E+01 0. -1.
         13    1    4    4    0    0 -0.47191749248E+02  0.24856086438E+02 -0.13698793528E+02  0.55068531615E+02  0.00000000000E+00 0. -1.
        -14    1    4    4    0    0 -0.30865153247E+03  0.22107792350E+03  0.12489682968E+03  0.39967541183E+03  0.00000000000E+00 0.  1.
         -5    1    3    3    0  503 -0.45601097300E+03  0.35600153653E+03  0.20431159234E+02  0.57889776626E+03  0.47000000000E+01 0.  1.
</event>
<event>
12    1  0.9749377E-001  0.8124580E+03  0.7818608E-02  0.9542158E-01
         21   -1    0    0  503  502  0.00000000000E+00  0.00000000000E+00  0.26961650421E+04  0.26961650421E+04  0.00000000000E+00 0. -1.
         21   -1    0    0  501  503 -0.00000000000E+00 -0.00000000000E+00 -0.34185931852E+03  0.34185931852E+03  0.00000000000E+00 0.  1.
          6    2    1    2  501    0  0.45647490471E+03 -0.65144556643E+03  0.37146385128E+03  0.89463998568E+03  0.17217620778E+03 0.  0.
         24    2    3    3    0    0  0.46766012811E+03 -0.63546521913E+03  0.35586059553E+03  0.86922281998E+03  0.79934392937E+02 0.  0.
         -6    2    1    2    0  502 -0.45647490471E+03  0.65144556643E+03  0.19828418723E+04  0.21433843749E+04  0.17229052065E+03 0.  0.
        -24    2    5    5    0    0 -0.33087245854E+03  0.35681032871E+03  0.11622713885E+04  0.12625075921E+04  0.79122973214E+02 0.  0.
         12    1    4    4    0    0  0.22341922581E+03 -0.36884078166E+03  0.20388954041E+03  0.47700169535E+03  0.00000000000E+00 0. -1.
        -11    1    4    4    0    0  0.24424090230E+03 -0.26662443747E+03  0.15197105512E+03  0.39222112463E+03  0.00000000000E+00 0.  1.
          5    1    3    3  501    0 -0.11185223403E+02 -0.15980347307E+02  0.15603255749E+02  0.25417165707E+02  0.47000000000E+01 0. -1.
         13    1    6    6    0    0 -0.23421711186E+03  0.20243546647E+03  0.77501587178E+03  0.83455819155E+03  0.00000000000E+00 0. -1.
        -14    1    6    6    0    0 -0.96655346677E+02  0.15437486224E+03  0.38725551676E+03  0.42794940050E+03  0.00000000000E+00 0.  1.
         -5    1    5    5    0  502 -0.12560244617E+03  0.29463523772E+03  0.82057048375E+03  0.88087678287E+03  0.47000000000E+01 0.  1.
</event>
<event>
12    1  0.9749377E-001  0.3835889E+03  0.7818608E-02  0.1049615E+00
         21   -1    0    0  503  502  0.00000000000E+00  0.00000000000E+00  0.21478508644E+04  0.21478508644E+04  0.00000000000E+00 0. -1.
         21   -1    0    0  501  503 -0.00000000000E+00 -0.00000000000E+00 -0.83656598244E+02  0.83656598244E+02  0.00000000000E+00 0.  1.
          6    2    1    2  501    0 -0.16901584650E+03  0.31033333171E+03  0.14477701201E+04  0.15001227353E+04  0.17162973851E+03 0.  0.
         24    2    3    3    0    0 -0.38383823614E+02  0.20880137759E+03  0.87304705693E+03  0.90204067365E+03  0.79967994315E+02 0.  0.
         -6    2    1    2    0  502  0.16901584650E+03 -0.31033333171E+03  0.61642414612E+03  0.73138472741E+03  0.17341210579E+03 0.  0.
        -24    2    5    5    0    0  0.17879654902E+03 -0.31861632518E+03  0.56339989638E+03  0.67663136055E+03  0.83222510326E+02 0.  0.
         14    1    4    4    0    0  0.15307224425E+02  0.26780503352E+02  0.64157581189E+02  0.71187791815E+02  0.00000000000E+00 0. -1.
        -13    1    4    4    0    0 -0.53691048040E+02  0.18202087424E+03  0.80888947574E+03  0.83085288184E+03  0.00000000000E+00 0.  1.
          5    1    3    3  501    0 -0.13063202289E+03  0.10153195412E+03  0.57472306316E+03  0.59808206163E+03  0.47000000000E+01 0. -1.
         11    1    6    6    0    0  0.67461816356E+02 -0.84319144042E+02  0.10920470543E+03  0.15357891263E+03  0.00000000000E+00 0. -1.
        -12    1    6    6    0    0  0.11133473267E+03 -0.23429718114E+03  0.45419519096E+03  0.52305244792E+03  0.00000000000E+00 0.  1.
         -5    1    5    5    0  502 -0.97807025221E+01  0.82829934668E+01  0.53024249736E+02  0.54753366861E+02  0.47000000000E+01 0.  1.
</event>
<event>
12    1  0.9749377E-001  0.3282665E+03  0.7818608E-02  0.1071906E+00
         21   -1    0    0  503  502  0.00000000000E+00  0.00000000000E+00  0.38190047405E+03  0.38190047405E+03  0.00000000000E+00 0.  1.
         21   -1    0    0  501  503 -0.00000000000E+00 -0.00000000000E+00 -0.34386555721E+03  0.34386555721E+03  0.00000000000E+00 0. -1.
          6    2    1    2  501    0 -0.21376374098E+03 -0.23356366050E+03  0.52977709352E+02  0.36459294162E+03  0.17284228339E+03 0.  0.
         24    2    3    3    0    0 -0.18074987922E+03 -0.21977139623E+03  0.93873311796E+02  0.31005229694E+03  0.79688410296E+02 0.  0.
         -6    2    1    2    0  502  0.21376374098E+03  0.23356366050E+03 -0.14942792513E+02  0.36117308964E+03  0.17313518753E+03 0.  0.
        -24    2    5    5    0    0  0.14352415474E+03  0.21517280294E+03  0.35626214801E+02  0.27256644419E+03  0.78260597967E+02 0.  0.
         14    1    4    4    0    0 -0.14101889294E+03 -0.19614853175E+03  0.50783072928E+02  0.24685926187E+03  0.00000000000E+00 0. -1.
        -13    1    4    4    0    0 -0.39730986273E+02 -0.23622864481E+02  0.43090238867E+02  0.63193035077E+02  0.00000000000E+00 0.  1.
          5    1    3    3  501    0 -0.33013861767E+02 -0.13792264272E+02 -0.40895602444E+02  0.54540644677E+02  0.47000000000E+01 0. -1.
         13    1    6    6    0    0  0.92508731067E+01  0.28305502579E+02  0.30176935440E+02  0.42396079559E+02  0.00000000000E+00 0. -1.
        -14    1    6    6    0    0  0.13427328164E+03  0.18686730036E+03  0.54492793612E+01  0.23017036463E+03  0.00000000000E+00 0.  1.
         -5    1    5    5    0  502  0.70239586240E+02  0.18390857557E+02 -0.50569007314E+02  0.88606645448E+02  0.47000000000E+01 0.  1.
</event>
<event>
12    1  0.9749377E-001  0.8929394E+03  0.7818608E-02  0.9434451E-01
         21   -1    0    0  503  502  0.00000000000E+00  0.00000000000E+00  0.30320530998E+03  0.30320530998E+03  0.00000000000E+00 0.  1.
         21   -1    0    0  501  503 -0.00000000000E+00 -0.00000000000E+00 -0.26826456570E+04  0.26826456570E+04  0.00000000000E+00 0. -1.
          6    2    1    2  501    0 -0.61202918716E+03 -0.63809579504E+03 -0.12603816836E+04  0.15492696238E+04  0.17299829264E+03 0.  0.
         24    2    3    3    0    0 -0.55209601860E+03 -0.61021626088E+03 -0.12113371737E+04  0.14668274800E+04  0.84090480719E+02 0.  0.
         -6    2    1    2    0  502  0.61202918716E+03  0.63809579504E+03 -0.11190586633E+04  0.14365813431E+04  0.17241720869E+03 0.  0.
        -24    2    5    5    0    0  0.41002025825E+03  0.33032040922E+03 -0.66872428286E+03  0.85489720229E+03  0.80180266002E+02 0.  0.
         12    1    4    4    0    0 -0.24266773847E+03 -0.30984408632E+03 -0.52253344745E+03  0.65416526415E+03  0.00000000000E+00 0. -1.
        -11    1    4    4    0    0 -0.30942828013E+03 -0.30037217456E+03 -0.68880372628E+03  0.81266221589E+03  0.00000000000E+00 0.  1.
          5    1    3    3  501    0 -0.59933168558E+02 -0.27879534154E+02 -0.49044509904E+02  0.82442143772E+02  0.47000000000E+01 0. -1.
         13    1    6    6    0    0  0.31318452262E+01  0.14425244088E+01 -0.25663848923E+02  0.25894448686E+02  0.00000000000E+00 0. -1.
        -14    1    6    6    0    0  0.40688841303E+03  0.32887788481E+03 -0.64306043394E+03  0.82900275360E+03  0.00000000000E+00 0.  1.
         -5    1    5    5    0  502  0.20200892891E+03  0.30777538581E+03 -0.45033438049E+03  0.58168414085E+03  0.47000000000E+01 0.  1.
</event>
<event>
12    1  0.9749377E-001  0.1046976E+04  0.7818608E-02  0.9258472E-01
         21   -1    0    0  503  502  0.00000000000E+00  0.00000000000E+00  0.81893375387E+03  0.81893375387E+03  0.00000000000E+00 0. -1.
         21   -1    0    0  501  503 -0.00000000000E+00 -0.00000000000E+00 -0.20010115020E+04  0.20010115020E+04  0.00000000000E+00 0.  1.
          6    2    1    2  501    0 -0.95939967774E+03 -0.40611041383E+03  0.20378654505E+03  0.10775972484E+04  0.18523893717E+03 0.  0.
         24    2    3    3    0    0 -0.79680867472E+03 -0.27639956282E+03  0.12661420845E+03  0.85569997783E+03  0.69932194484E+02 0.  0.
         -6    2    1    2    0  502  0.95939967774E+03  0.40611041383E+03 -0.13858642931E+04  0.17423480075E+04  0.17257847581E+03 0.  0.
        -24    2    5    5    0    0  0.19401224207E+03  0.78813182601E+02 -0.30704270144E+03  0.37969635685E+03  0.77729242078E+02 0.  0.
         14    1    4    4    0    0 -0.77314361288E+03 -0.27383171563E+03  0.13332171413E+03  0.83096903317E+03  0.00000000000E+00 0. -1.
        -13    1    4    4    0    0 -0.23665061838E+02 -0.25678471974E+01 -0.67075056843E+01  0.24730944655E+02  0.00000000000E+00 0.  1.
          5    1    3    3  501    0 -0.16259100302E+03 -0.12971085101E+03  0.77172336600E+02  0.22189727053E+03  0.47000000000E+01 0. -1.
         11    1    6    6    0    0  0.30579585044E+02  0.14125568072E+02 -0.11284918475E+03  0.11776918609E+03  0.00000000000E+00 0. -1.
        -12    1    6    6    0    0  0.16343265703E+03  0.64687614528E+02 -0.19419351669E+03  0.26192717076E+03  0.00000000000E+00 0.  1.
         -5    1    5    5    0  502  0.76538743566E+03  0.32729723123E+03 -0.10788215917E+04  0.13626516506E+04  0.47000000000E+01 0.  1.
</event>
<event>
12    1  0.9749377E-001  0.2702539E+03  0.7818608E-02  0.1101134E+00
         21   -1    0    0  503  502  0.00000000000E+00  0.00000000000E+00  0.31101118829E+03  0.31101118829E+03  0.00000000000E+00 0. -1.
         21   -1    0    0  501  503 -0.00000000000E+00 -0.00000000000E+00 -0.27924843865E+03  0.27924843865E+03  0.00000000000E+00 0.  1.
          6    2    1    2  501    0  0.18325194611E+03 -0.14584666229E+03  0.60161962155E+02  0.29715632602E+03  0.17271333403E+03 0.  0.
         24    2    3    3    0    0  0.48193134677E+02 -0.11667382247E+03  0.21649874738E+01  0.14723075715E+03  0.75741993648E+02 0.  0.
         -6    2    1    2    0  502 -0.18325194611E+03  0.14584666229E+03 -0.28399212523E+02  0.29310330092E+03  0.17392672332E+03 0.  0.
        -24    2    5    5    0    0 -0.10453472506E+03  0.88417531685E+02  0.52052710729E+02  0.16665525670E+03  0.79494158526E+02 0.  0.
         12    1    4    4    0    0  0.56086843515E+02 -0.12415221906E+03  0.34808256238E+01  0.13627774456E+03  0.00000000000E+00 0. -1.
        -11    1    4    4    0    0 -0.78937088386E+01  0.74783965976E+01 -0.13158381500E+01  0.10953012596E+02  0.00000000000E+00 0.  1.
          5    1    3    3  501    0  0.13505881143E+03 -0.29172839824E+02  0.57996974681E+02  0.14992556887E+03  0.47000000000E+01 0. -1.
         13    1    6    6    0    0 -0.11194845216E+03  0.57600047818E+02  0.35047013385E+02  0.13068479099E+03  0.00000000000E+00 0. -1.
        -14    1    6    6    0    0  0.74137270979E+01  0.30817483867E+02  0.17005697344E+02  0.35970465712E+02  0.00000000000E+00 0.  1.
         -5    1    5    5    0  502 -0.78717221049E+02  0.57429130605E+02 -0.80451923252E+02  0.12644804422E+03  0.47000000000E+01 0.  1.
</event>
<event>
12    1  0.9749377E-001  0.4474434E+03  0.7818608E-02  0.1028487E+00
         21   -1    0    0  501  502  0.00000000000E+00  0.00000000000E+00  0.83556921860E+03  0.83556921860E+03  0.00000000000E+00 0. -1.
         21   -1    0    0  502  503 -0.00000000000E+00 -0.00000000000E+00 -0.27350101703E+03  0.27350101703E+03  0.00000000000E+00 0.  1.
         -6    2    1    2    0  503  0.23713264682E+03  0.35435332424E+03  0.43415982669E+03  0.63225017638E+03  0.17160233051E+03 0.  0.
        -24    2    3    3    0    0  0.23186415912E+03  0.35443220168E+03  0.44490608095E+03  0.61939190415E+03  0.79509346477E+02 0.  0.
          6    2    1    2  501    0 -0.23713264682E+03 -0.35435332424E+03  0.12790837487E+03  0.47682005925E+03  0.17087611288E+03 0.  0.
         24    2    5    5    0    0 -0.20349891343E+03 -0.18386315915E+03  0.87594138304E+02  0.29836711844E+03  0.78311782267E+02 0.  0.
         12    1    6    6    0    0 -0.10232194051E+03 -0.42862984661E+02  0.44669309879E+02  0.11959248391E+03  0.00000000000E+00 0. -1.
        -11    1    6    6    0    0 -0.10117697292E+03 -0.14100017449E+03  0.42924828425E+02  0.17877463453E+03  0.00000000000E+00 0.  1.
          5    1    5    5  501    0 -0.33633733394E+02 -0.17049016508E+03  0.40314236564E+02  0.17845294081E+03  0.47000000000E+01 0. -1.
         13    1    4    4    0    0  0.79776125825E+02  0.66436977492E+02  0.12991504014E+03  0.16630099183E+03  0.00000000000E+00 0. -1.
        -14    1    4    4    0    0  0.15208803330E+03  0.28799522419E+03  0.31499104082E+03  0.45309091232E+03  0.00000000000E+00 0.  1.
         -5    1    3    3    0  503  0.52684877024E+01 -0.78877443833E-01 -0.10746254261E+02  0.12858272239E+02  0.47000000000E+01 0.  1.
</event>
<event>
12    1  0.9749377E-001  0.4370038E+03  0.7818608E-02  0.1031670E+00
         21   -1    0    0  501  502  0.00000000000E+00  0.00000000000E+00  0.32546693836E+03  0.32546693836E+03  0.00000000000E+00 0.  1.
         21   -1    0    0  502  503 -0.00000000000E+00 -0.00000000000E+00 -0.71618504942E+03  0.71618504942E+03  0.00000000000E+00 0. -1.
         -6    2    1    2    0  503 -0.24131764210E+03  0.33225952616E+03  0.59469249903E+01  0.44488669413E+03  0.17105030716E+03 0.  0.
        -24    2    3    3    0    0 -0.73717911255E+02  0.72496708880E+02  0.32356994699E+02  0.13458688297E+03  0.79853307526E+02 0.  0.
          6    2    1    2  501    0  0.24131764210E+03 -0.33225952616E+03 -0.39666503605E+03  0.59676529364E+03  0.17365214585E+03 0.  0.
         24    2    5    5    0    0  0.75283431301E+02 -0.21786361834E+03 -0.22668844816E+03  0.33300799362E+03  0.79840591571E+02 0.  0.
         12    1    6    6    0    0  0.78383964985E+02 -0.22357021178E+03 -0.21656182834E+03  0.32097774231E+03  0.00000000000E+00 0. -1.
        -11    1    6    6    0    0 -0.31005336840E+01  0.57065934387E+01 -0.10126619811E+02  0.12030251310E+02  0.00000000000E+00 0.  1.
          5    1    5    5  501    0  0.16603421080E+03 -0.11439590782E+03 -0.16997658789E+03  0.26375730002E+03  0.47000000000E+01 0. -1.
         13    1    4    4    0    0 -0.30544235164E+02 -0.50787977272E+01 -0.14510720316E+02  0.34195109185E+02  0.00000000000E+00 0. -1.
        -14    1    4    4    0    0 -0.43173676091E+02  0.77575506607E+02  0.46867715015E+02  0.10039177378E+03  0.00000000000E+00 0.  1.
         -5    1    3    3    0  503 -0.16759973085E+03  0.25976281728E+03 -0.26410069708E+02  0.31029981116E+03  0.47000000000E+01 0.  1.
</event>
<event>
12    1  0.9749377E-001  0.2065037E+03  0.7818608E-02  0.1144365E+00
         21   -1    0    0  501  502  0.00000000000E+00  0.00000000000E+00  0.16327407914E+03  0.16327407914E+03  0.00000000000E+00 0.  1.
         21   -1    0    0  502  503 -0.00000000000E+00 -0.00000000000E+00 -0.29997506678E+03  0.29997506678E+03  0.00000000000E+00 0.  1.
         -6    2    1    2    0  503  0.11784496173E+03 -0.73318424645E+02 -0.81694369846E+02  0.23565964644E+03  0.17204206607E+03 0.  0.
        -24    2    3    3    0    0  0.75954414025E+02 -0.11605499894E+03 -0.42468155663E+02  0.16395177624E+03  0.76412072989E+02 0.  0.
          6    2    1    2  501    0 -0.11784496173E+03  0.73318424645E+02 -0.55006617792E+02  0.22758949948E+03  0.17177958516E+03 0.  0.
         24    2    5    5    0    0 -0.13889738450E+03  0.81455331827E+02 -0.77242936092E+02  0.19555892636E+03  0.79682921619E+02 0.  0.
         14    1    6    6    0    0 -0.61143987942E+02  0.74441719590E+02 -0.19078764378E+02  0.98204664488E+02  0.00000000000E+00 0. -1.
        -13    1    6    6    0    0 -0.77753396560E+02  0.70136122375E+01 -0.58164171714E+02  0.97354261870E+02  0.00000000000E+00 0.  1.
          5    1    5    5  501    0  0.21052422773E+02 -0.81369071827E+01  0.22236318300E+02  0.32030573124E+02  0.47000000000E+01 0. -1.
         13    1    4    4    0    0 -0.13480490763E+02 -0.21460044562E+02 -0.18998085750E+02  0.31673086462E+02  0.00000000000E+00 0. -1.
        -14    1    4    4    0    0  0.89434904788E+02 -0.94594954374E+02 -0.23470069913E+02  0.13227868978E+03  0.00000000000E+00 0.  1.
         -5    1    3    3    0  503  0.41890547704E+02  0.42736574291E+02 -0.39226214182E+02  0.71707870197E+02  0.47000000000E+01 0.  1.
</event>
<event>
12    1  0.9749377E-001  0.3982041E+03  0.7818608E-02  0.1044403E+00
         21   -1    0    0  501  502  0.00000000000E+00  0.00000000000E+00  0.68992713408E+03  0.68992713408E+03  0.00000000000E+00 0.  1.
         21   -1    0    0  502  503 -0.00000000000E+00 -0.00000000000E+00 -0.24085209547E+03  0.24085209547E+03  0.00000000000E+00 0. -1.
         -6    2    1    2    0  503 -0.32786264757E+03 -0.17111814574E+03  0.22846742666E+03  0.46734293067E+03  0.17157130976E+03 0.  0.
        -24    2    3    3    0    0 -0.31952639695E+03 -0.11463193185E+03  0.18068068279E+03  0.39273831739E+03  0.79751355249E+02 0.  0.
          6    2    1    2  501    0  0.32786264757E+03  0.17111814574E+03  0.22060761195E+03  0.46343629888E+03  0.17126047177E+03 0.  0.
         24    2    5    5    0    0  0.12419893990E+03  0.50147373488E+02  0.23586891217E+02  0.15529333212E+03  0.74963603330E+02 0.  0.
         14    1    6    6    0    0  0.10584387570E+03  0.63856801812E+01  0.16208046699E+02  0.10726790626E+03  0.00000000000E+00 0. -1.
        -13    1    6    6    0    0  0.18355064193E+02  0.43761693307E+02  0.73788445182E+01  0.48025425860E+02  0.00000000000E+00 0.  1.
          5    1    5    5  501    0  0.20366370768E+03  0.12097077225E+03  0.19702072074E+03  0.30814296676E+03  0.47000000000E+01 0. -1.
         13    1    4    4    0    0 -0.13127448508E+03 -0.61346292012E+01  0.69640614656E+02  0.14872941645E+03  0.00000000000E+00 0. -1.
        -14    1    4    4    0    0 -0.18825191187E+03 -0.10849730265E+03  0.11104006814E+03  0.24400890094E+03  0.00000000000E+00 0.  1.
         -5    1    3    3    0  503 -0.83362506195E+01 -0.56486213889E+02  0.47786743863E+02  0.74604613282E+02  0.47000000000E+01 0.  1.
</event>
<event>
12    1  0.9749377E-001  0.2240029E+03  0.7818608E-02  0.1130933E+00
         21   -1    0    0  503  502  0.00000000000E+00  0.00000000000E+00  0.62525269551E+03  0.62525269551E+03  0.00000000000E+00 0.  1.
         21   -1    0    0  501  503 -0.00000000000E+00 -0.00000000000E+00 -0.25640236935E+03  0.25640236935E+03  0.00000000000E+00 0. -1.
          6    2    1    2  501    0  0.11697273188E+03 -0.12502127175E+03  0.53500231030E+03  0.58757185404E+03  0.17233767214E+03 0.  0.
         24    2    3    3    0    0 -0.95701705940E+01 -0.50791039728E+02  0.18028874834E+03  0.20368771195E+03  0.79456487073E+02 0.  0.
         -6    2    1    2    0  502 -0.11697273188E+03  0.12502127175E+03 -0.16615198413E+03  0.29408321082E+03  0.17194625516E+03 0.  0.
        -24    2    5    5    0    0 -0.13785060122E+02  0.86733194151E+02 -0.13474620714E+03  0.17953153987E+03  0.79764394444E+02 0.  0.
         12    1    4    4    0    0 -0.36934278988E+02 -0.53530712322E+02  0.10473585984E+03  0.12328535380E+03  0.00000000000E+00 0. -1.
        -11    1    4    4    0    0  0.27364108394E+02  0.27396725941E+01  0.75552888503E+02  0.80402358145E+02  0.00000000000E+00 0.  1.
          5    1    3    3  501    0  0.12654290248E+03 -0.74230232019E+02  0.35471356195E+03  0.38388414209E+03  0.47000000000E+01 0. -1.
         13    1    6    6    0    0  0.16280624503E+02  0.24621047823E+02 -0.95906082903E+02  0.10034556028E+03  0.00000000000E+00 0. -1.
        -14    1    6    6    0    0 -0.30065684625E+02  0.62112146328E+02 -0.38840124233E+02  0.79185979592E+02  0.00000000000E+00 0.  1.
         -5    1    5    5    0  502 -0.10318767176E+03  0.38288077595E+02 -0.31405776995E+02  0.11455167095E+03  0.47000000000E+01 0.  1.
</event>
<event>
12    1  0.9749377E-001  0.3978715E+03  0.7818608E-02  0.1044519E+00
         21   -1    0    0  501  502  0.00000000000E+00  0.00000000000E+00  0.25900306973E+03  0.25900306973E+03  0.00000000000E+00 0.  1.
         21   -1    0    0  502  503 -0.00000000000E+00 -0.00000000000E+00 -0.63851555747E+03  0.63851555747E+03  0.00000000000E+00 0. -1.
         -6    2    1    2    0  503 -0.17303299393E+03  0.32253095518E+03 -0.23414431999E+03  0.46757033452E+03  0.17271890777E+03 0.  0.
        -24    2    3    3    0    0 -0.10397671249E+03  0.30145570855E+03 -0.16810742555E+03  0.36961168276E+03  0.81645505396E+02 0.  0.
          6    2    1    2  501    0  0.17303299393E+03 -0.32253095518E+03 -0.14536816776E+03  0.42994829268E+03  0.17250216271E+03 0.  0.
         24    2    5    5    0    0  0.92302230420E+02 -0.28834713779E+03 -0.13755823291E+03  0.34180593833E+03  0.79026947431E+02 0.  0.
         12    1    6    6    0    0  0.96772445480E+02 -0.18084000042E+03 -0.84403136553E+02  0.22179247376E+03  0.00000000000E+00 0. -1.
        -11    1    6    6    0    0 -0.44702150602E+01 -0.10750713738E+03 -0.53155096353E+02  0.12001346457E+03  0.00000000000E+00 0.  1.
          5    1    5    5  501    0  0.80730763511E+02 -0.34183817386E+02 -0.78099348521E+01  0.88142354351E+02  0.47000000000E+01 0. -1.
         13    1    4    4    0    0 -0.34451352991E+02  0.17707834209E+03 -0.12923892455E+03  0.22191515176E+03  0.00000000000E+00 0. -1.
        -14    1    4    4    0    0 -0.69525359495E+02  0.12437736646E+03 -0.38868500996E+02  0.14769653100E+03  0.00000000000E+00 0.  1.
         -5    1    3    3    0  503 -0.69056281445E+02  0.21075246630E+02 -0.66036894438E+02  0.97958651760E+02  0.47000000000E+01 0.  1.
</event>
<event>
12    1  0.9749377E-001  0.5155144E+03  0.7818608E-02  0.1009807E+00
         21   -1    0    0  501  502  0.00000000000E+00  0.00000000000E+00  0.44522937663E+03  0.44522937663E+03  0.00000000000E+00 0. -1.
         21   -1    0    0  502  503 -0.00000000000E+00 -0.00000000000E+00 -0.63092737636E+03  0.63092737636E+03  0.00000000000E+00 0.  1.
         -6    2    1    2    0  503  0.54214695536E+02  0.49151834480E+03 -0.76768694221E+01  0.52293206733E+03  0.16991025934E+03 0.  0.
        -24    2    3    3    0    0  0.76830063265E+02  0.29318704812E+03  0.44731514328E+02  0.31649687947E+03  0.79422053180E+02 0.  0.
          6    2    1    2  501    0 -0.54214695536E+02 -0.49151834480E+03 -0.17802113031E+03  0.55322468567E+03  0.17273249118E+03 0.  0.
         24    2    5    5    0    0  0.24833495922E+02 -0.36348056121E+03 -0.11608634625E+03  0.39043556418E+03  0.78924451788E+02 0.  0.
         12    1    6    6    0    0  0.34431583068E+02 -0.73233686582E+02 -0.11328979325E+02  0.81713233540E+02  0.00000000000E+00 0. -1.
        -11    1    6    6    0    0 -0.95980871466E+01 -0.29024687463E+03 -0.10475736692E+03  0.30872233064E+03  0.00000000000E+00 0.  1.
          5    1    5    5  501    0 -0.79048191457E+02 -0.12803778358E+03 -0.61934784063E+02  0.16278912149E+03  0.47000000000E+01 0. -1.
         11    1    4    4    0    0  0.56593930705E+02  0.97384490097E+02 -0.73613193868E+01  0.11287515638E+03  0.00000000000E+00 0. -1.
        -12    1    4    4    0    0  0.20236132560E+02  0.19580255803E+03  0.52092833714E+02  0.20362172309E+03  0.00000000000E+00 0.  1.
         -5    1    3    3    0  503 -0.22615367729E+02  0.19833129668E+03 -0.52408383750E+02  0.20643518786E+03  0.47000000000E+01 0.  1.
</event>
<event>
12    1  0.9749377E-001  0.2393086E+03  0.7818608E-02  0.1120254E+00
         21   -1    0    0  503  502  0.00000000000E+00  0.00000000000E+00  0.10561482767E+03  0.10561482767E+03  0.00000000000E+00 0.  1.
         21   -1    0    0  501  503 -0.00000000000E+00 -0.00000000000E+00 -0.83457644022E+03  0.83457644022E+03  0.00000000000E+00 0. -1.
          6    2    1    2  501    0 -0.21086393645E+03  0.76454478787E+02 -0.22081428012E+03  0.35926727029E+03  0.17321991276E+03 0.  0.
         24    2    3    3    0    0 -0.40517568656E+02 -0.35611095213E+01 -0.10748740020E+03  0.13952776291E+03  0.79120797203E+02 0.  0.
         -6    2    1    2    0  502  0.21086393645E+03 -0.76454478787E+02 -0.50814733243E+03  0.58092399760E+03  0.17014726713E+03 0.  0.
        -24    2    5    5    0    0  0.19669221440E+03 -0.97436726237E+02 -0.35394975403E+03  0.42459077785E+03  0.82553966771E+02 0.  0.
         12    1    4    4    0    0 -0.35283313841E+02 -0.78819286020E+01 -0.46317985992E+01  0.36448464883E+02  0.00000000000E+00 0. -1.
        -11    1    4    4    0    0 -0.52342548155E+01  0.43208190807E+01 -0.10285560160E+03  0.10307929803E+03  0.00000000000E+00 0.  1.
          5    1    3    3  501    0 -0.17034636779E+03  0.80015588309E+02 -0.11332687992E+03  0.21973950738E+03  0.47000000000E+01 0. -1.
         11    1    6    6    0    0 -0.95318389771E-01 -0.36814405703E+01  0.40347784738E+01  0.54627399353E+01  0.00000000000E+00 0. -1.
        -12    1    6    6    0    0  0.19678753279E+03 -0.93755285667E+02 -0.35798453250E+03  0.41912803791E+03  0.00000000000E+00 0.  1.
         -5    1    5    5    0  502  0.14171722046E+02  0.20982247449E+02 -0.15419757840E+03  0.15633321975E+03  0.47000000000E+01 0.  1.
</event>
<event>
12    1  0.9749377E-001  0.1808662E+03  0.7818608E-02  0.1166967E+00
         21   -1    0    0  503  502  0.00000000000E+00  0.00000000000E+00  0.81847751107E+02  0.81847751107E+02  0.00000000000E+00 0. -1.
         21   -1    0    0  501  503 -0.00000000000E+00 -0.00000000000E+00 -0.89794872522E+03  0.89794872522E+03  0.00000000000E+00 0. -1.
          6    2    1    2  501    0 -0.62963446388E+02  0.47296809772E+02 -0.55825681657E+02  0.19548108984E+03  0.16998519335E+03 0.  0.
         24    2    3    3    0    0 -0.66437134356E+02 -0.29293534414E+02 -0.29172638887E+02  0.11417535807E+03  0.83144245441E+02 0.  0.
         -6    2    1    2    0  502  0.62963446388E+02 -0.47296809772E+02 -0.76027529246E+03  0.78431538649E+03  0.17587132047E+03 0.  0.
        -24    2    5    5    0    0 -0.26307414115E+02  0.12234007928E+02 -0.29821609465E+03  0.30993790276E+03  0.79290059086E+02 0.  0.
         14    1    4    4    0    0 -0.15678449815E+02 -0.38435901507E+02 -0.44020026345E+02  0.60505330613E+02  0.00000000000E+00 0. -1.
        -13    1    4    4    0    0 -0.50758684541E+02  0.91423670927E+01  0.14847387458E+02  0.53670027452E+02  0.00000000000E+00 0.  1.
          5    1    3    3  501    0  0.34736879674E+01  0.76590344186E+02 -0.26653042770E+02  0.81305731776E+02  0.47000000000E+01 0. -1.
         11    1    6    6    0    0  0.21019218391E+02  0.27581600146E+02 -0.12190696115E+03  0.12674328142E+03  0.00000000000E+00 0. -1.
        -12    1    6    6    0    0 -0.47326632506E+02 -0.15347592218E+02 -0.17630913350E+03  0.18319462134E+03  0.00000000000E+00 0.  1.
         -5    1    5    5    0  502  0.89270860503E+02 -0.59530817701E+02 -0.46205919781E+03  0.47437748373E+03  0.47000000000E+01 0.  1.
</event>
<event>
12    1  0.9749377E-001  0.1594030E+03  0.7818608E-02  0.1189372E+00
         21   -1    0    0  503  502  0.00000000000E+00  0.00000000000E+00  0.56277262038E+03  0.56277262038E+03  0.00000000000E+00 0.  1.
         21   -1    0    0  501  503 -0.00000000000E+00 -0.00000000000E+00 -0.81620321877E+02  0.81620321877E+02  0.00000000000E+00 0. -1.
          6    2    1    2  501    0  0.12437840561E+02  0.10809233565E+03  0.33724728943E+03  0.39385592247E+03  0.17189560940E+03 0.  0.
         24    2    3    3    0    0 -0.54168906485E+02  0.52426185702E+02  0.24100314770E+03  0.26416319399E+03  0.77568682351E+02 0.  0.
         -6    2    1    2    0  502 -0.12437840561E+02 -0.10809233565E+03  0.14390500908E+03  0.25053701979E+03  0.17384330227E+03 0.  0.
        -24    2    5    5    0    0 -0.11199558134E+02 -0.59238041314E+02  0.16830071426E+03  0.19571443458E+03  0.79651954400E+02 0.  0.
         12    1    4    4    0    0 -0.28763363444E+02 -0.15053929797E+02  0.10923486157E+03  0.11395703954E+03  0.00000000000E+00 0. -1.
        -11    1    4    4    0    0 -0.25405543041E+02  0.67480115500E+02  0.13176828613E+03  0.15020615445E+03  0.00000000000E+00 0.  1.
          5    1    3    3  501    0  0.66606747047E+02  0.55666149948E+02  0.96244141732E+02  0.12969272848E+03  0.47000000000E+01 0. -1.
         13    1    6    6    0    0  0.19241159484E+02 -0.32115063144E+02  0.21105973041E+02  0.42977454521E+02  0.00000000000E+00 0. -1.
        -14    1    6    6    0    0 -0.30440717618E+02 -0.27122978170E+02  0.14719474122E+03  0.15273698005E+03  0.00000000000E+00 0.  1.
         -5    1    5    5    0  502 -0.12382824270E+01 -0.48854294336E+02 -0.24395705184E+02  0.54822585217E+02  0.47000000000E+01 0.  1.
</event>
<event>
12    1  0.9749377E-001  0.8000380E+03  0.7818608E-02  0.9559962E-01
         21   -1    0    0  503  502  0.00000000000E+00  0.00000000000E+00  0.42413938907E+03  0.42413938907E+03  0.00000000000E+00 0.  1.
         21   -1    0    0  501  503 -0.00000000000E+00 -0.00000000000E+00 -0.19910272269E+04  0.19910272269E+04  0.00000000000E+00 0. -1.
          6    2    1    2  501    0  0.52335250262E+02  0.79106247534E+03 -0.21495532816E+03  0.83867039481E+03  0.16924366965E+03 0.  0.
         24    2    3    3    0    0  0.82856880167E+02  0.59048427682E+03 -0.20437870545E+03  0.63545342071E+03  0.80581951404E+02 0.  0.
         -6    2    1    2    0  502 -0.52335250262E+02 -0.79106247534E+03 -0.13519325096E+04  0.15764962211E+04  0.17058723944E+03 0.  0.
        -24    2    5    5    0    0 -0.65729443707E+02 -0.30073111413E+03 -0.51177580645E+03  0.60361923808E+03  0.87647850732E+02 0.  0.
         14    1    4    4    0    0  0.32593803869E+02  0.28989378550E+03 -0.58299997045E+02  0.29748891169E+03  0.00000000000E+00 0. -1.
        -13    1    4    4    0    0  0.50263076297E+02  0.30059049131E+03 -0.14607870840E+03  0.33796450902E+03  0.00000000000E+00 0.  1.
          5    1    3    3  501    0 -0.30521629905E+02  0.20057819853E+03 -0.10576622713E+02  0.20321697411E+03  0.47000000000E+01 0. -1.
         11    1    6    6    0    0 -0.37581137273E+02 -0.90302793786E+02 -0.23693345302E+03  0.25632869056E+03  0.00000000000E+00 0. -1.
        -12    1    6    6    0    0 -0.28148306434E+02 -0.21042832034E+03 -0.27484235342E+03  0.34729054751E+03  0.00000000000E+00 0.  1.
         -5    1    5    5    0  502  0.13394193445E+02 -0.49033136121E+03 -0.84015670320E+03  0.97287698305E+03  0.47000000000E+01 0.  1.
</event>
<event>
12    1  0.9749377E-001  0.2088415E+03  0.7818608E-02  0.1142487E+00
         21   -1    0    0  503  502  0.00000000000E+00  0.00000000000E+00  0.26645464365E+03  0.26645464365E+03  0.00000000000E+00 0. -1.
         21   -1    0    0  501  503 -0.00000000000E+00 -0.00000000000E+00 -0.20974930629E+03  0.20974930629E+03  0.00000000000E+00 0.  1.
          6    2    1    2  501    0  0.10302853533E+03 -0.10736251869E+03  0.92283560904E+02  0.24569550824E+03  0.17236135775E+03 0.  0.
         24    2    3    3    0    0  0.63528194431E+02 -0.18144181526E+02  0.10634723520E+03  0.14700373780E+03  0.77041038951E+02 0.  0.
         -6    2    1    2    0  502 -0.10302853533E+03  0.10736251869E+03 -0.35578223550E+02  0.23050844170E+03  0.17241444891E+03 0.  0.
        -24    2    5    5    0    0 -0.12685793702E+03  0.12675454856E+03 -0.34588092404E+02  0.19941243605E+03  0.80058302183E+02 0.  0.
         14    1    4    4    0    0  0.56558747756E+02  0.19452839331E+02  0.82640567993E+02  0.10201356961E+03  0.00000000000E+00 0. -1.
        -13    1    4    4    0    0  0.69694466755E+01 -0.37597020857E+02  0.23706667206E+02  0.44990168196E+02  0.00000000000E+00 0.  1.
          5    1    3    3  501    0  0.39500340897E+02 -0.89218337164E+02 -0.14063674294E+02  0.98691770437E+02  0.47000000000E+01 0. -1.
         13    1    6    6    0    0 -0.33303062315E+01  0.39484917136E+02  0.11571796857E+02  0.41280214429E+02  0.00000000000E+00 0. -1.
        -14    1    6    6    0    0 -0.12352763079E+03  0.87269631424E+02 -0.46159889260E+02  0.15813222162E+03  0.00000000000E+00 0.  1.
         -5    1    5    5    0  502  0.23829401695E+02 -0.19392029870E+02 -0.99013114691E+00  0.31096005649E+02  0.47000000000E+01 0.  1.
</event>
<event>
12    1  0.9749377E-001  0.6546705E+03  0.7818608E-02  0.9798055E-01
         21   -1    0    0  503  502  0.00000000000E+00  0.00000000000E+00  0.14419603163E+04  0.14419603163E+04  0.00000000000E+00 0.  1.
         21   -1    0    0  501  503 -0.00000000000E+00 -0.00000000000E+00 -0.36742703051E+03  0.36742703051E+03  0.00000000000E+00 0. -1.
          6    2    1    2  501    0 -0.63884484326E+03  0.63186773783E+02  0.17014833433E+03  0.68695731161E+03  0.17562627981E+03 0.  0.
         24    2    3    3    0    0 -0.35883447780E+03  0.10177692766E+03  0.11997457799E+03  0.39984322180E+03  0.79749465178E+02 0.  0.
         -6    2    1    2    0  502  0.63884484326E+03 -0.63186773783E+02  0.90438495150E+03  0.11224300352E+04  0.17268972570E+03 0.  0.
        -24    2    5    5    0    0  0.29312214667E+03 -0.39348126198E+02  0.52903017300E+03  0.61154280326E+03  0.81503425511E+02 0.  0.
         14    1    4    4    0    0 -0.35163070555E+03  0.10887735972E+03  0.10689323737E+03  0.38330744415E+03  0.00000000000E+00 0. -1.
        -13    1    4    4    0    0 -0.72037722502E+01 -0.71004320661E+01  0.13081340619E+02  0.16535777652E+02  0.00000000000E+00 0.  1.
          5    1    3    3  501    0 -0.28001036546E+03 -0.38590153874E+02  0.50173756333E+02  0.28711408980E+03  0.47000000000E+01 0. -1.
         11    1    6    6    0    0  0.20087200152E+03  0.17090648616E+01  0.40085896125E+03  0.44837527665E+03  0.00000000000E+00 0. -1.
        -12    1    6    6    0    0  0.92250145148E+02 -0.41057191060E+02  0.12817121175E+03  0.16316752660E+03  0.00000000000E+00 0.  1.
         -5    1    5    5    0  502  0.34572269659E+03 -0.23838647585E+02  0.37535477850E+03  0.51088723198E+03  0.47000000000E+01 0.  1.
</event>
<event>
12    1  0.9749377E-001  0.2678033E+03  0.7818608E-02  0.1102543E+00
         21   -1    0    0  503  502  0.00000000000E+00  0.00000000000E+00  0.65978370758E+03  0.65978370758E+03  0.00000000000E+00 0. -1.
         21   -1    0    0  501  503 -0.00000000000E+00 -0.00000000000E+00 -0.18993221038E+03  0.18993221038E+03  0.00000000000E+00 0.  1.
          6    2    1    2  501    0 -0.14968223097E+03 -0.18409017159E+03  0.47261348151E+03  0.55638113264E+03  0.17292339435E+03 0.  0.
         24    2    3    3    0    0 -0.11231342501E+03 -0.10781533743E+03  0.42386602438E+03  0.45833684387E+03  0.78560826123E+02 0.  0.
         -6    2    1    2    0  502  0.14968223097E+03  0.18409017159E+03 -0.27619843003E+01  0.29333478532E+03  0.17246363726E+03 0.  0.
        -24    2    5    5    0    0  0.16165965263E+03  0.11202022835E+03  0.27413129369E+02  0.21415042554E+03  0.80165767318E+02 0.  0.
         12    1    4    4    0    0 -0.27741620572E+02 -0.74598436839E+02  0.15023949087E+03  0.17001890750E+03  0.00000000000E+00 0. -1.
        -11    1    4    4    0    0 -0.84571804441E+02 -0.33216900589E+02  0.27362653351E+03  0.28831793637E+03  0.00000000000E+00 0.  1.
          5    1    3    3  501    0 -0.37368805955E+02 -0.76274834160E+02  0.48747457129E+02  0.98044288773E+02  0.47000000000E+01 0. -1.
         11    1    6    6    0    0 -0.39994500011E+00 -0.62435392993E+01  0.11255877751E+02  0.12877753023E+02  0.00000000000E+00 0. -1.
        -12    1    6    6    0    0  0.16205959763E+03  0.11826376765E+03  0.16157251618E+02  0.20127267252E+03  0.00000000000E+00 0.  1.
         -5    1    5    5    0  502 -0.11977421664E+02  0.72069943238E+02 -0.30175113670E+02  0.79184359775E+02  0.47000000000E+01 0.  1.
</event>
<event>
12    1  0.9749377E-001  0.4264169E+03  0.7818608E-02  0.1034998E+00
         21   -1    0    0  501  502  0.00000000000E+00  0.00000000000E+00  0.17282260770E+03  0.17282260770E+03  0.00000000000E+00 0.  1.
         21   -1    0    0  502  503 -0.00000000000E+00 -0.00000000000E+00 -0.12054888712E+04  0.12054888712E+04  0.00000000000E+00 0. -1.
         -6    2    1    2    0  503 -0.12635768312E+03  0.39657158203E+03 -0.40636735813E+03  0.60677369790E+03  0.17264010818E+03 0.  0.
        -24    2    3    3    0    0 -0.86824337856E+02  0.26611009889E+03 -0.17946424837E+03  0.34202816878E+03  0.80142382169E+02 0.  0.
          6    2    1    2  501    0  0.12635768312E+03 -0.39657158203E+03 -0.62629890538E+03  0.77153778100E+03  0.17258315352E+03 0.  0.
         24    2    5    5    0    0  0.93533987286E+02 -0.11817214549E+03 -0.25169956048E+03  0.30363779118E+03  0.78294167986E+02 0.  0.
         12    1    6    6    0    0  0.37915385155E+02 -0.71709685913E+02 -0.19635403519E+03  0.21244943544E+03  0.00000000000E+00 0. -1.
        -11    1    6    6    0    0  0.55618602131E+02 -0.46462459574E+02 -0.55345525297E+02  0.91188355743E+02  0.00000000000E+00 0.  1.
          5    1    5    5  501    0  0.32823695831E+02 -0.27839943655E+03 -0.37459934489E+03  0.46789998982E+03  0.47000000000E+01 0. -1.
         13    1    4    4    0    0 -0.36967594272E+02  0.17251807635E+03 -0.15100682335E+03  0.23223296578E+03  0.00000000000E+00 0. -1.
        -14    1    4    4    0    0 -0.49856743584E+02  0.93592022539E+02 -0.28457425016E+02  0.10979520300E+03  0.00000000000E+00 0.  1.
         -5    1    3    3    0  503 -0.39533345261E+02  0.13046148314E+03 -0.22690310976E+03  0.26474552912E+03  0.47000000000E+01 0.  1.
</event>
<event>
12    1  0.9749377E-001  0.3064743E+03  0.7818608E-02  0.1082048E+00
         21   -1    0    0  503  502  0.00000000000E+00  0.00000000000E+00  0.41064174195E+03  0.41064174195E+03  0.00000000000E+00 0.  1.
         21   -1    0    0  501  503 -0.00000000000E+00 -0.00000000000E+00 -0.34534779134E+03  0.34534779134E+03  0.00000000000E+00 0. -1.
          6    2    1    2  501    0 -0.26861331391E+02  0.27982823767E+03  0.21691951496E+03  0.39361026234E+03  0.16985166744E+03 0.  0.
         24    2    3    3    0    0  0.28753621119E+02  0.23061875037E+03  0.12594046088E+03  0.27607782060E+03  0.79662943618E+02 0.  0.
         -6    2    1    2    0  502  0.26861331391E+02 -0.27982823767E+03 -0.15162556436E+03  0.36237927095E+03  0.17118133813E+03 0.  0.
        -24    2    5    5    0    0  0.11244096897E+01 -0.27079109617E+03 -0.16958532789E+03  0.32938378381E+03  0.80033814993E+02 0.  0.
         12    1    4    4    0    0  0.13938024031E+02  0.26738307576E+02 -0.86028649294E+01  0.31356257604E+02  0.00000000000E+00 0. -1.
        -11    1    4    4    0    0  0.14815597088E+02  0.20388044280E+03  0.13454332581E+03  0.24472156299E+03  0.00000000000E+00 0.  1.
          5    1    3    3  501    0 -0.55614952510E+02  0.49209487296E+02  0.90979054078E+02  0.11753244175E+03  0.47000000000E+01 0. -1.
         11    1    6    6    0    0  0.27129363602E+02 -0.17230850694E+03 -0.13897586370E+03  0.22302581605E+03  0.00000000000E+00 0. -1.
        -12    1    6    6    0    0 -0.26004953912E+02 -0.98482589229E+02 -0.30609464193E+02  0.10635796777E+03  0.00000000000E+00 0.  1.
         -5    1    5    5    0  502  0.25736921701E+02 -0.90371415001E+01  0.17959763529E+02  0.32995487133E+02  0.47000000000E+01 0.  1.
</event>
<event>
12    1  0.9749377E-001  0.1907466E+03  0.7818608E-02  0.1157790E+00
         21   -1    0    0  501  502  0.00000000000E+00  0.00000000000E+00  0.27142371686E+03  0.27142371686E+03  0.00000000000E+00 0. -1.
         21   -1    0    0  502  503 -0.00000000000E+00 -0.00000000000E+00 -0.19002019955E+03  0.19002019955E+03  0.00000000000E+00 0. -1.
         -6    2    1    2    0  503  0.35438402431E+02  0.12691207717E+03  0.11075251496E+03  0.24328826853E+03  0.17193169090E+03 0.  0.
        -24    2    3    3    0    0  0.92035682781E+01  0.41482609046E+02 -0.13396261132E+02  0.90247525090E+02  0.78483396017E+02 0.  0.
          6    2    1    2  501    0 -0.35438402431E+02 -0.12691207717E+03 -0.29348997648E+02  0.21815564788E+03  0.17137084740E+03 0.  0.
         24    2    5    5    0    0 -0.77615567251E+02 -0.43265531060E+02 -0.33756897591E+02  0.12425582099E+03  0.80024361643E+02 0.  0.
         14    1    6    6    0    0  0.69518459929E+01  0.75874512217E+01  0.11723896017E+02  0.15599593475E+02  0.00000000000E+00 0. -1.
        -13    1    6    6    0    0 -0.84567413244E+02 -0.50852982282E+02 -0.45480793608E+02  0.10865622751E+03  0.00000000000E+00 0.  1.
          5    1    5    5  501    0  0.42177164820E+02 -0.83646546110E+02  0.44078999422E+01  0.93899826891E+02  0.47000000000E+01 0. -1.
         13    1    4    4    0    0 -0.33844011589E+02  0.82015020598E+01 -0.59374978574E+01  0.35326132498E+02  0.00000000000E+00 0. -1.
        -14    1    4    4    0    0  0.43047579867E+02  0.33281106986E+02 -0.74587632748E+01  0.54921392592E+02  0.00000000000E+00 0.  1.
         -5    1    3    3    0  503  0.26234834153E+02  0.85429468123E+02  0.12414877610E+03  0.15304074344E+03  0.47000000000E+01 0.  1.
</event>
<event>
12    1  0.9749377E-001  0.7651124E+03  0.7818608E-02  0.9611935E-01
         21   -1    0    0  503  502  0.00000000000E+00  0.00000000000E+00  0.35640362537E+03  0.35640362537E+03  0.00000000000E+00 0. -1.
         21   -1    0    0  501  503 -0.00000000000E+00 -0.00000000000E+00 -0.17007952437E+04  0.17007952437E+04  0.00000000000E+00 0.  1.
          6    2    1    2  501    0 -0.74198690630E+03  0.13484664184E+03 -0.79118569433E+03  0.11062631952E+04  0.17063196696E+03 0.  0.
         24    2    3    3    0    0 -0.23706141340E+03  0.96245874604E+02 -0.26900367170E+03  0.37884589584E+03  0.75497386088E+02 0.  0.
         -6    2    1    2    0  502  0.74198690630E+03 -0.13484664184E+03 -0.55320592397E+03  0.95093567387E+03  0.17179544689E+03 0.  0.
        -24    2    5    5    0    0  0.51279286017E+03 -0.15813519449E+03 -0.37388996020E+03  0.65896209231E+03  0.80461665267E+02 0.  0.
         14    1    4    4    0    0 -0.13371053881E+03  0.61285890995E+02 -0.10063776225E+03  0.17822016669E+03  0.00000000000E+00 0. -1.
        -13    1    4    4    0    0 -0.10335087459E+03  0.34959983608E+02 -0.16836590945E+03  0.20062572915E+03  0.00000000000E+00 0.  1.
          5    1    3    3  501    0 -0.50492549290E+03  0.38600767239E+02 -0.52218202263E+03  0.72741729934E+03  0.47000000000E+01 0. -1.
         13    1    6    6    0    0  0.75167264846E+02 -0.32474060354E+02 -0.93308614140E+02  0.12414177288E+03  0.00000000000E+00 0. -1.
        -14    1    6    6    0    0  0.43762559533E+03 -0.12566113414E+03 -0.28058134606E+03  0.53482031943E+03  0.00000000000E+00 0.  1.
         -5    1    5    5    0  502  0.22919404613E+03  0.23288552647E+02 -0.17931596377E+03  0.29197358156E+03  0.47000000000E+01 0.  1.
</event>
<event>
12    1  0.9749377E-001  0.2276352E+03  0.7818608E-02  0.1128315E+00
         21   -1    0    0  503  502  0.00000000000E+00  0.00000000000E+00  0.59700862410E+02  0.59700862410E+02  0.00000000000E+00 0.  1.
         21   -1    0    0  501  503 -0.00000000000E+00 -0.00000000000E+00 -0.11472983307E+04  0.11472983307E+04  0.00000000000E+00 0. -1.
          6    2    1    2  501    0  0.17227422256E+03 -0.55409853823E+02 -0.71851697673E+03  0.76131417629E+03  0.17488273076E+03 0.  0.
         24    2    3    3    0    0  0.10493397357E+03 -0.91828327918E+02 -0.59055077253E+03  0.61212150286E+03  0.80615995375E+02 0.  0.
         -6    2    1    2    0  502 -0.17227422256E+03  0.55409853823E+02 -0.36908049161E+03  0.44568501687E+03  0.17223839674E+03 0.  0.
        -24    2    5    5    0    0 -0.18479678207E+03  0.50652462224E+02 -0.37625454175E+03  0.42977890902E+03  0.80167997752E+02 0.  0.
         14    1    4    4    0    0  0.47450710605E+02 -0.87236201733E+02 -0.30343328470E+03  0.31927023521E+03  0.00000000000E+00 0. -1.
        -13    1    4    4    0    0  0.57483262966E+02 -0.45921261846E+01 -0.28711748783E+03  0.29285126765E+03  0.00000000000E+00 0.  1.
          5    1    3    3  501    0  0.67340248987E+02  0.36418474094E+02 -0.12796620420E+03  0.14919267343E+03  0.47000000000E+01 0. -1.
         13    1    6    6    0    0 -0.11081403451E+03  0.69818867277E+02 -0.22618234872E+03  0.26136732647E+03  0.00000000000E+00 0. -1.
        -14    1    6    6    0    0 -0.73982747553E+02 -0.19166405053E+02 -0.15007219303E+03  0.16841158255E+03  0.00000000000E+00 0.  1.
         -5    1    5    5    0  502  0.12522559507E+02  0.47573915997E+01  0.71740501351E+01  0.15906107845E+02  0.47000000000E+01 0.  1.
</event>
<event>
12    1  0.9749377E-001  0.8209530E+03  0.7818608E-02  0.9530174E-01
         21   -1    0    0  501  502  0.00000000000E+00  0.00000000000E+00  0.12760897480E+04  0.12760897480E+04  0.00000000000E+00 0. -1.
         21   -1    0    0  502  503 -0.00000000000E+00 -0.00000000000E+00 -0.62442485957E+03  0.62442485957E+03  0.00000000000E+00 0.  1.
         -6    2    1    2    0  503 -0.68565888833E+03  0.43315177418E+03  0.67874510934E+03  0.10716733189E+04  0.17332111368E+03 0.  0.
        -24    2    3    3    0    0 -0.62862701968E+03  0.35317070806E+03  0.55203425395E+03  0.91127588800E+03  0.76029254885E+02 0.  0.
          6    2    1    2  501    0  0.68565888833E+03 -0.43315177418E+03 -0.27080220888E+02  0.82884128866E+03  0.16880750223E+03 0.  0.
         24    2    5    5    0    0  0.57768724101E+03 -0.41316486128E+03 -0.48459344106E+02  0.71687473016E+03  0.84458982338E+02 0.  0.
         12    1    6    6    0    0  0.46624797311E+03 -0.30891869347E+03 -0.94976991118E+01  0.55938192488E+03  0.00000000000E+00 0. -1.
        -11    1    6    6    0    0  0.11143926790E+03 -0.10424616782E+03 -0.38961644994E+02  0.15749280528E+03  0.00000000000E+00 0.  1.
          5    1    5    5  501    0  0.10797164732E+03 -0.19986912902E+02  0.21379123219E+02  0.11196655850E+03  0.47000000000E+01 0. -1.
         13    1    4    4    0    0 -0.18134113075E+03  0.11875363232E+03  0.12704549503E+03  0.25125204218E+03  0.00000000000E+00 0. -1.
        -14    1    4    4    0    0 -0.44728588893E+03  0.23441707574E+03  0.42498875893E+03  0.66002384582E+03  0.00000000000E+00 0.  1.
         -5    1    3    3    0  503 -0.57031868641E+02  0.79981066124E+02  0.12671085538E+03  0.16039743094E+03  0.47000000000E+01 0.  1.
</event>
<event>
12    1  0.9749377E-001  0.3646330E+03  0.7818608E-02  0.1056764E+00
         21   -1    0    0  503  502  0.00000000000E+00  0.00000000000E+00  0.82627249802E+02  0.82627249802E+02  0.00000000000E+00 0. -1.
         21   -1    0    0  501  503 -0.00000000000E+00 -0.00000000000E+00 -0.20167167020E+04  0.20167167020E+04  0.00000000000E+00 0.  1.
          6    2    1    2  501    0  0.28866222213E+03  0.16305821953E+03 -0.13911062603E+04  0.14406236013E+04  0.17408581662E+03 0.  0.
         24    2    3    3    0    0  0.54953680591E+02  0.19150225528E+02 -0.35778602685E+03  0.37146412389E+03  0.81167211266E+02 0.  0.
         -6    2    1    2    0  502 -0.28866222213E+03 -0.16305821953E+03 -0.54298319189E+03  0.65872035056E+03  0.17078610051E+03 0.  0.
        -24    2    5    5    0    0 -0.11680059758E+03 -0.12614407521E+03 -0.21333209952E+03  0.28510155453E+03  0.78851787595E+02 0.  0.
         14    1    4    4    0    0  0.64529632197E+02 -0.12805962227E+02 -0.21541950848E+03  0.22524127227E+03  0.00000000000E+00 0. -1.
        -13    1    4    4    0    0 -0.95759516061E+01  0.31956187754E+02 -0.14236651837E+03  0.14622285163E+03  0.00000000000E+00 0.  1.
          5    1    3    3  501    0  0.23370854154E+03  0.14390799400E+03 -0.10333202335E+04  0.10691594774E+04  0.47000000000E+01 0. -1.
         11    1    6    6    0    0  0.22041353464E+01 -0.20567742095E+02 -0.22851207368E+01  0.20811343164E+02  0.00000000000E+00 0. -1.
        -12    1    6    6    0    0 -0.11900473293E+03 -0.10557633312E+03 -0.21104697878E+03  0.26429021137E+03  0.00000000000E+00 0.  1.
         -5    1    5    5    0  502 -0.17186162454E+03 -0.36914144321E+02 -0.32965109238E+03  0.37361879603E+03  0.47000000000E+01 0.  1.
</event>
<event>
12    1  0.9749377E-001  0.3347581E+03  0.7818608E-02  0.1069051E+00
         21   -1    0    0  503  502  0.00000000000E+00  0.00000000000E+00  0.50175842320E+03  0.50175842320E+03  0.00000000000E+00 0. -1.
         21   -1    0    0  501  503 -0.00000000000E+00 -0.00000000000E+00 -0.24411410892E+03  0.24411410892E+03  0.00000000000E+00 0.  1.
          6    2    1    2  501    0  0.24725293788E+03 -0.17863989682E+03  0.13298071294E+03  0.37507135773E+03  0.17305613351E+03 0.  0.
         24    2    3    3    0    0  0.17402300440E+03 -0.17747490607E+03  0.14829239054E+03  0.30010124480E+03  0.79301801327E+02 0.  0.
         -6    2    1    2    0  502 -0.24725293788E+03  0.17863989682E+03  0.12466360134E+03  0.37080117440E+03  0.17001843846E+03 0.  0.
        -24    2    5    5    0    0 -0.26634785782E+03  0.17654832707E+03  0.11873537938E+03  0.35015597043E+03  0.80003875871E+02 0.  0.
         12    1    4    4    0    0  0.10103165962E+03 -0.59420038563E+02  0.39294626011E+02  0.12362121526E+03  0.00000000000E+00 0. -1.
        -11    1    4    4    0    0  0.72991344778E+02 -0.11805486751E+03  0.10899776453E+03  0.17648002954E+03  0.00000000000E+00 0.  1.
          5    1    3    3  501    0  0.73229933480E+02 -0.11649907426E+01 -0.15311677596E+02  0.74970112923E+02  0.47000000000E+01 0. -1.
         11    1    6    6    0    0 -0.52763486487E+02  0.24550941360E+02 -0.84122343786E+01  0.58800509481E+02  0.00000000000E+00 0. -1.
        -12    1    6    6    0    0 -0.21358437133E+03  0.15199738571E+03  0.12714761376E+03  0.29135546095E+03  0.00000000000E+00 0.  1.
         -5    1    5    5    0  502  0.19094919941E+02  0.20915697495E+01  0.59282219591E+01  0.20645203975E+02  0.47000000000E+01 0.  1.
</event>
<event>
12    1  0.9749377E-001  0.2559412E+03  0.7818608E-02  0.1109607E+00
         21   -1    0    0  501  502  0.00000000000E+00  0.00000000000E+00  0.42500238080E+03  0.42500238080E+03  0.00000000000E+00 0. -1.
         21   -1    0    0  502  503 -0.00000000000E+00 -0.00000000000E+00 -0.21815564200E+03  0.21815564200E+03  0.00000000000E+00 0.  1.
         -6    2    1    2    0  503 -0.22341210465E+03 -0.81296902429E+02  0.18029395962E+03  0.34880045108E+03  0.18064796691E+03 0.  0.
        -24    2    3    3    0    0 -0.16598297363E+03 -0.12030375824E+02  0.18103224529E+03  0.25869722215E+03  0.80352357994E+02 0.  0.
          6    2    1    2  501    0  0.22341210465E+03  0.81296902429E+02  0.26552779174E+02  0.29435757172E+03  0.17152018860E+03 0.  0.
         24    2    5    5    0    0  0.15851968281E+03  0.31594432739E+02 -0.45584371496E+02  0.18523736089E+03  0.78155274459E+02 0.  0.
         14    1    6    6    0    0  0.13567250983E+03  0.17909351513E+02 -0.53082579845E+01  0.13695237273E+03  0.00000000000E+00 0. -1.
        -13    1    6    6    0    0  0.22847172982E+02  0.13685081226E+02 -0.40276113512E+02  0.48284988154E+02  0.00000000000E+00 0.  1.
          5    1    5    5  501    0  0.64892421844E+02  0.49702469690E+02  0.72137150671E+02  0.10912021084E+03  0.47000000000E+01 0. -1.
         13    1    4    4    0    0  0.12839331195E+01  0.78748880073E+01 -0.36146052175E+01  0.87594358415E+01  0.00000000000E+00 0. -1.
        -14    1    4    4    0    0 -0.16726690675E+03 -0.19905263831E+02  0.18464685051E+03  0.24993778631E+03  0.00000000000E+00 0.  1.
         -5    1    3    3    0  503 -0.57429131024E+02 -0.69266526605E+02 -0.73828567246E+00  0.90103228931E+02  0.47000000000E+01 0.  1.
</event>
<event>
12    1  0.9749377E-001  0.2478514E+03  0.7818608E-02  0.1114670E+00
         21   -1    0    0  501  502  0.00000000000E+00  0.00000000000E+00  0.21076784787E+03  0.21076784787E+03  0.00000000000E+00 0.  1.
         21   -1    0    0  502  503 -0.00000000000E+00 -0.00000000000E+00 -0.31080745382E+03  0.31080745382E+03  0.00000000000E+00 0. -1.
         -6    2    1    2    0  503 -0.18093700247E+03 -0.47871819963E+02 -0.67308126697E+02  0.26308375651E+03  0.17219979387E+03 0.  0.
        -24    2    3    3    0    0 -0.21966403157E+02  0.54430844920E+01 -0.43261004709E+02  0.93630268616E+02  0.79893445515E+02 0.  0.
          6    2    1    2  501    0  0.18093700247E+03  0.47871819963E+02 -0.32731479255E+02  0.25849154518E+03  0.17526157361E+03 0.  0.
         24    2    5    5    0    0  0.63519653363E+02 -0.27684642852E+02 -0.50472379540E+02  0.11766384021E+03  0.80598587969E+02 0.  0.
         12    1    6    6    0    0  0.71939140627E+02  0.54040496786E+01 -0.33784764340E+02  0.79660868741E+02  0.00000000000E+00 0. -1.
        -11    1    6    6    0    0 -0.84194872640E+01 -0.33088692531E+02 -0.16687615201E+02  0.38002971466E+02  0.00000000000E+00 0.  1.
          5    1    5    5  501    0  0.11741734911E+03  0.75556462815E+02  0.17740900285E+02  0.14082770497E+03  0.47000000000E+01 0. -1.
         13    1    4    4    0    0 -0.35125394740E+02  0.35020693740E+02 -0.33366071158E+02  0.59779068663E+02  0.00000000000E+00 0. -1.
        -14    1    4    4    0    0  0.13158991583E+02 -0.29577609248E+02 -0.98949335508E+01  0.33851199953E+02  0.00000000000E+00 0.  1.
         -5    1    3    3    0  503 -0.15897059931E+03 -0.53314904455E+02 -0.24047121988E+02  0.16945348789E+03  0.47000000000E+01 0.  1.
</event>
<event>
12    1  0.9749377E-001  0.3214905E+03  0.7818608E-02  0.1074965E+00
         21   -1    0    0  503  502  0.00000000000E+00  0.00000000000E+00  0.54376075575E+03  0.54376075575E+03  0.00000000000E+00 0. -1.
         21   -1    0    0  501  503 -0.00000000000E+00 -0.00000000000E+00 -0.26450245403E+03  0.26450245403E+03  0.00000000000E+00 0.  1.
          6    2    1    2  501    0  0.30043631064E+03  0.18603861510E+02  0.30287668481E+03  0.46082208156E+03  0.17324729216E+03 0.  0.
         24    2    3    3    0    0  0.28437082806E+03  0.35596451469E+02  0.20808125747E+03  0.36307183405E+03  0.79934171409E+02 0.  0.
         -6    2    1    2    0  502 -0.30043631064E+03 -0.18603861510E+02 -0.23618383098E+02  0.34744112821E+03  0.17189947395E+03 0.  0.
        -24    2    5    5    0    0 -0.12900824607E+03 -0.53304509713E+02 -0.63139084450E+02  0.16806528775E+03  0.69100641474E+02 0.  0.
         14    1    4    4    0    0  0.61601227549E+02 -0.11674433205E+02  0.14904731384E+02  0.64444973767E+02  0.00000000000E+00 0. -1.
        -13    1    4    4    0    0  0.22276960051E+03  0.47270884675E+02  0.19317652608E+03  0.29862686028E+03  0.00000000000E+00 0.  1.
          5    1    3    3  501    0  0.16065482575E+02 -0.16992589959E+02  0.94795427345E+02  0.97750247516E+02  0.47000000000E+01 0. -1.
         11    1    6    6    0    0 -0.67211473040E+02  0.67661788999E+01 -0.41239033095E+02  0.79144305770E+02  0.00000000000E+00 0. -1.
        -12    1    6    6    0    0 -0.61796773033E+02 -0.60070688613E+02 -0.21900051355E+02  0.88920981984E+02  0.00000000000E+00 0.  1.
         -5    1    5    5    0  502 -0.17142806456E+03  0.34700648203E+02  0.39520701352E+02  0.17937584046E+03  0.47000000000E+01 0.  1.
</event>
<event>
12    1  0.9749377E-001  0.3419070E+03  0.7818608E-02  0.1065987E+00
         21   -1    0    0  503  502  0.00000000000E+00  0.00000000000E+00  0.12730511606E+03  0.12730511606E+03  0.00000000000E+00 0. -1.
         21   -1    0    0  501  503 -0.00000000000E+00 -0.00000000000E+00 -0.97183472115E+03  0.97183472115E+03  0.00000000000E+00 0.  1.
          6    2    1    2  501    0 -0.28999066108E+03 -0.99798002156E+02 -0.42756724699E+03  0.55373316440E+03  0.17248896169E+03 0.  0.
         24    2    3    3    0    0 -0.12163061265E+03 -0.61959407274E+01 -0.11021296498E+03  0.18246199379E+03  0.79454930080E+02 0.  0.
         -6    2    1    2    0  502  0.28999066108E+03  0.99798002156E+02 -0.41696235811E+03  0.54540667281E+03  0.17192034760E+03 0.  0.
        -24    2    5    5    0    0  0.30785131776E+03  0.93667998604E+02 -0.39496734629E+03  0.51603916449E+03  0.82164997684E+02 0.  0.
         14    1    4    4    0    0 -0.96148000585E+02  0.24962423352E+02 -0.53237203120E+02  0.11270208690E+03  0.00000000000E+00 0. -1.
        -13    1    4    4    0    0 -0.25482612065E+02 -0.31158364080E+02 -0.56975761862E+02  0.69759906892E+02  0.00000000000E+00 0.  1.
          5    1    3    3  501    0 -0.16836004843E+03 -0.93602061429E+02 -0.31735428201E+03  0.37127117060E+03  0.47000000000E+01 0. -1.
         11    1    6    6    0    0  0.26131881955E+03  0.10892224087E+03 -0.33421198014E+03  0.43800596763E+03  0.00000000000E+00 0. -1.
        -12    1    6    6    0    0  0.46532498205E+02 -0.15254242269E+02 -0.60755366147E+02  0.78033196860E+02  0.00000000000E+00 0.  1.
         -5    1    5    5    0  502 -0.17860656671E+02  0.61300035521E+01 -0.21995011815E+02  0.29367508322E+02  0.47000000000E+01 0.  1.
</event>
<event>
12    1  0.9749377E-001  0.2473562E+03  0.7818608E-02  0.1114987E+00
         21   -1    0    0  501  502  0.00000000000E+00  0.00000000000E+00  0.97009537034E+03  0.97009537034E+03  0.00000000000E+00 0.  1.
         21   -1    0    0  502  503 -0.00000000000E+00 -0.00000000000E+00 -0.89197440278E+02  0.89197440278E+02  0.00000000000E+00 0. -1.
         -6    2    1    2    0  503  0.20230269741E+03  0.73954500089E+02  0.63400740173E+03  0.68942077083E+03  0.16413398290E+03 0.  0.
        -24    2    3    3    0    0  0.21153334788E+03  0.36773417112E+02  0.57522819776E+03  0.61910204886E+03  0.79380261658E+02 0.  0.
          6    2    1    2  501    0 -0.20230269741E+03 -0.73954500089E+02  0.24689052834E+03  0.36987203979E+03  0.17162384268E+03 0.  0.
         24    2    5    5    0    0 -0.26772902140E+02 -0.17685012902E+02  0.46530528338E+02  0.97579579715E+02  0.79543298521E+02 0.  0.
         14    1    6    6    0    0  0.10975677843E+02  0.50188657186E+01 -0.16646825599E+02  0.20561403642E+02  0.00000000000E+00 0. -1.
        -13    1    6    6    0    0 -0.37748579984E+02 -0.22703878620E+02  0.63177353937E+02  0.77018176073E+02  0.00000000000E+00 0.  1.
          5    1    5    5  501    0 -0.17552979527E+03 -0.56269487188E+02  0.20036000000E+03  0.27229246008E+03  0.47000000000E+01 0. -1.
         13    1    4    4    0    0  0.15441278401E+03  0.17882416850E+02  0.49492259130E+03  0.51875953975E+03  0.00000000000E+00 0. -1.
        -14    1    4    4    0    0  0.57120563868E+02  0.18891000262E+02  0.80305606457E+02  0.10034250912E+03  0.00000000000E+00 0.  1.
         -5    1    3    3    0  503 -0.92306504725E+01  0.37181082978E+02  0.58779203972E+02  0.70318721968E+02  0.47000000000E+01 0.  1.
</event>
<event>
12    1  0.9749377E-001  0.5031665E+03  0.7818608E-02  0.1012956E+00
         21   -1    0    0  501  502  0.00000000000E+00  0.00000000000E+00  0.11135950599E+04  0.11135950599E+04  0.00000000000E+00 0. -1.
         21   -1    0    0  502  503 -0.00000000000E+00 -0.00000000000E+00 -0.52025847683E+03  0.52025847683E+03  0.00000000000E+00 0.  1.
         -6    2    1    2    0  503 -0.68205617599E+02 -0.48215339504E+03  0.89657363814E+03  0.10347699086E+04  0.17257048538E+03 0.  0.
        -24    2    3    3    0    0 -0.39744805254E+02 -0.16492736666E+03  0.23414236512E+03  0.29973273099E+03  0.78970735511E+02 0.  0.
          6    2    1    2  501    0  0.68205617599E+02  0.48215339504E+03 -0.30323705507E+03  0.59908362818E+03  0.17269794255E+03 0.  0.
         24    2    5    5    0    0  0.10210332275E+03  0.41523090565E+03 -0.22174057115E+03  0.48821685726E+03  0.79655667088E+02 0.  0.
         12    1    6    6    0    0  0.96460354310E+02  0.29798584718E+03 -0.19109144931E+03  0.36690067740E+03  0.00000000000E+00 0. -1.
        -11    1    6    6    0    0  0.56429684442E+01  0.11724505847E+03 -0.30649121833E+02  0.12131617986E+03  0.00000000000E+00 0.  1.
          5    1    5    5  501    0 -0.33897705155E+02  0.66922489390E+02 -0.81496483927E+02  0.11086677092E+03  0.47000000000E+01 0. -1.
         13    1    4    4    0    0  0.12936914678E+02 -0.87139427427E+02  0.14819231613E+03  0.17239955375E+03  0.00000000000E+00 0. -1.
        -14    1    4    4    0    0 -0.52681719932E+02 -0.77787939236E+02  0.85950048984E+02  0.12733317724E+03  0.00000000000E+00 0.  1.
         -5    1    3    3    0  503 -0.28460812345E+02 -0.31722602838E+03  0.66243127302E+03  0.73503717756E+03  0.47000000000E+01 0.  1.
</event>
<event>
12    1  0.9749377E-001  0.4009636E+03  0.7818608E-02  0.1043447E+00
         21   -1    0    0  501  502  0.00000000000E+00  0.00000000000E+00  0.15335065849E+04  0.15335065849E+04  0.00000000000E+00 0. -1.
         21   -1    0    0  502  503 -0.00000000000E+00 -0.00000000000E+00 -0.11673492269E+03  0.11673492269E+03  0.00000000000E+00 0.  1.
         -6    2    1    2    0  503 -0.19001231919E+03  0.33176582685E+03  0.57456193403E+03  0.70943923691E+03  0.16434527535E+03 0.  0.
        -24    2    3    3    0    0 -0.12075823986E+03  0.25238464009E+03  0.50481875148E+03  0.58301257111E+03  0.82347599701E+02 0.  0.
          6    2    1    2  501    0  0.19001231919E+03 -0.33176582685E+03  0.84220972818E+03  0.94080227068E+03  0.17210008997E+03 0.  0.
         24    2    5    5    0    0  0.55587162935E+02 -0.15609123595E+03  0.50283397460E+03  0.53567306088E+03  0.81542721983E+02 0.  0.
         14    1    6    6    0    0  0.75483845212E+02 -0.10621314561E+03  0.37603815216E+03  0.39797454073E+03  0.00000000000E+00 0. -1.
        -13    1    6    6    0    0 -0.19896682277E+02 -0.49878090334E+02  0.12679582245E+03  0.13769852015E+03  0.00000000000E+00 0.  1.
          5    1    5    5  501    0  0.13442515625E+03 -0.17567459090E+03  0.33937575357E+03  0.40512920980E+03  0.47000000000E+01 0. -1.
         13    1    4    4    0    0 -0.80395274397E+02  0.77253074671E+02  0.17798927789E+03  0.21002766659E+03  0.00000000000E+00 0. -1.
        -14    1    4    4    0    0 -0.40362965461E+02  0.17513156542E+03  0.32682947360E+03  0.37298490452E+03  0.00000000000E+00 0.  1.
         -5    1    3    3    0  503 -0.69254079329E+02  0.79381186755E+02  0.69743182548E+02  0.12642666580E+03  0.47000000000E+01 0.  1.
</event>
<event>
12    1  0.9749377E-001  0.2494940E+03  0.7818608E-02  0.1113625E+00
         21   -1    0    0  503  502  0.00000000000E+00  0.00000000000E+00  0.21287691272E+03  0.21287691272E+03  0.00000000000E+00 0.  1.
         21   -1    0    0  501  503 -0.00000000000E+00 -0.00000000000E+00 -0.38167228099E+03  0.38167228099E+03  0.00000000000E+00 0. -1.
          6    2    1    2  501    0 -0.15883888091E+03  0.15257101573E+03 -0.23740947651E+02  0.27964289373E+03  0.17067164525E+03 0.  0.
         24    2    3    3    0    0 -0.14819443692E+03  0.88638319665E+02 -0.68284402349E+02  0.20085899201E+03  0.76571745576E+02 0.  0.
         -6    2    1    2    0  502  0.15883888091E+03 -0.15257101573E+03 -0.14505442062E+03  0.31490629998E+03  0.17209732100E+03 0.  0.
        -24    2    5    5    0    0  0.14209080285E+02 -0.20936342849E+02 -0.39992232946E+02  0.92857612500E+02  0.79893235563E+02 0.  0.
         12    1    4    4    0    0 -0.44950617902E+02 -0.94236784393E+01 -0.10021847146E+02  0.47008522475E+02  0.00000000000E+00 0. -1.
        -11    1    4    4    0    0 -0.10324381902E+03  0.98061998104E+02 -0.58262555203E+02  0.15385046954E+03  0.00000000000E+00 0.  1.
          5    1    3    3  501    0 -0.10644443988E+02  0.63932696063E+02  0.44543454699E+02  0.78783901720E+02  0.47000000000E+01 0. -1.
         11    1    6    6    0    0  0.22275804246E+02 -0.30362635248E+02 -0.59098458182E+02  0.70076592622E+02  0.00000000000E+00 0. -1.
        -12    1    6    6    0    0 -0.80667239611E+01  0.94262923991E+01  0.19106225237E+02  0.22781019877E+02  0.00000000000E+00 0.  1.
         -5    1    5    5    0  502  0.14462980062E+03 -0.13163467288E+03 -0.10506218768E+03  0.22204868748E+03  0.47000000000E+01 0.  1.
</event>
<event>
12    1  0.9749377E-001  0.1862614E+03  0.7818608E-02  0.1161877E+00
         21   -1    0    0  503  502  0.00000000000E+00  0.00000000000E+00  0.19445767151E+03  0.19445767151E+03  0.00000000000E+00 0.  1.
         21   -1    0    0  501  503 -0.00000000000E+00 -0.00000000000E+00 -0.41456989474E+03  0.41456989474E+03  0.00000000000E+00 0. -1.
          6    2    1    2  501    0  0.12545577910E+03 -0.11381543167E+02  0.95195950957E+02  0.23016921065E+03  0.16747210041E+03 0.  0.
         24    2    3    3    0    0  0.50623670589E+02  0.27764385006E+02 -0.47904534839E+01  0.99205020007E+02  0.80529935126E+02 0.  0.
         -6    2    1    2    0  502 -0.12545577910E+03  0.11381543167E+02 -0.31530817418E+03  0.37885835560E+03  0.16806462110E+03 0.  0.
        -24    2    5    5    0    0 -0.11758710998E+03 -0.49051009019E+02 -0.23188685724E+03  0.27544068091E+03  0.76572346321E+02 0.  0.
         12    1    4    4    0    0  0.94136776724E+01  0.37968832833E+02  0.25815125075E+02  0.46868649188E+02  0.00000000000E+00 0. -1.
        -11    1    4    4    0    0  0.41209992916E+02 -0.10204447827E+02 -0.30605578559E+02  0.52336370819E+02  0.00000000000E+00 0.  1.
          5    1    3    3  501    0  0.74832108512E+02 -0.39145928173E+02  0.99986404441E+02  0.13096419064E+03  0.47000000000E+01 0. -1.
         13    1    6    6    0    0 -0.51769124369E+02 -0.59204727905E+02 -0.15433670125E+03  0.17321968536E+03  0.00000000000E+00 0. -1.
        -14    1    6    6    0    0 -0.65817985610E+02  0.10153718886E+02 -0.77550155994E+02  0.10222099555E+03  0.00000000000E+00 0.  1.
         -5    1    5    5    0  502 -0.78686691216E+01  0.60432552185E+02 -0.83421316940E+02  0.10341767469E+03  0.47000000000E+01 0.  1.
</event>
<event>
12    1  0.9749377E-001  0.1334736E+03  0.7818608E-02  0.1222391E+00
         21   -1    0    0  503  502  0.00000000000E+00  0.00000000000E+00  0.21316365952E+03  0.21316365952E+03  0.00000000000E+00 0. -1.
         21   -1    0    0  501  503 -0.00000000000E+00 -0.00000000000E+00 -0.27358952352E+03  0.27358952352E+03  0.00000000000E+00 0.  1.
          6    2    1    2  501    0  0.13346437291E+02 -0.97875391294E+02  0.10502991276E+03  0.22798003211E+03  0.17659527983E+03 0.  0.
         24    2    3    3    0    0  0.22222815475E+02 -0.78006661069E+02 -0.62454195069E+01  0.11449943420E+03  0.80574328849E+02 0.  0.
         -6    2    1    2    0  502 -0.13346437291E+02  0.97875391294E+02 -0.16545577676E+03  0.25877315092E+03  0.17271424367E+03 0.  0.
        -24    2    5    5    0    0 -0.27031637187E+02  0.63336020348E+02 -0.18555614319E+02  0.10717499603E+03  0.80000050429E+02 0.  0.
         14    1    4    4    0    0 -0.21177292300E+02 -0.18689987093E+02 -0.26002544975E+02  0.38391739631E+02  0.00000000000E+00 0. -1.
        -13    1    4    4    0    0  0.43400107776E+02 -0.59316673976E+02  0.19757125468E+02  0.76107694574E+02  0.00000000000E+00 0.  1.
          5    1    3    3  501    0 -0.88763781843E+01 -0.19868730224E+02  0.11127533227E+03  0.11348059791E+03  0.47000000000E+01 0. -1.
         13    1    6    6    0    0  0.23530771351E+02  0.46648740620E+02 -0.11056395221E+02  0.53404551090E+02  0.00000000000E+00 0. -1.
        -14    1    6    6    0    0 -0.50562408539E+02  0.16687279728E+02 -0.74992190975E+01  0.53770444940E+02  0.00000000000E+00 0.  1.
         -5    1    5    5    0  502  0.13685199896E+02  0.34539370946E+02 -0.14690016244E+03  0.15159815489E+03  0.47000000000E+01 0.  1.
</event>
<event>
12    1  0.9749377E-001  0.3671312E+03  0.7818608E-02  0.1055795E+00
         21   -1    0    0  501  502  0.00000000000E+00  0.00000000000E+00  0.47638798522E+03  0.47638798522E+03  0.00000000000E+00 0.  1.
         21   -1    0    0  502  503 -0.00000000000E+00 -0.00000000000E+00 -0.35601290449E+03  0.35601290449E+03  0.00000000000E+00 0. -1.
         -6    2    1    2    0  503  0.31494676076E+03  0.10879434320E+03 -0.11203975219E+03  0.39141111373E+03  0.17211066979E+03 0.  0.
        -24    2    3    3    0    0  0.82469943518E+02  0.77689787322E+02 -0.35730773964E+02  0.14471673984E+03  0.82639288134E+02 0.  0.
          6    2    1    2  501    0 -0.31494676076E+03 -0.10879434320E+03  0.23241483292E+03  0.44098977598E+03  0.17154491170E+03 0.  0.
         24    2    5    5    0    0 -0.13301604201E+03 -0.96491208808E+02  0.67949672821E+02  0.19538637122E+03  0.80962060337E+02 0.  0.
         12    1    6    6    0    0 -0.91740738469E+02 -0.10150647649E+03  0.32216758234E+02  0.14056261016E+03  0.00000000000E+00 0. -1.
        -11    1    6    6    0    0 -0.41275303539E+02  0.50152676790E+01  0.35732914588E+02  0.54823761062E+02  0.00000000000E+00 0.  1.
          5    1    5    5  501    0 -0.18193071875E+03 -0.12303134392E+02  0.16446516010E+03  0.24560340476E+03  0.47000000000E+01 0. -1.
         11    1    4    4    0    0  0.27582278036E+02 -0.14806157525E+02  0.23941643423E+00  0.31305936858E+02  0.00000000000E+00 0. -1.
        -12    1    4    4    0    0  0.54887665481E+02  0.92495944847E+02 -0.35970190398E+02  0.11341080298E+03  0.00000000000E+00 0.  1.
         -5    1    3    3    0  503  0.23247681724E+03  0.31104555879E+02 -0.76308978226E+02  0.24669437389E+03  0.47000000000E+01 0.  1.
</event>
<event>
12    1  0.9749377E-001  0.2741442E+03  0.7818608E-02  0.1098931E+00
         21   -1    0    0  501  502  0.00000000000E+00  0.00000000000E+00  0.39847844935E+03  0.39847844935E+03  0.00000000000E+00 0. -1.
         21   -1    0    0  502  503 -0.00000000000E+00 -0.00000000000E+00 -0.26230983532E+03  0.26230983532E+03  0.00000000000E+00 0.  1.
         -6    2    1    2    0  503 -0.13742637218E+01  0.25245097488E+03 -0.38630224918E+02  0.30772664662E+03  0.17166831811E+03 0.  0.
        -24    2    3    3    0    0  0.29047167829E+02  0.24577118821E+03 -0.62537182374E+02  0.26818280181E+03  0.82242939485E+02 0.  0.
          6    2    1    2  501    0  0.13742637218E+01 -0.25245097488E+03  0.17479883896E+03  0.35306163805E+03  0.17425413293E+03 0.  0.
         24    2    5    5    0    0  0.23022295943E+02 -0.88513314878E+02  0.13757178045E+03  0.18349708529E+03  0.79878360733E+02 0.  0.
         14    1    6    6    0    0 -0.29933958768E+01 -0.72351586726E+02  0.13445097925E+03  0.15271142178E+03  0.00000000000E+00 0. -1.
        -13    1    6    6    0    0  0.26015691820E+02 -0.16161728152E+02  0.31208011984E+01  0.30785663512E+02  0.00000000000E+00 0.  1.
          5    1    5    5  501    0 -0.21648032221E+02 -0.16393766000E+03  0.37227058507E+02  0.16956455276E+03  0.47000000000E+01 0. -1.
         11    1    4    4    0    0  0.17707709129E+02  0.70712814981E+02  0.18103260213E+02  0.75110539843E+02  0.00000000000E+00 0. -1.
        -12    1    4    4    0    0  0.11339458700E+02  0.17505837323E+03 -0.80640442586E+02  0.19307226197E+03  0.00000000000E+00 0.  1.
         -5    1    3    3    0  503 -0.30421431551E+02  0.66797866725E+01  0.23906957455E+02  0.39543844810E+02  0.47000000000E+01 0.  1.
</event>
<event>
12    1  0.9749377E-001  0.9114608E+03  0.7818608E-02  0.9411367E-01
         21   -1    0    0  503  502  0.00000000000E+00  0.00000000000E+00  0.78321396083E+03  0.78321396083E+03  0.00000000000E+00 0. -1.
         21   -1    0    0  501  503 -0.00000000000E+00 -0.00000000000E+00 -0.11908928319E+04  0.11908928319E+04  0.00000000000E+00 0.  1.
          6    2    1    2  501    0 -0.61262108536E+03 -0.66820111151E+03 -0.49589225954E+03  0.10476641145E+04  0.17289778481E+03 0.  0.
         24    2    3    3    0    0 -0.21519456326E+03 -0.18717158672E+03 -0.19982490651E+03  0.35700123597E+03  0.78600167236E+02 0.  0.
         -6    2    1    2    0  502  0.61262108536E+03  0.66820111151E+03  0.88213388493E+02  0.92644267826E+03  0.16946124790E+03 0.  0.
        -24    2    5    5    0    0  0.35302040405E+03  0.39506696843E+03  0.11725669395E+03  0.54847392631E+03  0.79832326487E+02 0.  0.
         12    1    4    4    0    0 -0.23866269858E+02  0.96303158610E+00 -0.34051384227E+02  0.41593545588E+02  0.00000000000E+00 0. -1.
        -11    1    4    4    0    0 -0.19132829340E+03 -0.18813461831E+03 -0.16577352228E+03  0.31540769038E+03  0.00000000000E+00 0.  1.
          5    1    3    3  501    0 -0.39742652211E+03 -0.48102952478E+03 -0.29606735303E+03  0.69066287849E+03  0.47000000000E+01 0. -1.
         13    1    6    6    0    0  0.98869053896E+02  0.10552873809E+03 -0.37526582288E+01  0.14465644412E+03  0.00000000000E+00 0. -1.
        -14    1    6    6    0    0  0.25415135015E+03  0.28953823034E+03  0.12100935218E+03  0.40381748219E+03  0.00000000000E+00 0.  1.
         -5    1    5    5    0  502  0.25960068132E+03  0.27313414308E+03 -0.29043305460E+02  0.37796875195E+03  0.47000000000E+01 0.  1.
</event>
<event>
12    1  0.9749377E-001  0.8027136E+03  0.7818608E-02  0.9556098E-01
         21   -1    0    0  501  502  0.00000000000E+00  0.00000000000E+00  0.10245293039E+04  0.10245293039E+04  0.00000000000E+00 0. -1.
         21   -1    0    0  502  503 -0.00000000000E+00 -0.00000000000E+00 -0.69116054750E+03  0.69116054750E+03  0.00000000000E+00 0.  1.
         -6    2    1    2    0  503 -0.46772431885E+03  0.64641023216E+03  0.37367899992E+03  0.89752728128E+03  0.17119287069E+03 0.  0.
        -24    2    3    3    0    0 -0.29332378046E+03  0.40130248239E+03  0.15880266669E+03  0.52781484523E+03  0.79295027210E+02 0.  0.
          6    2    1    2  501    0  0.46772431885E+03 -0.64641023216E+03 -0.40310243566E+02  0.81816257008E+03  0.17650169591E+03 0.  0.
         24    2    5    5    0    0  0.39934985366E+03 -0.60921898673E+03 -0.65893230456E+02  0.73609652689E+03  0.82873998745E+02 0.  0.
         14    1    6    6    0    0  0.23489981590E+03 -0.35188269129E+03  0.27082551193E+01  0.42309181815E+03  0.00000000000E+00 0. -1.
        -13    1    6    6    0    0  0.16445003776E+03 -0.25733629544E+03 -0.68601485575E+02  0.31300470874E+03  0.00000000000E+00 0.  1.
          5    1    5    5  501    0  0.68374465191E+02 -0.37191245430E+02  0.25582986890E+02  0.82066043191E+02  0.47000000000E+01 0. -1.
         11    1    4    4    0    0 -0.11272563568E+03  0.18121641238E+03  0.30663211590E+02  0.21560772157E+03  0.00000000000E+00 0. -1.
        -12    1    4    4    0    0 -0.18059814479E+03  0.22008607001E+03  0.12813945510E+03  0.31220712366E+03  0.00000000000E+00 0.  1.
         -5    1    3    3    0  503 -0.17440053839E+03  0.24510774976E+03  0.21487633323E+03  0.36971243605E+03  0.47000000000E+01 0.  1.
</event>
<event>
12    1  0.9749377E-001  0.3626948E+03  0.7818608E-02  0.1057522E+00
         21   -1    0    0  503  502  0.00000000000E+00  0.00000000000E+00  0.81917184018E+03  0.81917184018E+03  0.00000000000E+00 0. -1.
         21   -1    0    0  501  503 -0.00000000000E+00 -0.00000000000E+00 -0.22453802536E+03  0.22453802536E+03  0.00000000000E+00 0.  1.
          6    2    1    2  501    0  0.12886274621E+03 -0.30949047866E+03  0.49953377866E+02  0.38132835886E+03  0.17471695272E+03 0.  0.
         24    2    3    3    0    0  0.13823626970E+03 -0.14075441178E+03  0.24571114377E+02  0.21037201207E+03  0.68786431098E+02 0.  0.
         -6    2    1    2    0  502 -0.12886274621E+03  0.30949047866E+03  0.54468043695E+03  0.66238150667E+03  0.17228615221E+03 0.  0.
        -24    2    5    5    0    0 -0.14325418770E+03  0.30623607907E+03  0.54630566406E+03  0.64681114804E+03  0.74916515113E+02 0.  0.
         12    1    4    4    0    0  0.90744939020E+02 -0.74202369941E+02 -0.17340471067E+02  0.11849610795E+03  0.00000000000E+00 0. -1.
        -11    1    4    4    0    0  0.47491330679E+02 -0.66552041838E+02  0.41911585444E+02  0.91875904115E+02  0.00000000000E+00 0.  1.
          5    1    3    3  501    0 -0.93735234878E+01 -0.16873606689E+03  0.25382263489E+02  0.17095634680E+03  0.47000000000E+01 0. -1.
         11    1    6    6    0    0 -0.89848029805E+02  0.13239733948E+03  0.30756524775E+03  0.34669598438E+03  0.00000000000E+00 0. -1.
        -12    1    6    6    0    0 -0.53406157890E+02  0.17383873959E+03  0.23874041630E+03  0.30011516366E+03  0.00000000000E+00 0.  1.
         -5    1    5    5    0  502  0.14391441484E+02  0.32543995933E+01 -0.16252271068E+01  0.15570358630E+02  0.47000000000E+01 0.  1.
</event>
<event>
12    1  0.9749377E-001  0.6988086E+03  0.7818608E-02  0.9719272E-01
         21   -1    0    0  503  502  0.00000000000E+00  0.00000000000E+00  0.40712197096E+03  0.40712197096E+03  0.00000000000E+00 0. -1.
         21   -1    0    0  501  503 -0.00000000000E+00 -0.00000000000E+00 -0.12639067679E+04  0.12639067679E+04  0.00000000000E+00 0.  1.
          6    2    1    2  501    0 -0.28463497582E+03  0.63082743277E+03 -0.51791299284E+03  0.88219270924E+03  0.17626624375E+03 0.  0.
         24    2    3    3    0    0 -0.20026596933E+03  0.50927772415E+03 -0.47039540571E+03  0.72671772087E+03  0.85886840252E+02 0.  0.
         -6    2    1    2    0  502  0.28463497582E+03 -0.63082743277E+03 -0.33887180410E+03  0.78883602963E+03  0.16872422067E+03 0.  0.
        -24    2    5    5    0    0  0.21992694864E+03 -0.55500966838E+03 -0.24040309347E+03  0.64864459212E+03  0.80886122463E+02 0.  0.
         12    1    4    4    0    0 -0.38520082721E+02  0.11872328383E+03 -0.15659794018E+03  0.20025466228E+03  0.00000000000E+00 0. -1.
        -11    1    4    4    0    0 -0.16174588661E+03  0.39055444032E+03 -0.31379746553E+03  0.52646305859E+03  0.00000000000E+00 0.  1.
          5    1    3    3  501    0 -0.84369006492E+02  0.12154970862E+03 -0.47517587138E+02  0.15547498837E+03  0.47000000000E+01 0. -1.
         13    1    6    6    0    0  0.62667007729E+02 -0.26545490706E+03 -0.11709309907E+03  0.29682360989E+03  0.00000000000E+00 0. -1.
        -14    1    6    6    0    0  0.15725994091E+03 -0.28955476132E+03 -0.12330999440E+03  0.35182098223E+03  0.00000000000E+00 0.  1.
         -5    1    5    5    0  502  0.64708027180E+02 -0.75817764391E+02 -0.98468710629E+02  0.14019143751E+03  0.47000000000E+01 0.  1.
</event>
<event>
12    1  0.9749377E-001  0.2747771E+03  0.7818608E-02  0.1098576E+00
         21   -1    0    0  501  502  0.00000000000E+00  0.00000000000E+00  0.35471871404E+03  0.35471871404E+03  0.00000000000E+00 0.  1.
         21   -1    0    0  502  503 -0.00000000000E+00 -0.00000000000E+00 -0.24695542106E+03  0.24695542106E+03  0.00000000000E+00 0. -1.
         -6    2    1    2    0  503  0.52819177397E+02  0.22274597972E+03 -0.23791625266E+02  0.28647928019E+03  0.17058340940E+03 0.  0.
        -24    2    3    3    0    0  0.72814540852E+02  0.59171030934E+02  0.40423861083E+01  0.11928657515E+03  0.73551192135E+02 0.  0.
          6    2    1    2  501    0 -0.52819177397E+02 -0.22274597972E+03  0.13155491825E+03  0.31519485491E+03  0.17214953693E+03 0.  0.
         24    2    5    5    0    0 -0.81532097811E+02 -0.21519805850E+03  0.14474608669E+03  0.28236956225E+03  0.76311550348E+02 0.  0.
         12    1    6    6    0    0 -0.77438039621E+02 -0.13816541445E+03  0.64378431409E+02  0.17097050670E+03  0.00000000000E+00 0. -1.
        -11    1    6    6    0    0 -0.40940581906E+01 -0.77032644052E+02  0.80367655281E+02  0.11139905555E+03  0.00000000000E+00 0.  1.
          5    1    5    5  501    0  0.28712920415E+02 -0.75479212176E+01 -0.13191168443E+02  0.32825292662E+02  0.47000000000E+01 0. -1.
         11    1    4    4    0    0  0.25751468031E+02  0.66652776696E+02 -0.81154154971E-01  0.71454442360E+02  0.00000000000E+00 0. -1.
        -12    1    4    4    0    0  0.47063072821E+02 -0.74817457617E+01  0.41235402633E+01  0.47832132790E+02  0.00000000000E+00 0.  1.
         -5    1    3    3    0  503 -0.19995363455E+02  0.16357494878E+03 -0.27834011374E+02  0.16719270504E+03  0.47000000000E+01 0.  1.
</event>
<event>
12    1  0.9749377E-001  0.2979820E+03  0.7818608E-02  0.1086254E+00
         21   -1    0    0  501  502  0.00000000000E+00  0.00000000000E+00  0.80724966323E+03  0.80724966323E+03  0.00000000000E+00 0.  1.
         21   -1    0    0  502  503 -0.00000000000E+00 -0.00000000000E+00 -0.13768531433E+03  0.13768531433E+03  0.00000000000E+00 0. -1.
         -6    2    1    2    0  503 -0.15148470063E+03 -0.22743061852E+03  0.22189880746E+03  0.39392413496E+03  0.17681867148E+03 0.  0.
        -24    2    3    3    0    0 -0.58852117702E+02 -0.43436664266E+02  0.27335497008E+02  0.11053122327E+03  0.78227912917E+02 0.  0.
          6    2    1    2  501    0  0.15148470063E+03  0.22743061852E+03  0.44766554144E+03  0.55101084260E+03  0.16892664355E+03 0.  0.
         24    2    5    5    0    0  0.94006435540E+02  0.50519066366E+02  0.15956336385E+03  0.20804378445E+03  0.80202014779E+02 0.  0.
         14    1    6    6    0    0  0.36485564793E+02  0.30202394944E+02  0.13359574612E+03  0.14174344599E+03  0.00000000000E+00 0. -1.
        -13    1    6    6    0    0  0.57520870747E+02  0.20316671421E+02  0.25967617725E+02  0.66300338457E+02  0.00000000000E+00 0.  1.
          5    1    5    5  501    0  0.57478265088E+02  0.17691155216E+03  0.28810217759E+03  0.34296705815E+03  0.47000000000E+01 0. -1.
         13    1    4    4    0    0 -0.34555074576E+02 -0.57730795285E+02 -0.51990734829E+01  0.67482799795E+02  0.00000000000E+00 0. -1.
        -14    1    4    4    0    0 -0.24297043126E+02  0.14294131019E+02  0.32534570491E+02  0.43048423470E+02  0.00000000000E+00 0.  1.
         -5    1    3    3    0  503 -0.92632582927E+02 -0.18399395426E+03  0.19456331045E+03  0.28339291169E+03  0.47000000000E+01 0.  1.
</event>
<event>
12    1  0.9749377E-001  0.7623595E+03  0.7818608E-02  0.9616157E-01
         21   -1    0    0  501  502  0.00000000000E+00  0.00000000000E+00  0.38503109794E+03  0.38503109794E+03  0.00000000000E+00 0. -1.
         21   -1    0    0  502  503 -0.00000000000E+00 -0.00000000000E+00 -0.16302039185E+04  0.16302039185E+04  0.00000000000E+00 0.  1.
         -6    2    1    2    0  503  0.73258411675E+03 -0.14903542056E+03 -0.87541264954E+03  0.11637542469E+04  0.17054499552E+03 0.  0.
        -24    2    3    3    0    0  0.50049957847E+03 -0.14900872198E+03 -0.57913586208E+03  0.78736979130E+03  0.10885501476E+03 0.  0.
          6    2    1    2  501    0 -0.73258411675E+03  0.14903542056E+03 -0.36976017103E+03  0.85148076957E+03  0.17148140472E+03 0.  0.
         24    2    5    5    0    0 -0.56933158537E+03  0.62259207011E+02 -0.24370639666E+03  0.62766579179E+03  0.80974535890E+02 0.  0.
         14    1    6    6    0    0 -0.89727101100E+02 -0.55346177322E+01 -0.66798771232E+02  0.11199848438E+03  0.00000000000E+00 0. -1.
        -13    1    6    6    0    0 -0.47960448427E+03  0.67793824743E+02 -0.17690762543E+03  0.51566730742E+03  0.00000000000E+00 0.  1.
          5    1    5    5  501    0 -0.16325253138E+03  0.86776213547E+02 -0.12605377438E+03  0.22381497777E+03  0.47000000000E+01 0. -1.
         11    1    4    4    0    0  0.17554782466E+03 -0.10733553002E+03 -0.21768037129E+03  0.29953747477E+03  0.00000000000E+00 0. -1.
        -12    1    4    4    0    0  0.32495175381E+03 -0.41673191960E+02 -0.36145549078E+03  0.48783231653E+03  0.00000000000E+00 0.  1.
         -5    1    3    3    0  503  0.23208453828E+03 -0.26698576149E-01 -0.29627678747E+03  0.37638445559E+03  0.47000000000E+01 0.  1.
</event>
<event>
12    1  0.9749377E-001  0.5185895E+03  0.7818608E-02  0.1009038E+00
         21   -1    0    0  503  502  0.00000000000E+00  0.00000000000E+00  0.20102256857E+03  0.20102256857E+03  0.00000000000E+00 0.  1.
         21   -1    0    0  501  503 -0.00000000000E+00 -0.00000000000E+00 -0.20710687004E+04  0.20710687004E+04  0.00000000000E+00 0. -1.
          6    2    1    2  501    0 -0.45182708672E+03  0.23903903814E+03 -0.15588179903E+04  0.16495522980E+04  0.17269012419E+03 0.  0.
         24    2    3    3    0    0 -0.39770184244E+03  0.23005562570E+03 -0.14906401040E+04  0.15619135056E+04  0.80458267009E+02 0.  0.
         -6    2    1    2    0  502  0.45182708672E+03 -0.23903903814E+03 -0.31122814157E+03  0.62253897099E+03  0.17147721784E+03 0.  0.
        -24    2    5    5    0    0  0.35060267970E+03 -0.15169574231E+03 -0.16392515991E+03  0.42355281491E+03  0.81189234010E+02 0.  0.
         14    1    4    4    0    0 -0.34284374403E+03  0.16343835041E+03 -0.12369552454E+04  0.12939521654E+04  0.00000000000E+00 0. -1.
        -13    1    4    4    0    0 -0.54858098417E+02  0.66617275295E+02 -0.25368485858E+03  0.26796134013E+03  0.00000000000E+00 0.  1.
          5    1    3    3  501    0 -0.54125244280E+02  0.89834124355E+01 -0.68177886261E+02  0.87638792451E+02  0.47000000000E+01 0. -1.
         13    1    6    6    0    0  0.28400078178E+03 -0.12827599684E+03 -0.16567877541E+03  0.35293148349E+03  0.00000000000E+00 0. -1.
        -14    1    6    6    0    0  0.66601897918E+02 -0.23419745467E+02  0.17536154980E+01  0.70621331419E+02  0.00000000000E+00 0.  1.
         -5    1    5    5    0  502  0.10122440702E+03 -0.87343295830E+02 -0.14730298166E+03  0.19898615608E+03  0.47000000000E+01 0.  1.
</event>
<event>
12    1  0.1307817E+000  0.1147545E+04  0.7818608E-02  0.9160051E-01
         21   -1    0    0  503  502  0.00000000000E+00  0.00000000000E+00  0.64532164466E+03  0.64532164466E+03  0.00000000000E+00 0.  1.
         21   -1    0    0  501  503 -0.00000000000E+00 -0.00000000000E+00 -0.21108628906E+04  0.21108628906E+04  0.00000000000E+00 0. -1.
          6    2    1    2  501    0  0.11371828768E+04  0.11461280773E+03 -0.53789262973E+03  0.12742609727E+04  0.16760535362E+03 0.  0.
         24    2    3    3    0    0  0.54077125396E+03  0.44071440763E+02 -0.31955816475E+03  0.63521876999E+03  0.83723497792E+02 0.  0.
         -6    2    1    2    0  502 -0.11371828768E+04 -0.11461280773E+03 -0.92764861625E+03  0.14819235626E+04  0.17101023102E+03 0.  0.
        -24    2    5    5    0    0 -0.45037535050E+03 -0.83017459230E+02 -0.34315228305E+03  0.57950409373E+03  0.91332636091E+02 0.  0.
         12    1    4    4    0    0  0.40782270676E+03  0.69224576653E+02 -0.24327523147E+03  0.47988982111E+03  0.00000000000E+00 0. -1.
        -11    1    4    4    0    0  0.13294854720E+03 -0.25153135889E+02 -0.76282933281E+02  0.15532894887E+03  0.00000000000E+00 0.  1.
          5    1    3    3  501    0  0.59641162282E+03  0.70541366963E+02 -0.21833446498E+03  0.63904220274E+03  0.47000000000E+01 0. -1.
         13    1    6    6    0    0 -0.27496733694E+03 -0.53178967600E+02 -0.26359347093E+03  0.38459921594E+03  0.00000000000E+00 0. -1.
        -14    1    6    6    0    0 -0.17540801356E+03 -0.29838491630E+02 -0.79558812114E+02  0.19490487779E+03  0.00000000000E+00 0.  1.
         -5    1    5    5    0  502 -0.68680752628E+03 -0.31595348497E+02 -0.58449633320E+03  0.90241946883E+03  0.47000000000E+01 0.  1.
</event>
<event>
12    1  0.9749377E-001  0.2694644E+03  0.7818608E-02  0.1101587E+00
         21   -1    0    0  501  502  0.00000000000E+00  0.00000000000E+00  0.79351060720E+03  0.79351060720E+03  0.00000000000E+00 0.  1.
         21   -1    0    0  502  503 -0.00000000000E+00 -0.00000000000E+00 -0.14874048707E+03  0.14874048707E+03  0.00000000000E+00 0. -1.
         -6    2    1    2    0  503 -0.16164306715E+03 -0.15667638955E+03  0.58945362745E+03  0.65380535126E+03  0.17125970400E+03 0.  0.
        -24    2    3    3    0    0 -0.33070072564E+02 -0.12337215267E+03  0.32256952901E+03  0.35566209855E+03  0.78295016111E+02 0.  0.
          6    2    1    2  501    0  0.16164306715E+03  0.15667638955E+03  0.55316492680E+02  0.28844574301E+03  0.17165389624E+03 0.  0.
         24    2    5    5    0    0  0.27969566111E+02  0.37935599666E+02  0.57307372080E+02  0.10957698200E+03  0.80632336808E+02 0.  0.
         14    1    6    6    0    0 -0.25485867313E+02  0.26439245231E+02  0.34320375710E+02  0.50263817105E+02  0.00000000000E+00 0. -1.
        -13    1    6    6    0    0  0.53455433423E+02  0.11496354435E+02  0.22986996370E+02  0.59313164895E+02  0.00000000000E+00 0.  1.
          5    1    5    5  501    0  0.13367350104E+03  0.11874078989E+03 -0.19908794003E+01  0.17886876101E+03  0.47000000000E+01 0. -1.
         13    1    4    4    0    0 -0.42208630437E+01  0.36094451046E+01  0.81347129352E+02  0.81536490191E+02  0.00000000000E+00 0. -1.
        -14    1    4    4    0    0 -0.28849209520E+02 -0.12698159778E+03  0.24122239966E+03  0.27412560836E+03  0.00000000000E+00 0.  1.
         -5    1    3    3    0  503 -0.12857299459E+03 -0.33304236879E+02  0.26688409844E+03  0.29814325270E+03  0.47000000000E+01 0.  1.
</event>
<event>
12    1  0.9749377E-001  0.1767743E+03  0.7818608E-02  0.1170962E+00
         21   -1    0    0  503  502  0.00000000000E+00  0.00000000000E+00  0.15936443448E+03  0.15936443448E+03  0.00000000000E+00 0. -1.
         21   -1    0    0  501  503 -0.00000000000E+00 -0.00000000000E+00 -0.29420236664E+03  0.29420236664E+03  0.00000000000E+00 0.  1.
          6    2    1    2  501    0 -0.99866827448E+02 -0.59782864947E+02 -0.29183390728E+01  0.20674724736E+03  0.17084652008E+03 0.  0.
         24    2    3    3    0    0 -0.37959203902E+02 -0.69273372929E+02  0.46074550518E+02  0.12709163346E+03  0.88259377594E+02 0.  0.
         -6    2    1    2    0  502  0.99866827448E+02  0.59782864947E+02 -0.13191959308E+03  0.24681955377E+03  0.17311770249E+03 0.  0.
        -24    2    5    5    0    0  0.84626928585E+01 -0.21838206285E+02 -0.66751868440E+02  0.10794681553E+03  0.81536363786E+02 0.  0.
         12    1    4    4    0    0 -0.18430108375E+02 -0.65033034310E+02  0.69059254600E+02  0.96634078317E+02  0.00000000000E+00 0. -1.
        -11    1    4    4    0    0 -0.19529095527E+02 -0.42403386189E+01 -0.22984704083E+02  0.30457555146E+02  0.00000000000E+00 0.  1.
          5    1    3    3  501    0 -0.61907623546E+02  0.94905079818E+01 -0.48992889590E+02  0.79655613897E+02  0.47000000000E+01 0. -1.
         11    1    6    6    0    0  0.41706394199E+02 -0.22279040271E+02 -0.21881554043E+02  0.52101644502E+02  0.00000000000E+00 0. -1.
        -12    1    6    6    0    0 -0.33243701340E+02  0.44083398605E+00 -0.44870314397E+02  0.55845171031E+02  0.00000000000E+00 0.  1.
         -5    1    5    5    0  502  0.91404134589E+02  0.81621071232E+02 -0.65167724644E+02  0.13887273823E+03  0.47000000000E+01 0.  1.
</event>
<event>
12    1  0.9749377E-001  0.4393798E+03  0.7818608E-02  0.1030937E+00
         21   -1    0    0  501  502  0.00000000000E+00  0.00000000000E+00  0.13122686052E+04  0.13122686052E+04  0.00000000000E+00 0. -1.
         21   -1    0    0  502  503 -0.00000000000E+00 -0.00000000000E+00 -0.15438218079E+03  0.15438218079E+03  0.00000000000E+00 0.  1.
         -6    2    1    2    0  503 -0.39115102046E+03 -0.13007605595E+03  0.49274748194E+03  0.66539983695E+03  0.17331462984E+03 0.  0.
        -24    2    3    3    0    0 -0.33623993003E+03 -0.15745505677E+03  0.45746619404E+03  0.59446538260E+03  0.79147880437E+02 0.  0.
          6    2    1    2  501    0  0.39115102046E+03  0.13007605595E+03  0.66513894244E+03  0.80125094902E+03  0.17226250148E+03 0.  0.
         24    2    5    5    0    0  0.40445906552E+03  0.12446554510E+03  0.65072269793E+03  0.78031055740E+03  0.79785517399E+02 0.  0.
         12    1    6    6    0    0  0.26755984052E+03  0.12033016679E+03  0.42992883291E+03  0.52048671324E+03  0.00000000000E+00 0. -1.
        -11    1    6    6    0    0  0.13689922500E+03  0.41353783137E+01  0.22079386502E+03  0.25982384415E+03  0.00000000000E+00 0.  1.
          5    1    5    5  501    0 -0.13308045064E+02  0.56105108523E+01  0.14416244512E+02  0.20940391622E+02  0.47000000000E+01 0. -1.
         13    1    4    4    0    0 -0.49045363778E+01 -0.48917629265E+01  0.37790275514E+02  0.38419900378E+02  0.00000000000E+00 0. -1.
        -14    1    4    4    0    0 -0.33133539365E+03 -0.15256329384E+03  0.41967591852E+03  0.55604548223E+03  0.00000000000E+00 0.  1.
         -5    1    3    3    0  503 -0.54911090426E+02  0.27379000813E+02  0.35281287903E+02  0.70934454346E+02  0.47000000000E+01 0.  1.
</event>
<event>
12    1  0.9749377E-001  0.4582423E+03  0.7818608E-02  0.1025292E+00
         21   -1    0    0  503  502  0.00000000000E+00  0.00000000000E+00  0.44810339111E+03  0.44810339111E+03  0.00000000000E+00 0. -1.
         21   -1    0    0  501  503 -0.00000000000E+00 -0.00000000000E+00 -0.48049060521E+03  0.48049060521E+03  0.00000000000E+00 0.  1.
          6    2    1    2  501    0  0.21275636431E+03  0.37438645810E+03 -0.25802471062E+02  0.46465506617E+03  0.17265014465E+03 0.  0.
         24    2    3    3    0    0  0.51377101195E+02  0.22148225058E+03 -0.26413640473E+02  0.24229178960E+03  0.79458398281E+02 0.  0.
         -6    2    1    2    0  502 -0.21275636431E+03 -0.37438645810E+03 -0.65847430431E+01  0.46393893014E+03  0.17252675590E+03 0.  0.
        -24    2    5    5    0    0 -0.18985761639E+03 -0.23658038503E+03  0.39449751727E+02  0.31677870747E+03  0.82318123814E+02 0.  0.
         14    1    4    4    0    0 -0.14930282486E+02  0.87203684168E+01 -0.67855416684E+01  0.18574222357E+02  0.00000000000E+00 0. -1.
        -13    1    4    4    0    0  0.66307383681E+02  0.21276188216E+03 -0.19628098804E+02  0.22371756724E+03  0.00000000000E+00 0.  1.
          5    1    3    3  501    0  0.16137926311E+03  0.15290420752E+03  0.61116941059E+00  0.22236327657E+03  0.47000000000E+01 0. -1.
         11    1    6    6    0    0 -0.14702125455E+03 -0.22676666434E+03  0.36835537495E+02  0.27275488294E+03  0.00000000000E+00 0. -1.
        -12    1    6    6    0    0 -0.42836361845E+02 -0.98137206923E+01  0.26142142322E+01  0.44023824527E+02  0.00000000000E+00 0.  1.
         -5    1    5    5    0  502 -0.22898747914E+02 -0.13780607307E+03 -0.46034494770E+02  0.14716022268E+03  0.47000000000E+01 0.  1.
</event>
<event>
12    1  0.9749377E-001  0.2330121E+03  0.7818608E-02  0.1124537E+00
         21   -1    0    0  503  502  0.00000000000E+00  0.00000000000E+00  0.69564567781E+03  0.69564567781E+03  0.00000000000E+00 0.  1.
         21   -1    0    0  501  503 -0.00000000000E+00 -0.00000000000E+00 -0.13646348239E+03  0.13646348239E+03  0.00000000000E+00 0. -1.
          6    2    1    2  501    0  0.17766099631E+03  0.73233999511E+02  0.51501106807E+02  0.26263447595E+03  0.17145802886E+03 0.  0.
         24    2    3    3    0    0  0.15119807946E+03  0.91821131559E+02 -0.85414956580E+01  0.19427533935E+03  0.79862199432E+02 0.  0.
         -6    2    1    2    0  502 -0.17766099631E+03 -0.73233999511E+02  0.50768108862E+03  0.56947468425E+03  0.17214726244E+03 0.  0.
        -24    2    5    5    0    0 -0.31097198078E+02 -0.25155618149E+02  0.28043735458E+03  0.29478525532E+03  0.81568352050E+02 0.  0.
         14    1    4    4    0    0  0.11123015335E+03  0.97407931727E+02 -0.26318476658E+02  0.15017694361E+03  0.00000000000E+00 0. -1.
        -13    1    4    4    0    0  0.39967926104E+02 -0.55868001676E+01  0.17776981000E+02  0.44098395738E+02  0.00000000000E+00 0.  1.
          5    1    3    3  501    0  0.26462916853E+02 -0.18587132049E+02  0.60042602465E+02  0.68359136602E+02  0.47000000000E+01 0. -1.
         13    1    6    6    0    0 -0.44817750900E+02  0.15880435398E+02  0.14302498770E+03  0.15072148530E+03  0.00000000000E+00 0. -1.
        -14    1    6    6    0    0  0.13720552821E+02 -0.41036053547E+02  0.13741236688E+03  0.14406377001E+03  0.00000000000E+00 0.  1.
         -5    1    5    5    0  502 -0.14656379823E+03 -0.48078381361E+02  0.22724373404E+03  0.27468942893E+03  0.47000000000E+01 0.  1.
</event>
<event>
12    1  0.9749377E-001  0.9042887E+03  0.7818608E-02  0.9420236E-01
         21   -1    0    0  503  502  0.00000000000E+00  0.00000000000E+00  0.14125577449E+04  0.14125577449E+04  0.00000000000E+00 0. -1.
         21   -1    0    0  501  503 -0.00000000000E+00 -0.00000000000E+00 -0.60865346722E+03  0.60865346722E+03  0.00000000000E+00 0.  1.
          6    2    1    2  501    0  0.87516568763E+03 -0.19128964593E+03  0.58400259005E+03  0.10828546677E+04  0.17031880925E+03 0.  0.
         24    2    3    3    0    0  0.29715714922E+03 -0.29395513360E+02  0.16104947159E+03  0.34854205647E+03  0.79863416469E+02 0.  0.
         -6    2    1    2    0  502 -0.87516568763E+03  0.19128964593E+03  0.21990168766E+03  0.93835654442E+03  0.17219042593E+03 0.  0.
        -24    2    5    5    0    0 -0.29345628381E+03  0.15511410560E+02  0.70867496614E+02  0.31264327253E+03  0.79789845326E+02 0.  0.
         14    1    4    4    0    0  0.28278224813E+03 -0.21589542614E+02  0.16922416104E+03  0.33025554482E+03  0.00000000000E+00 0. -1.
        -13    1    4    4    0    0  0.14374901091E+02 -0.78059707462E+01 -0.81746894466E+01  0.18286511647E+02  0.00000000000E+00 0.  1.
          5    1    3    3  501    0  0.57800853841E+03 -0.16189413257E+03  0.42295311846E+03  0.73431261125E+03  0.47000000000E+01 0. -1.
         13    1    6    6    0    0 -0.15824234411E+03 -0.23336481056E+02  0.62433871975E+02  0.17170678259E+03  0.00000000000E+00 0. -1.
        -14    1    6    6    0    0 -0.13521393970E+03  0.38847891616E+02  0.84336246387E+01  0.14093648994E+03  0.00000000000E+00 0.  1.
         -5    1    5    5    0  502 -0.58170940381E+03  0.17577823537E+03  0.14903419105E+03  0.62571327189E+03  0.47000000000E+01 0.  1.
</event>
<event>
12    1  0.9749377E-001  0.2455527E+03  0.7818608E-02  0.1116148E+00
         21   -1    0    0  503  502  0.00000000000E+00  0.00000000000E+00  0.12296177171E+03  0.12296177171E+03  0.00000000000E+00 0. -1.
         21   -1    0    0  501  503 -0.00000000000E+00 -0.00000000000E+00 -0.69994838980E+03  0.69994838980E+03  0.00000000000E+00 0.  1.
          6    2    1    2  501    0  0.10859561073E+03 -0.18507519517E+03 -0.14692397893E+03  0.31224674188E+03  0.17281648559E+03 0.  0.
         24    2    3    3    0    0  0.70832862027E+02 -0.75078049856E+02 -0.14103360718E+03  0.19570411600E+03  0.88065968194E+02 0.  0.
         -6    2    1    2    0  502 -0.10859561073E+03  0.18507519517E+03 -0.43006263917E+03  0.51066341963E+03  0.17256135143E+03 0.  0.
        -24    2    5    5    0    0 -0.42732798268E+02  0.20272114512E+02 -0.46269666882E+02  0.87795708600E+02  0.57707483923E+02 0.  0.
         14    1    4    4    0    0  0.25021851097E+02 -0.76933709171E+02 -0.53801594030E+02  0.97157090113E+02  0.00000000000E+00 0. -1.
        -13    1    4    4    0    0  0.45811010930E+02  0.18556593152E+01 -0.87232013147E+02  0.98547025889E+02  0.00000000000E+00 0.  1.
          5    1    3    3  501    0  0.37762748702E+02 -0.10999714531E+03 -0.58903717516E+01  0.11654262587E+03  0.47000000000E+01 0. -1.
         11    1    6    6    0    0 -0.26916006977E+02 -0.15677178558E+02 -0.35173857674E+02  0.46983461162E+02  0.00000000000E+00 0. -1.
        -12    1    6    6    0    0 -0.15816791290E+02  0.35949293070E+02 -0.11095809208E+02  0.40812247438E+02  0.00000000000E+00 0.  1.
         -5    1    5    5    0  502 -0.65862812461E+02  0.16480308065E+03 -0.38379297229E+03  0.42286771103E+03  0.47000000000E+01 0.  1.
</event>
<event>
12    1  0.9749377E-001  0.1604199E+03  0.7818608E-02  0.1188224E+00
         21   -1    0    0  503  502  0.00000000000E+00  0.00000000000E+00  0.10685998767E+03  0.10685998767E+03  0.00000000000E+00 0. -1.
         21   -1    0    0  501  503 -0.00000000000E+00 -0.00000000000E+00 -0.76943823777E+03  0.76943823777E+03  0.00000000000E+00 0.  1.
          6    2    1    2  501    0  0.15918530418E+02 -0.11632683431E+03 -0.30711681530E+02  0.21099007097E+03  0.17259278859E+03 0.  0.
         24    2    3    3    0    0 -0.41626978112E+01  0.38430263192E+01  0.13703159411E+02  0.81225594985E+02  0.79860652380E+02 0.  0.
         -6    2    1    2    0  502 -0.15918530418E+02  0.11632683431E+03 -0.63186656857E+03  0.66530815447E+03  0.17202978795E+03 0.  0.
        -24    2    5    5    0    0 -0.16047373363E+01  0.35621274463E+02 -0.12938621085E+03  0.15616488195E+03  0.79845027523E+02 0.  0.
         14    1    4    4    0    0  0.69800037889E+01 -0.12456318322E+02  0.43330284006E+02  0.45622295329E+02  0.00000000000E+00 0. -1.
        -13    1    4    4    0    0 -0.11142701600E+02  0.16299344641E+02 -0.29627124595E+02  0.35603299657E+02  0.00000000000E+00 0.  1.
          5    1    3    3  501    0  0.20081228229E+02 -0.12016986063E+03 -0.44414840941E+02  0.12976447598E+03  0.47000000000E+01 0. -1.
         11    1    6    6    0    0 -0.28668626686E+02 -0.94772867772E+01 -0.73299509649E+02  0.79275010158E+02  0.00000000000E+00 0. -1.
        -12    1    6    6    0    0  0.27063889350E+02  0.45098561241E+02 -0.56086701205E+02  0.76889871795E+02  0.00000000000E+00 0.  1.
         -5    1    5    5    0  502 -0.14313793081E+02  0.80705559845E+02 -0.50248035772E+03  0.50914327252E+03  0.47000000000E+01 0.  1.
</event>
<event>
12    1  0.9749377E-001  0.9582360E+03  0.7818608E-02  0.9355575E-01
         21   -1    0    0  501  502  0.00000000000E+00  0.00000000000E+00  0.57071439278E+03  0.57071439278E+03  0.00000000000E+00 0. -1.
         21   -1    0    0  502  503 -0.00000000000E+00 -0.00000000000E+00 -0.19984654734E+04  0.19984654734E+04  0.00000000000E+00 0.  1.
         -6    2    1    2    0  503  0.47498933187E+03 -0.81471226577E+03 -0.12797581873E+04  0.15993074092E+04  0.17502065537E+03 0.  0.
        -24    2    3    3    0    0  0.42642046100E+03 -0.61070585754E+03 -0.10109903886E+04  0.12583737362E+04  0.81282470227E+02 0.  0.
          6    2    1    2  501    0 -0.47498933187E+03  0.81471226577E+03 -0.14799289330E+03  0.96987245695E+03  0.17140520674E+03 0.  0.
         24    2    5    5    0    0 -0.17264309599E+03  0.41975986816E+03 -0.81405871162E+02  0.46801932680E+03  0.80069899982E+02 0.  0.
         14    1    6    6    0    0 -0.39068737271E+02  0.19822789379E+03 -0.41778948908E+02  0.20631564332E+03  0.00000000000E+00 0. -1.
        -13    1    6    6    0    0 -0.13357435872E+03  0.22153197438E+03 -0.39626922254E+02  0.26170368348E+03  0.00000000000E+00 0.  1.
          5    1    5    5  501    0 -0.30234623588E+03  0.39495239761E+03 -0.66587022134E+02  0.50185313015E+03  0.47000000000E+01 0. -1.
         13    1    4    4    0    0  0.38101341190E+03 -0.57926059423E+03 -0.94984701107E+03  0.11759776361E+04  0.00000000000E+00 0. -1.
        -14    1    4    4    0    0  0.45407049102E+02 -0.31445263315E+02 -0.61143377570E+02  0.82396100113E+02  0.00000000000E+00 0.  1.
         -5    1    3    3    0  503  0.48568870872E+02 -0.20400640823E+03 -0.26876779867E+03  0.34093367305E+03  0.47000000000E+01 0.  1.
</event>
<event>
12    1  0.9749377E-001  0.5039883E+03  0.7818608E-02  0.1012743E+00
         21   -1    0    0  503  502  0.00000000000E+00  0.00000000000E+00  0.13273264188E+04  0.13273264188E+04  0.00000000000E+00 0.  1.
         21   -1    0    0  501  503 -0.00000000000E+00 -0.00000000000E+00 -0.20504497207E+03  0.20504497207E+03  0.00000000000E+00 0. -1.
          6    2    1    2  501    0 -0.42865285723E+03 -0.24216231654E+03  0.53080548338E+03  0.74393096412E+03  0.17115185837E+03 0.  0.
         24    2    3    3    0    0 -0.30842207566E+03 -0.16891197216E+03  0.28201247595E+03  0.45802695166E+03  0.81254050784E+02 0.  0.
         -6    2    1    2    0  502  0.42865285723E+03  0.24216231654E+03  0.59147596336E+03  0.78844042676E+03  0.17148945085E+03 0.  0.
        -24    2    5    5    0    0  0.26970256761E+03  0.96384784778E+02  0.27293778861E+03  0.40372632237E+03  0.80438829038E+02 0.  0.
         12    1    4    4    0    0 -0.13042802988E+03 -0.94524822917E+02  0.84348498816E+02  0.18182706723E+03  0.00000000000E+00 0. -1.
        -11    1    4    4    0    0 -0.17799404578E+03 -0.74387149243E+02  0.19766397713E+03  0.27619988443E+03  0.00000000000E+00 0.  1.
          5    1    3    3  501    0 -0.12023078157E+03 -0.73250344376E+02  0.24879300744E+03  0.28590401246E+03  0.47000000000E+01 0. -1.
         11    1    6    6    0    0  0.27425782159E+03  0.99635508950E+02  0.26630407325E+03  0.39504739813E+03  0.00000000000E+00 0. -1.
        -12    1    6    6    0    0 -0.45552539794E+01 -0.32507241724E+01  0.66337153606E+01  0.86789242390E+01  0.00000000000E+00 0.  1.
         -5    1    5    5    0  502  0.15895028962E+03  0.14577753176E+03  0.31853817475E+03  0.38471410438E+03  0.47000000000E+01 0.  1.
</event>
<event>
12    1  0.9749377E-001  0.4787797E+03  0.7818608E-02  0.1019471E+00
         21   -1    0    0  503  502  0.00000000000E+00  0.00000000000E+00  0.16231791681E+03  0.16231791681E+03  0.00000000000E+00 0. -1.
         21   -1    0    0  501  503 -0.00000000000E+00 -0.00000000000E+00 -0.15078979506E+04  0.15078979506E+04  0.00000000000E+00 0.  1.
          6    2    1    2  501    0 -0.15856518953E+03  0.43590419561E+03 -0.67881737980E+03  0.83997596123E+03  0.17207903197E+03 0.  0.
         24    2    3    3    0    0 -0.11706923334E+03  0.40852694384E+03 -0.55298051352E+03  0.70459340988E+03  0.10032425268E+03 0.  0.
         -6    2    1    2    0  502  0.15856518953E+03 -0.43590419561E+03 -0.66676265397E+03  0.83023990616E+03  0.17196068726E+03 0.  0.
        -24    2    5    5    0    0  0.16829470934E+02 -0.22882730907E+03 -0.30535852620E+03  0.39023435569E+03  0.79961580616E+02 0.  0.
         14    1    4    4    0    0 -0.94979637386E+02  0.32702904475E+03 -0.49985099200E+03  0.60483067203E+03  0.00000000000E+00 0. -1.
        -13    1    4    4    0    0 -0.22089595957E+02  0.81497899096E+02 -0.53129521518E+02  0.99762737850E+02  0.00000000000E+00 0.  1.
          5    1    3    3  501    0 -0.41495956192E+02  0.27377251770E+02 -0.12583686628E+03  0.13538255135E+03  0.47000000000E+01 0. -1.
         13    1    6    6    0    0  0.25245516568E+02 -0.20128392562E+03 -0.29802382593E+03  0.36051457064E+03  0.00000000000E+00 0. -1.
        -14    1    6    6    0    0 -0.84160456339E+01 -0.27543383446E+02 -0.73347002694E+01  0.29719785057E+02  0.00000000000E+00 0.  1.
         -5    1    5    5    0  502  0.14173571860E+03 -0.20707688654E+03 -0.36140412777E+03  0.44000555046E+03  0.47000000000E+01 0.  1.
</event>
<event>
12    1  0.9749377E-001  0.6951001E+03  0.7818608E-02  0.9725649E-01
         21   -1    0    0  503  502  0.00000000000E+00  0.00000000000E+00  0.69508624261E+03  0.69508624261E+03  0.00000000000E+00 0. -1.
         21   -1    0    0  501  503 -0.00000000000E+00 -0.00000000000E+00 -0.78867221090E+03  0.78867221090E+03  0.00000000000E+00 0.  1.
          6    2    1    2  501    0  0.68291489156E+03  0.68427011877E+02 -0.26508834485E+03  0.75592972488E+03  0.17350191156E+03 0.  0.
         24    2    3    3    0    0  0.44439925334E+03 -0.12272290073E+01 -0.22368117047E+03  0.50398118442E+03  0.80446042593E+02 0.  0.
         -6    2    1    2    0  502 -0.68291489156E+03 -0.68427011877E+02  0.17150237656E+03  0.72782872863E+03  0.17107480227E+03 0.  0.
        -24    2    5    5    0    0 -0.27848534996E+03 -0.19098128278E+01  0.12671501224E+03  0.31549901845E+03  0.76975312855E+02 0.  0.
         14    1    4    4    0    0  0.21382388402E+03  0.13116849443E+02 -0.65573875147E+02  0.22403713580E+03  0.00000000000E+00 0. -1.
        -13    1    4    4    0    0  0.23057536932E+03 -0.14344078450E+02 -0.15810729532E+03  0.27994404862E+03  0.00000000000E+00 0.  1.
          5    1    3    3  501    0  0.23851563823E+03  0.69654240885E+02 -0.41407174375E+02  0.25194854046E+03  0.47000000000E+01 0. -1.
         13    1    6    6    0    0 -0.70705694240E+02  0.29099569107E+02  0.52265974542E+02  0.92616479176E+02  0.00000000000E+00 0. -1.
        -14    1    6    6    0    0 -0.20777965572E+03 -0.31009381935E+02  0.74449037694E+02  0.22288253927E+03  0.00000000000E+00 0.  1.
         -5    1    5    5    0  502 -0.40442954160E+03 -0.66517199050E+02  0.44787364327E+02  0.41232971018E+03  0.47000000000E+01 0.  1.
</event>
<event>
12    1  0.9749377E-001  0.1725240E+03  0.7818608E-02  0.1175241E+00
         21   -1    0    0  503  502  0.00000000000E+00  0.00000000000E+00  0.95937683497E+03  0.95937683497E+03  0.00000000000E+00 0. -1.
         21   -1    0    0  501  503 -0.00000000000E+00 -0.00000000000E+00 -0.52317324620E+02  0.52317324620E+02  0.00000000000E+00 0.  1.
          6    2    1    2  501    0 -0.87718983501E+02  0.73594757324E+02  0.25615968678E+03  0.32887212658E+03  0.17154673456E+03 0.  0.
         24    2    3    3    0    0 -0.88436400550E+02  0.45050796851E+02  0.78731208494E+02  0.14909941655E+03  0.78622271555E+02 0.  0.
         -6    2    1    2    0  502  0.87718983501E+02 -0.73594757324E+02  0.65089982357E+03  0.68282203301E+03  0.17165238147E+03 0.  0.
        -24    2    5    5    0    0  0.10239524087E+03 -0.10773794332E+03  0.53493445293E+03  0.56095650520E+03  0.80156609297E+02 0.  0.
         12    1    4    4    0    0 -0.79964645178E+02 -0.34424352236E+00  0.56038222418E+02  0.97646020676E+02  0.00000000000E+00 0. -1.
        -11    1    4    4    0    0 -0.84717553717E+01  0.45395040374E+02  0.22692986076E+02  0.51453395871E+02  0.00000000000E+00 0.  1.
          5    1    3    3  501    0  0.71741704889E+00  0.28543960472E+02  0.17742847829E+03  0.17977271004E+03  0.47000000000E+01 0. -1.
         13    1    6    6    0    0  0.41436248177E+02 -0.20900498038E+02  0.29476211652E+03  0.29839319499E+03  0.00000000000E+00 0. -1.
        -14    1    6    6    0    0  0.60958992689E+02 -0.86837445278E+02  0.24017233640E+03  0.26256331021E+03  0.00000000000E+00 0.  1.
         -5    1    5    5    0  502 -0.14676257365E+02  0.34143185992E+02  0.11596537065E+03  0.12186552781E+03  0.47000000000E+01 0.  1.
</event>
<event>
12    1  0.9749377E-001  0.3348688E+03  0.7818608E-02  0.1069003E+00
         21   -1    0    0  503  502  0.00000000000E+00  0.00000000000E+00  0.73843364161E+03  0.73843364161E+03  0.00000000000E+00 0. -1.
         21   -1    0    0  501  503 -0.00000000000E+00 -0.00000000000E+00 -0.17396914570E+03  0.17396914570E+03  0.00000000000E+00 0.  1.
          6    2    1    2  501    0  0.93154798577E+01 -0.30146047790E+03  0.39666268880E+03  0.52702234801E+03  0.17159856852E+03 0.  0.
         24    2    3    3    0    0 -0.27423660622E+02 -0.27446460642E+03  0.27825199578E+03  0.40005099792E+03  0.80831617889E+02 0.  0.
         -6    2    1    2    0  502 -0.93154798577E+01  0.30146047790E+03  0.16780180711E+03  0.38538043930E+03  0.17145098025E+03 0.  0.
        -24    2    5    5    0    0  0.43249650417E+02  0.92263687216E+02  0.46811813876E+02  0.13802025937E+03  0.80468166620E+02 0.  0.
         14    1    4    4    0    0  0.89756199223E+01 -0.83368390773E+02  0.41283654748E+02  0.93462240945E+02  0.00000000000E+00 0. -1.
        -13    1    4    4    0    0 -0.36399280545E+02 -0.19109621564E+03  0.23696834103E+03  0.30658875698E+03  0.00000000000E+00 0.  1.
          5    1    3    3  501    0  0.36739140480E+02 -0.26995871481E+02  0.11841069303E+03  0.12697135009E+03  0.47000000000E+01 0. -1.
         13    1    6    6    0    0  0.10179748599E+02  0.95957758452E+02  0.36740218733E+02  0.10325387335E+03  0.00000000000E+00 0. -1.
        -14    1    6    6    0    0  0.33069901819E+02 -0.36940712361E+01  0.10071595143E+02  0.34766386026E+02  0.00000000000E+00 0.  1.
         -5    1    5    5    0  502 -0.52565130275E+02  0.20919679068E+03  0.12098999323E+03  0.24736017993E+03  0.47000000000E+01 0.  1.
</event>
<event>
12    1  0.9749377E-001  0.9991851E+03  0.7818608E-02  0.9309439E-01
         21   -1    0    0  501  502  0.00000000000E+00  0.00000000000E+00  0.99391497410E+03  0.99391497410E+03  0.00000000000E+00 0. -1.
         21   -1    0    0  502  503 -0.00000000000E+00 -0.00000000000E+00 -0.16201843985E+04  0.16201843985E+04  0.00000000000E+00 0.  1.
         -6    2    1    2    0  503 -0.96964060738E+03 -0.19877523908E+03 -0.11115291428E+04  0.14983494600E+04  0.17274132648E+03 0.  0.
        -24    2    3    3    0    0 -0.60253376925E+03 -0.18231032141E+03 -0.65005841935E+03  0.90842078405E+03  0.79802104935E+02 0.  0.
          6    2    1    2  501    0  0.96964060738E+03  0.19877523908E+03  0.48525971844E+03  0.11157499125E+04  0.17235535921E+03 0.  0.
         24    2    5    5    0    0  0.44383316318E+03  0.28371425033E+02  0.24794439477E+03  0.51420890723E+03  0.71704692215E+02 0.  0.
         12    1    6    6    0    0  0.94792263105E+02  0.30378702227E+02  0.75209473232E+02  0.12475938264E+03  0.00000000000E+00 0. -1.
        -11    1    6    6    0    0  0.34904090007E+03 -0.20072771932E+01  0.17273492154E+03  0.38944952459E+03  0.00000000000E+00 0.  1.
          5    1    5    5  501    0  0.52580744421E+03  0.17040381405E+03  0.23731532367E+03  0.60154100531E+03  0.47000000000E+01 0. -1.
         13    1    4    4    0    0 -0.84174958081E+02 -0.27049423147E+02 -0.55015366296E+02  0.10413349792E+03  0.00000000000E+00 0. -1.
        -14    1    4    4    0    0 -0.51835881117E+03 -0.15526089826E+03 -0.59504305305E+03  0.80428728613E+03  0.00000000000E+00 0.  1.
         -5    1    3    3    0  503 -0.36710683813E+03 -0.16464917670E+02 -0.46147072349E+03  0.58992867599E+03  0.47000000000E+01 0.  1.
</event>
<event>
12    1  0.9749377E-001  0.4438379E+03  0.7818608E-02  0.1029576E+00
         21   -1    0    0  503  502  0.00000000000E+00  0.00000000000E+00  0.81342293926E+03  0.81342293926E+03  0.00000000000E+00 0. -1.
         21   -1    0    0  501  503 -0.00000000000E+00 -0.00000000000E+00 -0.26705164980E+03  0.26705164980E+03  0.00000000000E+00 0.  1.
          6    2    1    2  501    0  0.15150612196E+03 -0.40520970358E+03  0.26267617437E+03  0.53495352890E+03  0.17328443853E+03 0.  0.
         24    2    3    3    0    0  0.92797840135E+02 -0.27470642123E+03  0.97490720633E+02  0.31635322427E+03  0.80621739615E+02 0.  0.
         -6    2    1    2    0  502 -0.15150612196E+03  0.40520970358E+03  0.28369511510E+03  0.54552106016E+03  0.17309332709E+03 0.  0.
        -24    2    5    5    0    0 -0.12322527290E+03  0.18453878974E+03  0.95100155357E+02  0.25382668676E+03  0.78389505421E+02 0.  0.
         12    1    4    4    0    0  0.75107957164E+01 -0.12202585671E+03  0.15614943580E+02  0.12324994207E+03  0.00000000000E+00 0. -1.
        -11    1    4    4    0    0  0.85287044419E+02 -0.15268056452E+03  0.81875777053E+02  0.19310328220E+03  0.00000000000E+00 0.  1.
          5    1    3    3  501    0  0.58708281826E+02 -0.13050328236E+03  0.16518545373E+03  0.21860030463E+03  0.47000000000E+01 0. -1.
         11    1    6    6    0    0 -0.37404569436E+02  0.29558380713E+02 -0.87581718528E+01  0.48471695444E+02  0.00000000000E+00 0. -1.
        -12    1    6    6    0    0 -0.85820703463E+02  0.15498040903E+03  0.10385832721E+03  0.20535499131E+03  0.00000000000E+00 0.  1.
         -5    1    5    5    0  502 -0.28280849062E+02  0.22067091384E+03  0.18859495974E+03  0.29169437341E+03  0.47000000000E+01 0.  1.
</event>
<event>
12    1  0.9749377E-001  0.3435808E+03  0.7818608E-02  0.1065281E+00
         21   -1    0    0  501  502  0.00000000000E+00  0.00000000000E+00  0.49156847870E+03  0.49156847870E+03  0.00000000000E+00 0.  1.
         21   -1    0    0  502  503 -0.00000000000E+00 -0.00000000000E+00 -0.31189604557E+03  0.31189604557E+03  0.00000000000E+00 0. -1.
         -6    2    1    2    0  503  0.86164436333E+02  0.32095232363E+03  0.20135501681E+03  0.42407342039E+03  0.16988148502E+03 0.  0.
        -24    2    3    3    0    0  0.54023769601E+02  0.24267317078E+03  0.76513128467E+02  0.27318195173E+03  0.83458279546E+02 0.  0.
          6    2    1    2  501    0 -0.86164436333E+02 -0.32095232363E+03 -0.21682583675E+02  0.37939110388E+03  0.18174919846E+03 0.  0.
         24    2    5    5    0    0 -0.91257132292E+02 -0.30860892218E+03  0.23433949022E+02  0.33210594095E+03  0.78599459292E+02 0.  0.
         12    1    6    6    0    0 -0.46832067566E+02 -0.64233761656E+02 -0.14621943704E+02  0.80827098962E+02  0.00000000000E+00 0. -1.
        -11    1    6    6    0    0 -0.44425064726E+02 -0.24437516053E+03  0.38055892726E+02  0.25127884199E+03  0.00000000000E+00 0.  1.
          5    1    5    5  501    0  0.50926959588E+01 -0.12343401449E+02 -0.45116532697E+02  0.47285162938E+02  0.47000000000E+01 0. -1.
         11    1    4    4    0    0 -0.27591284204E+01  0.16035129751E+03  0.31166773218E+02  0.16337539336E+03  0.00000000000E+00 0. -1.
        -12    1    4    4    0    0  0.56782898022E+02  0.82321873265E+02  0.45346355249E+02  0.10980655836E+03  0.00000000000E+00 0.  1.
         -5    1    3    3    0  503  0.32140666731E+02  0.78279152856E+02  0.12484188834E+03  0.15089146866E+03  0.47000000000E+01 0.  1.
</event>
<event>
12    1  0.9749377E-001  0.2962919E+03  0.7818608E-02  0.1087109E+00
         21   -1    0    0  501  502  0.00000000000E+00  0.00000000000E+00  0.13975595620E+03  0.13975595620E+03  0.00000000000E+00 0.  1.
         21   -1    0    0  502  503 -0.00000000000E+00 -0.00000000000E+00 -0.75413264547E+03  0.75413264547E+03  0.00000000000E+00 0. -1.
         -6    2    1    2    0  503 -0.26656234234E+03  0.19235896996E+02 -0.39398340416E+03  0.50717768055E+03  0.17487359665E+03 0.  0.
        -24    2    3    3    0    0 -0.84775541685E+02  0.57600527799E+02 -0.19954712798E+03  0.23820585808E+03  0.80114051610E+02 0.  0.
          6    2    1    2  501    0  0.26656234234E+03 -0.19235896996E+02 -0.22039328511E+03  0.38671092112E+03  0.17189134447E+03 0.  0.
         24    2    5    5    0    0  0.21747014925E+03 -0.20286484237E+02 -0.93684515543E+02  0.25073905108E+03  0.79927942728E+02 0.  0.
         14    1    6    6    0    0  0.11973267994E+03 -0.47336225360E+02 -0.34385916388E+02  0.13326298857E+03  0.00000000000E+00 0. -1.
        -13    1    6    6    0    0  0.97737469304E+02  0.27049741123E+02 -0.59298599155E+02  0.11747606251E+03  0.00000000000E+00 0.  1.
          5    1    5    5  501    0  0.49092193097E+02  0.10505872408E+01 -0.12670876957E+03  0.13597187004E+03  0.47000000000E+01 0. -1.
         11    1    4    4    0    0  0.33949840339E+01  0.36402976422E+02 -0.81696595162E+02  0.89504392462E+02  0.00000000000E+00 0. -1.
        -12    1    4    4    0    0 -0.88170525719E+02  0.21197551377E+02 -0.11785053282E+03  0.14870146562E+03  0.00000000000E+00 0.  1.
         -5    1    3    3    0  503 -0.18178680066E+03 -0.38364630803E+02 -0.19443627618E+03  0.26897182247E+03  0.47000000000E+01 0.  1.
</event>
<event>
12    1  0.9749377E-001  0.1918517E+03  0.7818608E-02  0.1156802E+00
         21   -1    0    0  503  502  0.00000000000E+00  0.00000000000E+00  0.25306537126E+03  0.25306537126E+03  0.00000000000E+00 0. -1.
         21   -1    0    0  501  503 -0.00000000000E+00 -0.00000000000E+00 -0.21886844046E+03  0.21886844046E+03  0.00000000000E+00 0.  1.
          6    2    1    2  501    0 -0.12800301137E+02  0.11262820276E+03 -0.10515361689E+03  0.22340330321E+03  0.16125381537E+03 0.  0.
         24    2    3    3    0    0 -0.21854413159E+02 -0.31364333437E+01 -0.32435488202E+02  0.86314119982E+02  0.76880516548E+02 0.  0.
         -6    2    1    2    0  502  0.12800301137E+02 -0.11262820276E+03  0.13935054770E+03  0.24853050852E+03  0.17175528741E+03 0.  0.
        -24    2    5    5    0    0 -0.32296981902E-02 -0.15015593275E+03  0.93829348376E+02  0.18797862574E+03  0.63128543209E+02 0.  0.
         14    1    4    4    0    0 -0.37592826346E+02 -0.19470007887E+02  0.49107456264E+01  0.42619446529E+02  0.00000000000E+00 0. -1.
        -13    1    4    4    0    0  0.15738413187E+02  0.16333574544E+02 -0.37346233828E+02  0.43694673453E+02  0.00000000000E+00 0.  1.
          5    1    3    3  501    0  0.90541120214E+01  0.11576463611E+03 -0.72718128693E+02  0.13708918323E+03  0.47000000000E+01 0. -1.
         13    1    6    6    0    0  0.31003716125E+02 -0.68149930407E+02  0.49317022988E+02  0.89653846456E+02  0.00000000000E+00 0. -1.
        -14    1    6    6    0    0 -0.31006945823E+02 -0.82006002346E+02  0.44512325388E+02  0.98324779285E+02  0.00000000000E+00 0.  1.
         -5    1    5    5    0  502  0.12803530835E+02  0.37527729989E+02  0.45521199320E+02  0.60551882774E+02  0.47000000000E+01 0.  1.
</event>
<event>
12    1  0.9749377E-001  0.2927860E+03  0.7818608E-02  0.1088903E+00
         21   -1    0    0  503  502  0.00000000000E+00  0.00000000000E+00  0.11177469674E+04  0.11177469674E+04  0.00000000000E+00 0.  1.
         21   -1    0    0  501  503 -0.00000000000E+00 -0.00000000000E+00 -0.95634358969E+02  0.95634358969E+02  0.00000000000E+00 0. -1.
          6    2    1    2  501    0 -0.18809405047E+03  0.17641302450E+03  0.71410771489E+03  0.77843177519E+03  0.17177099037E+03 0.  0.
         24    2    3    3    0    0 -0.19466505538E+03  0.14285653761E+03  0.49419807775E+03  0.55582999078E+03  0.80079738232E+02 0.  0.
         -6    2    1    2    0  502  0.18809405047E+03 -0.17641302450E+03  0.30800489353E+03  0.43494955116E+03  0.16677281128E+03 0.  0.
        -24    2    5    5    0    0  0.20002241196E+03 -0.12864248100E+03  0.28527723944E+03  0.38051659336E+03  0.82776332809E+02 0.  0.
         14    1    4    4    0    0 -0.19784517990E+03  0.13045188178E+03  0.43602659265E+03  0.49626565281E+03  0.00000000000E+00 0. -1.
        -13    1    4    4    0    0  0.31801245183E+01  0.12404655831E+02  0.58171485099E+02  0.59564337962E+02  0.00000000000E+00 0.  1.
          5    1    3    3  501    0  0.65710049120E+01  0.33556486894E+02  0.21990963714E+03  0.22260178442E+03  0.47000000000E+01 0. -1.
         11    1    6    6    0    0  0.51167783289E+02 -0.80455572153E+02  0.10684297138E+03  0.14320147231E+03  0.00000000000E+00 0. -1.
        -12    1    6    6    0    0  0.14885462867E+03 -0.48186908842E+02  0.17843426806E+03  0.23731512105E+03  0.00000000000E+00 0.  1.
         -5    1    5    5    0  502 -0.11928361496E+02 -0.47770543505E+02  0.22727654086E+02  0.54432957802E+02  0.47000000000E+01 0.  1.
</event>
<event>
12    1  0.9749377E-001  0.5645189E+03  0.7818608E-02  0.9981881E-01
         21   -1    0    0  503  502  0.00000000000E+00  0.00000000000E+00  0.97395525857E+03  0.97395525857E+03  0.00000000000E+00 0.  1.
         21   -1    0    0  501  503 -0.00000000000E+00 -0.00000000000E+00 -0.43106402471E+03  0.43106402471E+03  0.00000000000E+00 0. -1.
          6    2    1    2  501    0  0.32644857480E+03  0.43717863689E+03  0.60146975289E+03  0.83001052835E+03  0.17163269205E+03 0.  0.
         24    2    3    3    0    0  0.10967465637E+03  0.12239205994E+03  0.13661288252E+03  0.22818370885E+03  0.79977363838E+02 0.  0.
         -6    2    1    2    0  502 -0.32644857480E+03 -0.43717863689E+03 -0.58578519029E+02  0.57500875493E+03  0.17178414600E+03 0.  0.
        -24    2    5    5    0    0 -0.63121565465E+02 -0.96381652060E+02 -0.29770834910E+02  0.14334259761E+03  0.79918976455E+02 0.  0.
         14    1    4    4    0    0  0.99420477440E+02  0.54229242073E+02  0.93711751065E+02  0.14699365401E+03  0.00000000000E+00 0. -1.
        -13    1    4    4    0    0  0.10254178926E+02  0.68162817862E+02  0.42901131460E+02  0.81190054840E+02  0.00000000000E+00 0.  1.
          5    1    3    3  501    0  0.21677391843E+03  0.31478657695E+03  0.46485687037E+03  0.60182681950E+03  0.47000000000E+01 0. -1.
         11    1    6    6    0    0 -0.58282814468E+02 -0.26762660372E+02  0.69065721478E+01  0.64504474196E+02  0.00000000000E+00 0. -1.
        -12    1    6    6    0    0 -0.48387509970E+01 -0.69618991688E+02 -0.36677407058E+02  0.78838123413E+02  0.00000000000E+00 0.  1.
         -5    1    5    5    0  502 -0.26332700933E+03 -0.34079698483E+03 -0.28807684119E+02  0.43166615732E+03  0.47000000000E+01 0.  1.
</event>
<event>
12    1  0.9749377E-001  0.2196724E+03  0.7818608E-02  0.1134128E+00
         21   -1    0    0  501  502  0.00000000000E+00  0.00000000000E+00  0.11782635749E+03  0.11782635749E+03  0.00000000000E+00 0. -1.
         21   -1    0    0  502  503 -0.00000000000E+00 -0.00000000000E+00 -0.67711373877E+03  0.67711373877E+03  0.00000000000E+00 0. -1.
         -6    2    1    2    0  503 -0.17606649696E+03 -0.13184117255E+02 -0.47300722337E+03  0.53331210480E+03  0.17179271077E+03 0.  0.
        -24    2    3    3    0    0 -0.75395019634E+02 -0.65149067104E+02 -0.32740075683E+03  0.34876282830E+03  0.67197060234E+02 0.  0.
          6    2    1    2  501    0  0.17606649696E+03  0.13184117255E+02 -0.86280157907E+02  0.26162799146E+03  0.17271858027E+03 0.  0.
         24    2    5    5    0    0  0.31937110004E+02  0.42022082185E+02 -0.58186821707E+02  0.11190747201E+03  0.79697814813E+02 0.  0.
         14    1    6    6    0    0 -0.72001774657E+01 -0.66743557604E+01 -0.47526453627E+02  0.48529922468E+02  0.00000000000E+00 0. -1.
        -13    1    6    6    0    0  0.39137287469E+02  0.48696437945E+02 -0.10660368080E+02  0.63377549547E+02  0.00000000000E+00 0.  1.
          5    1    5    5  501    0  0.14412938695E+03 -0.28837964930E+02 -0.28093336201E+02  0.14972051945E+03  0.47000000000E+01 0. -1.
         13    1    4    4    0    0 -0.19886921492E+02 -0.41980084781E+02 -0.67148207473E+02  0.81649855673E+02  0.00000000000E+00 0. -1.
        -14    1    4    4    0    0 -0.55508098142E+02 -0.23168982323E+02 -0.26025254936E+03  0.26711297263E+03  0.00000000000E+00 0.  1.
         -5    1    3    3    0  503 -0.10067147732E+03  0.51964949849E+02 -0.14560646654E+03  0.18454927650E+03  0.47000000000E+01 0.  1.
</event>
<event>
12    1  0.9749377E-001  0.7504872E+03  0.7818608E-02  0.9634586E-01
         21   -1    0    0  503  502  0.00000000000E+00  0.00000000000E+00  0.10281797591E+04  0.10281797591E+04  0.00000000000E+00 0.  1.
         21   -1    0    0  501  503 -0.00000000000E+00 -0.00000000000E+00 -0.23808976258E+04  0.23808976258E+04  0.00000000000E+00 0. -1.
          6    2    1    2  501    0  0.53884654812E+02 -0.73692646532E+03  0.81426256955E+03  0.11131071442E+04  0.17326226086E+03 0.  0.
         24    2    3    3    0    0  0.15324738249E+02 -0.20394060673E+03  0.18285209961E+03  0.28590579982E+03  0.80502281747E+02 0.  0.
         -6    2    1    2    0  502 -0.53884654812E+02  0.73692646532E+03 -0.21669804362E+04  0.22959702407E+04  0.17236868627E+03 0.  0.
        -24    2    5    5    0    0 -0.97359008682E+02  0.43545973748E+03 -0.13123919563E+04  0.13887129633E+04  0.83946935110E+02 0.  0.
         14    1    4    4    0    0 -0.10982349740E+02 -0.17197155891E+03  0.11759241461E+03  0.20862119991E+03  0.00000000000E+00 0. -1.
        -13    1    4    4    0    0  0.26307087990E+02 -0.31969047817E+02  0.65259685003E+02  0.77284599912E+02  0.00000000000E+00 0.  1.
          5    1    3    3  501    0  0.38559916563E+02 -0.53298585859E+03  0.63141046995E+03  0.82720134440E+03  0.47000000000E+01 0. -1.
         13    1    6    6    0    0 -0.23243067230E+02  0.20087629220E+03 -0.48351218805E+03  0.52409499228E+03  0.00000000000E+00 0. -1.
        -14    1    6    6    0    0 -0.74115941453E+02  0.23458344528E+03 -0.82887976827E+03  0.86461797103E+03  0.00000000000E+00 0.  1.
         -5    1    5    5    0  502  0.43474353870E+02  0.30146672784E+03 -0.85458847992E+03  0.90725727743E+03  0.47000000000E+01 0.  1.
</event>
<event>
12    1  0.1011524E+000  0.7230730E+03  0.7818608E-02  0.9678568E-01
         21   -1    0    0  501  502  0.00000000000E+00  0.00000000000E+00  0.12314992475E+04  0.12314992475E+04  0.00000000000E+00 0.  1.
         21   -1    0    0  502  503 -0.00000000000E+00 -0.00000000000E+00 -0.44467021127E+03  0.44467021127E+03  0.00000000000E+00 0. -1.
         -6    2    1    2    0  503  0.14921540448E+03  0.68988341141E+03  0.55258762166E+03  0.91327838039E+03  0.17469963420E+03 0.  0.
        -24    2    3    3    0    0  0.17360370565E+03  0.49803048324E+03  0.41415734972E+03  0.67539739024E+03  0.80391016691E+02 0.  0.
          6    2    1    2  501    0 -0.14921540448E+03 -0.68988341141E+03  0.23424141453E+03  0.76289107836E+03  0.17008644531E+03 0.  0.
         24    2    5    5    0    0 -0.10781763391E+03 -0.25779763039E+03  0.76531194068E+02  0.30103991054E+03  0.81754165995E+02 0.  0.
         12    1    6    6    0    0 -0.22386178930E+02 -0.13159937473E+02  0.26549963190E+02  0.37137925450E+02  0.00000000000E+00 0. -1.
        -11    1    6    6    0    0 -0.85431454985E+02 -0.24463769291E+03  0.49981230879E+02  0.26390198509E+03  0.00000000000E+00 0.  1.
          5    1    5    5  501    0 -0.41397770566E+02 -0.43208578103E+03  0.15771022047E+03  0.46185116782E+03  0.47000000000E+01 0. -1.
         11    1    4    4    0    0  0.49450139651E+02  0.26393963537E+03  0.20969318152E+03  0.34070614583E+03  0.00000000000E+00 0. -1.
        -12    1    4    4    0    0  0.12415356600E+03  0.23409084787E+03  0.20446416820E+03  0.33469124441E+03  0.00000000000E+00 0.  1.
         -5    1    3    3    0  503 -0.24388301173E+02  0.19185292817E+03  0.13843027194E+03  0.23788099014E+03  0.47000000000E+01 0.  1.
</event>
<event>
12    1  0.9749377E-001  0.4029627E+03  0.7818608E-02  0.1042759E+00
         21   -1    0    0  501  502  0.00000000000E+00  0.00000000000E+00  0.81843374278E+02  0.81843374278E+02  0.00000000000E+00 0.  1.
         21   -1    0    0  502  503 -0.00000000000E+00 -0.00000000000E+00 -0.22197580333E+04  0.22197580333E+04  0.00000000000E+00 0. -1.
         -6    2    1    2    0  503 -0.18126935470E+02  0.38764790447E+03 -0.96286672939E+03  0.10522954143E+04  0.17208665481E+03 0.  0.
        -24    2    3    3    0    0 -0.47332752695E+02  0.10683878420E+03 -0.34027698465E+03  0.36866772174E+03  0.80452144036E+02 0.  0.
          6    2    1    2  501    0  0.18126935470E+02 -0.38764790447E+03 -0.11750479296E+04  0.12493059933E+04  0.17154691567E+03 0.  0.
         24    2    5    5    0    0  0.16636385415E+02 -0.33775505440E+03 -0.11286134340E+04  0.11809702734E+04  0.81038615102E+02 0.  0.
         12    1    6    6    0    0  0.23944081260E+02 -0.33650438843E+03 -0.10708368143E+04  0.11227199140E+04  0.00000000000E+00 0. -1.
        -11    1    6    6    0    0 -0.73076958453E+01 -0.12506659702E+01 -0.57776619685E+02  0.58250359366E+02  0.00000000000E+00 0.  1.
          5    1    5    5  501    0  0.14905500552E+01 -0.49892850068E+02 -0.46434495628E+02  0.68335719881E+02  0.47000000000E+01 0. -1.
         11    1    4    4    0    0 -0.20159388392E+02  0.98045814041E+02 -0.31502298856E+03  0.33054328902E+03  0.00000000000E+00 0. -1.
        -12    1    4    4    0    0 -0.27173364303E+02  0.87929701593E+01 -0.25253996090E+02  0.38124432720E+02  0.00000000000E+00 0.  1.
         -5    1    3    3    0  503  0.29205817225E+02  0.28080912027E+03 -0.62258974474E+03  0.68362769257E+03  0.47000000000E+01 0.  1.
</event>
<event>
12    1  0.9749377E-001  0.1717028E+03  0.7818608E-02  0.1176084E+00
         21   -1    0    0  503  502  0.00000000000E+00  0.00000000000E+00  0.95470530199E+02  0.95470530199E+02  0.00000000000E+00 0.  1.
         21   -1    0    0  501  503 -0.00000000000E+00 -0.00000000000E+00 -0.69207377052E+03  0.69207377052E+03  0.00000000000E+00 0. -1.
          6    2    1    2  501    0 -0.11339233401E+03 -0.19156347905E+02 -0.64242115684E+02  0.21634826595E+03  0.17162382024E+03 0.  0.
         24    2    3    3    0    0 -0.65476813750E+02  0.26848879416E+02 -0.95204982189E+02  0.14291008021E+03  0.79694585304E+02 0.  0.
         -6    2    1    2    0  502  0.11339233401E+03  0.19156347905E+02 -0.53236112464E+03  0.57119603478E+03  0.17213876971E+03 0.  0.
        -24    2    5    5    0    0  0.39460873390E+02  0.70418717284E+02 -0.24017093797E+03  0.26543324016E+03  0.79099742507E+02 0.  0.
         14    1    4    4    0    0 -0.64002226842E+02 -0.88248007781E+01 -0.82991266989E+02  0.10517467635E+03  0.00000000000E+00 0. -1.
        -13    1    4    4    0    0 -0.14745869077E+01  0.35673680194E+02 -0.12213715200E+02  0.37735403855E+02  0.00000000000E+00 0.  1.
          5    1    3    3  501    0 -0.47915520258E+02 -0.46005227321E+02  0.30962866506E+02  0.73438185739E+02  0.47000000000E+01 0. -1.
         11    1    6    6    0    0  0.22263828107E+00  0.30286371907E+02 -0.18236044032E+03  0.18485844336E+03  0.00000000000E+00 0. -1.
        -12    1    6    6    0    0  0.39238235109E+02  0.40132345377E+02 -0.57810497656E+02  0.80574796799E+02  0.00000000000E+00 0.  1.
         -5    1    5    5    0  502  0.73931460618E+02 -0.51262369379E+02 -0.29219018667E+03  0.30576279461E+03  0.47000000000E+01 0.  1.
</event>
<event>
12    1  0.9749377E-001  0.2898935E+03  0.7818608E-02  0.1090405E+00
         21   -1    0    0  501  502  0.00000000000E+00  0.00000000000E+00  0.28731139693E+03  0.28731139693E+03  0.00000000000E+00 0. -1.
         21   -1    0    0  502  503 -0.00000000000E+00 -0.00000000000E+00 -0.38494745831E+03  0.38494745831E+03  0.00000000000E+00 0.  1.
         -6    2    1    2    0  503 -0.16163062825E+03  0.19162226793E+03  0.86294443923E+02  0.31630367620E+03  0.17250429261E+03 0.  0.
        -24    2    3    3    0    0 -0.15788216762E+03  0.10009606655E+03  0.92391193208E+02  0.22437785366E+03  0.82844959054E+02 0.  0.
          6    2    1    2  501    0  0.16163062825E+03 -0.19162226793E+03 -0.18393050531E+03  0.35595517904E+03  0.17329196502E+03 0.  0.
         24    2    5    5    0    0  0.17734254419E+03 -0.14712627961E+03 -0.18917651502E+03  0.30824388166E+03  0.78294422620E+02 0.  0.
         12    1    6    6    0    0  0.81687851153E+02 -0.10219652881E+03 -0.67968849964E+02  0.14743405337E+03  0.00000000000E+00 0. -1.
        -11    1    6    6    0    0  0.95654693036E+02 -0.44929750797E+02 -0.12120766505E+03  0.16080982829E+03  0.00000000000E+00 0.  1.
          5    1    5    5  501    0 -0.15711915936E+02 -0.44495988329E+02  0.52460097123E+01  0.47711297380E+02  0.47000000000E+01 0. -1.
         13    1    4    4    0    0 -0.29487224997E+02  0.64452840465E+02  0.38330461659E+02  0.80578467180E+02  0.00000000000E+00 0. -1.
        -14    1    4    4    0    0 -0.12839494263E+03  0.35643226081E+02  0.54060731549E+02  0.14379938648E+03  0.00000000000E+00 0.  1.
         -5    1    3    3    0  503 -0.37484606316E+01  0.91526201388E+02 -0.60967492842E+01  0.91925822539E+02  0.47000000000E+01 0.  1.
</event>
<event>
12    1  0.9749377E-001  0.5762031E+03  0.7818608E-02  0.9956045E-01
         21   -1    0    0  503  502  0.00000000000E+00  0.00000000000E+00  0.11695676528E+04  0.11695676528E+04  0.00000000000E+00 0.  1.
         21   -1    0    0  501  503 -0.00000000000E+00 -0.00000000000E+00 -0.33139337990E+03  0.33139337990E+03  0.00000000000E+00 0. -1.
          6    2    1    2  501    0 -0.31097417913E+03  0.45521068640E+03  0.69890454051E+03  0.90669254479E+03  0.17234298632E+03 0.  0.
         24    2    3    3    0    0 -0.27065999527E+03  0.45657761680E+03  0.64465530148E+03  0.83892697939E+03  0.80610581326E+02 0.  0.
         -6    2    1    2    0  502  0.31097417913E+03 -0.45521068640E+03  0.13926973235E+03  0.59426848786E+03  0.17273467577E+03 0.  0.
        -24    2    5    5    0    0  0.82682345011E+02 -0.88909826953E+02  0.30259413908E+02  0.14907322656E+03  0.81030039125E+02 0.  0.
         12    1    4    4    0    0 -0.12413448227E+03  0.28573779988E+03  0.38693502024E+03  0.49676369619E+03  0.00000000000E+00 0. -1.
        -11    1    4    4    0    0 -0.14652551300E+03  0.17083981691E+03  0.25772028124E+03  0.34216328320E+03  0.00000000000E+00 0.  1.
          5    1    3    3  501    0 -0.40314183862E+02 -0.13669303934E+01  0.54249239025E+02  0.67765565400E+02  0.47000000000E+01 0. -1.
         11    1    6    6    0    0 -0.85314716684E+01 -0.38289208787E+02  0.20600203458E+02  0.44308214824E+02  0.00000000000E+00 0. -1.
        -12    1    6    6    0    0  0.91213816680E+02 -0.50620618165E+02  0.96592104502E+01  0.10476501173E+03  0.00000000000E+00 0.  1.
         -5    1    5    5    0  502  0.22829183412E+03 -0.36630085945E+03  0.10901031844E+03  0.44519526130E+03  0.47000000000E+01 0.  1.
</event>
<event>
12    1  0.9749377E-001  0.1660386E+03  0.7818608E-02  0.1182043E+00
         21   -1    0    0  501  502  0.00000000000E+00  0.00000000000E+00  0.68011775289E+02  0.68011775289E+02  0.00000000000E+00 0.  1.
         21   -1    0    0  502  503 -0.00000000000E+00 -0.00000000000E+00 -0.53194456468E+03  0.53194456468E+03  0.00000000000E+00 0.  1.
         -6    2    1    2    0  503 -0.46679344545E+00 -0.76895853116E+02 -0.19191986819E+03  0.26895813736E+03  0.17202341040E+03 0.  0.
        -24    2    3    3    0    0 -0.78162723323E+01 -0.12077188528E+03 -0.16008053869E+03  0.21404954113E+03  0.74461297339E+02 0.  0.
          6    2    1    2  501    0  0.46679344545E+00  0.76895853116E+02 -0.27201292120E+03  0.33099820260E+03  0.17220798676E+03 0.  0.
         24    2    5    5    0    0 -0.50251188705E+02  0.45169282272E+02 -0.84856117529E+02  0.13445648141E+03  0.79451486348E+02 0.  0.
         14    1    6    6    0    0 -0.60991500087E+02  0.45252074126E+02 -0.93650918399E+02  0.12057449072E+03  0.00000000000E+00 0. -1.
        -13    1    6    6    0    0  0.10740311382E+02 -0.82791853689E-01  0.87948008701E+01  0.13881990686E+02  0.00000000000E+00 0.  1.
          5    1    5    5  501    0  0.50717982150E+02  0.31726570844E+02 -0.18715680367E+03  0.19654172119E+03  0.47000000000E+01 0. -1.
         13    1    4    4    0    0  0.30934535856E+02 -0.71937747980E+02 -0.10408829623E+03  0.13025497497E+03  0.00000000000E+00 0. -1.
        -14    1    4    4    0    0 -0.38750808188E+02 -0.48834137297E+02 -0.55992242466E+02  0.83794566155E+02  0.00000000000E+00 0.  1.
         -5    1    3    3    0  503  0.73494788868E+01  0.43876032161E+02 -0.31839329498E+02  0.54908596239E+02  0.47000000000E+01 0.  1.
</event>
<event>
12    1  0.9749377E-001  0.4588331E+03  0.7818608E-02  0.1025120E+00
         21   -1    0    0  503  502  0.00000000000E+00  0.00000000000E+00  0.50857949529E+03  0.50857949529E+03  0.00000000000E+00 0. -1.
         21   -1    0    0  501  503 -0.00000000000E+00 -0.00000000000E+00 -0.43231913472E+03  0.43231913472E+03  0.00000000000E+00 0.  1.
          6    2    1    2  501    0  0.27755601505E+03  0.33020933227E+03 -0.26864860674E+02  0.46531618105E+03  0.17240035673E+03 0.  0.
         24    2    3    3    0    0  0.22544562795E+03  0.16473598047E+03 -0.26663950149E+02  0.29176776428E+03  0.80335469188E+02 0.  0.
         -6    2    1    2    0  502 -0.27755601505E+03 -0.33020933227E+03  0.10312522124E+03  0.47558244897E+03  0.17166336215E+03 0.  0.
        -24    2    5    5    0    0 -0.19365607684E+03 -0.31279878901E+03  0.68635707033E+02  0.38309491879E+03  0.81884662914E+02 0.  0.
         14    1    4    4    0    0  0.16744032694E+03  0.76829595667E+02 -0.28590605549E+02  0.18643087883E+03  0.00000000000E+00 0. -1.
        -13    1    4    4    0    0  0.58005301015E+02  0.87906384802E+02  0.19266553995E+01  0.10533688545E+03  0.00000000000E+00 0.  1.
          5    1    3    3  501    0  0.52110387095E+02  0.16547335180E+03 -0.20091052510E+00  0.17354841677E+03  0.47000000000E+01 0. -1.
         13    1    6    6    0    0 -0.99026333937E+02 -0.13608780587E+03 -0.79949247179E+01  0.16849339613E+03  0.00000000000E+00 0. -1.
        -14    1    6    6    0    0 -0.94629742899E+02 -0.17671098314E+03  0.76630631751E+02  0.21460152265E+03  0.00000000000E+00 0.  1.
         -5    1    5    5    0  502 -0.83899938213E+02 -0.17410543259E+02  0.34489514211E+02  0.92487530182E+02  0.47000000000E+01 0.  1.
</event>
<event>
12    1  0.9749377E-001  0.2286094E+03  0.7818608E-02  0.1127622E+00
         21   -1    0    0  501  502  0.00000000000E+00  0.00000000000E+00  0.29037116465E+03  0.29037116465E+03  0.00000000000E+00 0.  1.
         21   -1    0    0  502  503 -0.00000000000E+00 -0.00000000000E+00 -0.22373416600E+03  0.22373416600E+03  0.00000000000E+00 0. -1.
         -6    2    1    2    0  503 -0.12776727198E+03  0.13390036256E+03  0.70421898401E+02  0.26206616724E+03  0.17165561265E+03 0.  0.
        -24    2    3    3    0    0 -0.14393114707E+03  0.67741324314E+02  0.22139442994E+02  0.17845053055E+03  0.77777726894E+02 0.  0.
          6    2    1    2  501    0  0.12776727198E+03 -0.13390036256E+03 -0.37848997516E+01  0.25203916341E+03  0.17104277694E+03 0.  0.
         24    2    5    5    0    0  0.13352538200E+03 -0.82802478276E+02 -0.47041246565E+02  0.18467930037E+03  0.84901631669E+02 0.  0.
         14    1    6    6    0    0  0.27333179584E+02  0.17020333694E+02 -0.25720741115E+01  0.32301858004E+02  0.00000000000E+00 0. -1.
        -13    1    6    6    0    0  0.10619220242E+03 -0.99822811970E+02 -0.44469172453E+02  0.15237744237E+03  0.00000000000E+00 0.  1.
          5    1    5    5  501    0 -0.57581100187E+01 -0.51097884285E+02  0.43256346813E+02  0.67359863042E+02  0.47000000000E+01 0. -1.
         13    1    4    4    0    0 -0.95901794749E+02  0.50152307224E+02  0.51089954464E+02  0.11967703039E+03  0.00000000000E+00 0. -1.
        -14    1    4    4    0    0 -0.48029352319E+02  0.17589017090E+02 -0.28950511471E+02  0.58773500157E+02  0.00000000000E+00 0.  1.
         -5    1    3    3    0  503  0.16163875083E+02  0.66159038247E+02  0.48282455407E+02  0.83615636693E+02  0.47000000000E+01 0.  1.
</event>
<event>
12    1  0.9749377E-001  0.2086172E+03  0.7818608E-02  0.1142666E+00
         21   -1    0    0  501  502  0.00000000000E+00  0.00000000000E+00  0.99110687573E+02  0.99110687573E+02  0.00000000000E+00 0. -1.
         21   -1    0    0  502  503 -0.00000000000E+00 -0.00000000000E+00 -0.54516240803E+03  0.54516240803E+03  0.00000000000E+00 0.  1.
         -6    2    1    2    0  503 -0.14503419114E+03 -0.39259679431E+02 -0.16999555783E+03  0.28575151342E+03  0.17372161267E+03 0.  0.
        -24    2    3    3    0    0 -0.84074911060E+02 -0.91189744314E+02 -0.10269385876E+03  0.18104060584E+03  0.82737610554E+02 0.  0.
          6    2    1    2  501    0  0.14503419114E+03  0.39259679431E+02 -0.27605616263E+03  0.35852158219E+03  0.17249487221E+03 0.  0.
         24    2    5    5    0    0  0.16798965784E+03  0.61816930118E+02 -0.23810508161E+03  0.30854000998E+03  0.80380656136E+02 0.  0.
         14    1    6    6    0    0  0.84553515101E+02  0.43190573146E+02 -0.18488114153E+03  0.20783589444E+03  0.00000000000E+00 0. -1.
        -13    1    6    6    0    0  0.83436142735E+02  0.18626356972E+02 -0.53223940076E+02  0.10070411554E+03  0.00000000000E+00 0.  1.
          5    1    5    5  501    0 -0.22955466696E+02 -0.22557250687E+02 -0.37951081017E+02  0.49981572206E+02  0.47000000000E+01 0. -1.
         11    1    4    4    0    0 -0.56388001606E+02 -0.62805002125E+02 -0.16274758732E+02  0.85958959910E+02  0.00000000000E+00 0. -1.
        -12    1    4    4    0    0 -0.27686909453E+02 -0.28384742190E+02 -0.86419100027E+02  0.95081645935E+02  0.00000000000E+00 0.  1.
         -5    1    3    3    0  503 -0.60959280080E+02  0.51930064884E+02 -0.67301699074E+02  0.10471090757E+03  0.47000000000E+01 0.  1.
</event>
<event>
12    1  0.9749377E-001  0.1648052E+03  0.7818608E-02  0.1183376E+00
         21   -1    0    0  503  502  0.00000000000E+00  0.00000000000E+00  0.14638174393E+04  0.14638174393E+04  0.00000000000E+00 0.  1.
         21   -1    0    0  501  503 -0.00000000000E+00 -0.00000000000E+00 -0.27306473593E+02  0.27306473593E+02  0.00000000000E+00 0.  1.
          6    2    1    2  501    0  0.45043520028E+02  0.61707701607E+02  0.96932948405E+03  0.98750923745E+03  0.17244734345E+03 0.  0.
         24    2    3    3    0    0 -0.41356491037E+02  0.25709419278E+02  0.33064806272E+03  0.34198860556E+03  0.72503319656E+02 0.  0.
         -6    2    1    2    0  502 -0.45043520028E+02 -0.61707701607E+02  0.46718148162E+03  0.50361467541E+03  0.17185006658E+03 0.  0.
        -24    2    5    5    0    0 -0.92892607817E+02 -0.15943016336E+02  0.27392223295E+03  0.29927386006E+03  0.75154755371E+02 0.  0.
         14    1    4    4    0    0 -0.21619581447E+02  0.16876285119E+02  0.30324227993E+02  0.40887334283E+02  0.00000000000E+00 0. -1.
        -13    1    4    4    0    0 -0.19736909590E+02  0.88331341590E+01  0.30032383473E+03  0.30110127128E+03  0.00000000000E+00 0.  1.
          5    1    3    3  501    0  0.86400011065E+02  0.35998282328E+02  0.63868142133E+03  0.64552063189E+03  0.47000000000E+01 0. -1.
         13    1    6    6    0    0 -0.95070962068E+02 -0.34981545495E+02  0.22620275673E+03  0.24785052654E+03  0.00000000000E+00 0. -1.
        -14    1    6    6    0    0  0.21783542513E+01  0.19038529159E+02  0.47719476214E+02  0.51423333516E+02  0.00000000000E+00 0.  1.
         -5    1    5    5    0  502  0.47849087788E+02 -0.45764685271E+02  0.19325924867E+03  0.20434081535E+03  0.47000000000E+01 0.  1.
</event>
<event>
12    1  0.9749377E-001  0.6378050E+03  0.7818608E-02  0.9829935E-01
         21   -1    0    0  501  502  0.00000000000E+00  0.00000000000E+00  0.10008559596E+04  0.10008559596E+04  0.00000000000E+00 0. -1.
         21   -1    0    0  502  503 -0.00000000000E+00 -0.00000000000E+00 -0.44857508077E+03  0.44857508077E+03  0.00000000000E+00 0.  1.
         -6    2    1    2    0  503  0.15053151182E+03  0.61432314933E+03  0.12522868285E+03  0.66717978995E+03  0.17144673010E+03 0.  0.
        -24    2    3    3    0    0  0.11907268686E+03  0.39892279094E+03  0.14642888320E+03  0.44841390926E+03  0.79472751888E+02 0.  0.
          6    2    1    2  501    0 -0.15053151182E+03 -0.61432314933E+03  0.42705219597E+03  0.78225125040E+03  0.17172877692E+03 0.  0.
         24    2    5    5    0    0 -0.79111302058E+02 -0.20478609053E+03  0.10544546068E+03  0.25663310852E+03  0.80906527692E+02 0.  0.
         14    1    6    6    0    0 -0.79474375024E+02 -0.18282666998E+03  0.63391287746E+02  0.20918944262E+03  0.00000000000E+00 0. -1.
        -13    1    6    6    0    0  0.36307296626E+00 -0.21959420544E+02  0.42054172932E+02  0.47443665896E+02  0.00000000000E+00 0.  1.
          5    1    5    5  501    0 -0.71420209762E+02 -0.40953705880E+03  0.32160673529E+03  0.52561814189E+03  0.47000000000E+01 0. -1.
         13    1    4    4    0    0  0.15013075839E+02  0.15361837647E+03  0.79745276405E+02  0.17373343704E+03  0.00000000000E+00 0. -1.
        -14    1    4    4    0    0  0.10405961102E+03  0.24530441447E+03  0.66683606795E+02  0.27468047222E+03  0.00000000000E+00 0.  1.
         -5    1    3    3    0  503  0.31458824958E+02  0.21540035838E+03 -0.21200200348E+02  0.21876588069E+03  0.47000000000E+01 0.  1.
</event>
<event>
12    1  0.9749377E-001  0.5260291E+03  0.7818608E-02  0.1007200E+00
         21   -1    0    0  503  502  0.00000000000E+00  0.00000000000E+00  0.20954331649E+03  0.20954331649E+03  0.00000000000E+00 0.  1.
         21   -1    0    0  501  503 -0.00000000000E+00 -0.00000000000E+00 -0.14330704465E+04  0.14330704465E+04  0.00000000000E+00 0. -1.
          6    2    1    2  501    0  0.30247795901E+03  0.41821630940E+03 -0.51453602173E+03  0.74897924123E+03  0.17269854951E+03 0.  0.
         24    2    3    3    0    0  0.15042713533E+03  0.15424409320E+03 -0.15304569456E+03  0.27622335228E+03  0.80354168449E+02 0.  0.
         -6    2    1    2    0  502 -0.30247795901E+03 -0.41821630940E+03 -0.70899110825E+03  0.89363452174E+03  0.17180357890E+03 0.  0.
        -24    2    5    5    0    0 -0.26895363299E+03 -0.28772360136E+03 -0.46270474396E+03  0.61286541638E+03  0.79921280223E+02 0.  0.
         14    1    4    4    0    0  0.65947618514E+02  0.75278058794E+02 -0.23943998061E+02  0.10290378791E+03  0.00000000000E+00 0. -1.
        -13    1    4    4    0    0  0.84479516818E+02  0.78966034405E+02 -0.12910169650E+03  0.17331956436E+03  0.00000000000E+00 0.  1.
          5    1    3    3  501    0  0.15205082367E+03  0.26397221620E+03 -0.36149032716E+03  0.47275588895E+03  0.47000000000E+01 0. -1.
         11    1    6    6    0    0 -0.25007427537E+03 -0.28247103138E+03 -0.45669979031E+03  0.59236958500E+03  0.00000000000E+00 0. -1.
        -12    1    6    6    0    0 -0.18879357618E+02 -0.52525699818E+01 -0.60049536566E+01  0.20495831378E+02  0.00000000000E+00 0.  1.
         -5    1    5    5    0  502 -0.33524326015E+02 -0.13049270804E+03 -0.24628636429E+03  0.28076910535E+03  0.47000000000E+01 0.  1.
</event>
<event>
12    1  0.9749377E-001  0.2759766E+03  0.7818608E-02  0.1097907E+00
         21   -1    0    0  501  502  0.00000000000E+00  0.00000000000E+00  0.34141433874E+04  0.34141433874E+04  0.00000000000E+00 0.  1.
         21   -1    0    0  502  503 -0.00000000000E+00 -0.00000000000E+00 -0.27836490263E+02  0.27836490263E+02  0.00000000000E+00 0. -1.
         -6    2    1    2    0  503 -0.21592542857E+03  0.11275931113E+03  0.13022943747E+04  0.13361905875E+04  0.17348254863E+03 0.  0.
        -24    2    3    3    0    0 -0.93487438800E+02  0.12619758940E+03  0.73731853967E+03  0.75792470326E+03  0.78393201734E+02 0.  0.
          6    2    1    2  501    0  0.21592542857E+03 -0.11275931113E+03  0.20840125224E+04  0.21057892902E+04  0.17861099666E+03 0.  0.
         24    2    5    5    0    0  0.21579345631E+03 -0.12282563066E+03  0.20754923695E+04  0.20917881755E+04  0.79096423197E+02 0.  0.
         14    1    6    6    0    0  0.90734569320E+02 -0.25352004714E+02  0.10356969808E+04  0.10399729431E+04  0.00000000000E+00 0. -1.
        -13    1    6    6    0    0  0.12505888699E+03 -0.97473625950E+02  0.10397953886E+04  0.10518152324E+04  0.00000000000E+00 0.  1.
          5    1    5    5  501    0  0.13197225813E+00  0.10066319538E+02  0.85201529371E+01  0.14001114662E+02  0.47000000000E+01 0. -1.
         11    1    4    4    0    0 -0.85779068593E+02  0.77804334855E+02  0.37980761051E+03  0.39707100641E+03  0.00000000000E+00 0. -1.
        -12    1    4    4    0    0 -0.77083702074E+01  0.48393254548E+02  0.35751092916E+03  0.36085369684E+03  0.00000000000E+00 0.  1.
         -5    1    3    3    0  503 -0.12243798977E+03 -0.13438278276E+02  0.56497583504E+03  0.57826588421E+03  0.47000000000E+01 0.  1.
</event>
<event>
12    1  0.9749377E-001  0.5319337E+03  0.7818608E-02  0.1005764E+00
         21   -1    0    0  501  502  0.00000000000E+00  0.00000000000E+00  0.27597650588E+03  0.27597650588E+03  0.00000000000E+00 0.  1.
         21   -1    0    0  502  503 -0.00000000000E+00 -0.00000000000E+00 -0.10837343533E+04  0.10837343533E+04  0.00000000000E+00 0. -1.
         -6    2    1    2    0  503 -0.49315309674E+02 -0.51256457635E+03 -0.48066588749E+03  0.72517094465E+03  0.17227524160E+03 0.  0.
        -24    2    3    3    0    0 -0.95330762918E+02 -0.32499260435E+03 -0.33678700709E+03  0.48428946166E+03  0.80016543890E+02 0.  0.
          6    2    1    2  501    0  0.49315309674E+02  0.51256457635E+03 -0.32709195991E+03  0.63453991452E+03  0.17463478514E+03 0.  0.
         24    2    5    5    0    0 -0.10542973372E+02  0.27919665267E+03 -0.11200828535E+03  0.31154350755E+03  0.80321702919E+02 0.  0.
         12    1    6    6    0    0  0.48448221793E+00  0.25759905974E+03 -0.12235180344E+03  0.28517972247E+03  0.00000000000E+00 0. -1.
        -11    1    6    6    0    0 -0.11027455590E+02  0.21597592926E+02  0.10343518094E+02  0.26363785076E+02  0.00000000000E+00 0.  1.
          5    1    5    5  501    0  0.59858283046E+02  0.23336792368E+03 -0.21508367456E+03  0.32299640697E+03  0.47000000000E+01 0. -1.
         11    1    4    4    0    0 -0.36245146450E+02 -0.30125946405E+02 -0.50622382961E+02  0.69165807626E+02  0.00000000000E+00 0. -1.
        -12    1    4    4    0    0 -0.59085616468E+02 -0.29486665794E+03 -0.28616462413E+03  0.41512365404E+03  0.00000000000E+00 0.  1.
         -5    1    3    3    0  503  0.46015453244E+02 -0.18757197201E+03 -0.14387888040E+03  0.24088148298E+03  0.47000000000E+01 0.  1.
</event>
<event>
12    1  0.1977518E+000  0.8906801E+03  0.7818608E-02  0.9437307E-01
         21   -1    0    0  503  502  0.00000000000E+00  0.00000000000E+00  0.76153920835E+03  0.76153920835E+03  0.00000000000E+00 0. -1.
         21   -1    0    0  501  503 -0.00000000000E+00 -0.00000000000E+00 -0.11566200778E+04  0.11566200778E+04  0.00000000000E+00 0.  1.
          6    2    1    2  501    0  0.87810669976E+03  0.71858417814E+02  0.82779284635E+02  0.90108459800E+03  0.16990007186E+03 0.  0.
         24    2    3    3    0    0  0.45159546548E+03  0.10122912996E+03  0.49915917126E+02  0.47227629279E+03  0.79796596111E+02 0.  0.
         -6    2    1    2    0  502 -0.87810669976E+03 -0.71858417814E+02 -0.47786015411E+03  0.10170746882E+04  0.17278769066E+03 0.  0.
        -24    2    5    5    0    0 -0.21208117686E+03 -0.46029038261E+02 -0.11105969896E+03  0.25627128524E+03  0.79016561326E+02 0.  0.
         12    1    4    4    0    0  0.37813459820E+03  0.96917505838E+02  0.14541413496E+02  0.39062799439E+03  0.00000000000E+00 0. -1.
        -11    1    4    4    0    0  0.73460867288E+02  0.43116241181E+01  0.35374503630E+02  0.81648298404E+02  0.00000000000E+00 0.  1.
          5    1    3    3  501    0  0.42651123428E+03 -0.29370712142E+02  0.32863367509E+02  0.42880830521E+03  0.47000000000E+01 0. -1.
         13    1    6    6    0    0 -0.13178531730E+02  0.10158432899E+02 -0.29906343558E+02  0.34223629885E+02  0.00000000000E+00 0. -1.
        -14    1    6    6    0    0 -0.19890264513E+03 -0.56187471161E+02 -0.81153355399E+02  0.22204765536E+03  0.00000000000E+00 0.  1.
         -5    1    5    5    0  502 -0.66602552290E+03 -0.25829379552E+02 -0.36680045515E+03  0.76080340292E+03  0.47000000000E+01 0.  1.
</event>
<event>
12    1  0.9749377E-001  0.3278119E+03  0.7818608E-02  0.1072109E+00
         21   -1    0    0  501  502  0.00000000000E+00  0.00000000000E+00  0.50787421829E+03  0.50787421829E+03  0.00000000000E+00 0.  1.
         21   -1    0    0  502  503 -0.00000000000E+00 -0.00000000000E+00 -0.27797211312E+03  0.27797211312E+03  0.00000000000E+00 0. -1.
         -6    2    1    2    0  503 -0.43045415572E+02 -0.29569885080E+03  0.26927874094E+03  0.43892051678E+03  0.17564014794E+03 0.  0.
        -24    2    3    3    0    0 -0.22297133156E+02 -0.24420448191E+03  0.13191576448E+03  0.29068813655E+03  0.83455573074E+02 0.  0.
          6    2    1    2  501    0  0.43045415572E+02  0.29569885080E+03 -0.39376635769E+02  0.34692581462E+03  0.17180303618E+03 0.  0.
         24    2    5    5    0    0 -0.28502375391E+02  0.23654348099E+03 -0.21508591603E+02  0.25226958835E+03  0.80075725997E+02 0.  0.
         14    1    6    6    0    0 -0.82832003980E+01 -0.24978979955E+01  0.63931434895E+01  0.10757471213E+02  0.00000000000E+00 0. -1.
        -13    1    6    6    0    0 -0.20219174993E+02  0.23904137899E+03 -0.27901735093E+02  0.24151211714E+03  0.00000000000E+00 0.  1.
          5    1    5    5  501    0  0.71547790963E+02  0.59155369807E+02 -0.17868044166E+02  0.94656226267E+02  0.47000000000E+01 0. -1.
         11    1    4    4    0    0 -0.46187400108E+02 -0.79215517832E+02  0.37240292423E+02  0.98970771312E+02  0.00000000000E+00 0. -1.
        -12    1    4    4    0    0  0.23890266953E+02 -0.16498896408E+03  0.94675472060E+02  0.19171736524E+03  0.00000000000E+00 0.  1.
         -5    1    3    3    0  503 -0.20748282416E+02 -0.51494368886E+02  0.13736297646E+03  0.14823238024E+03  0.47000000000E+01 0.  1.
</event>
<event>
12    1  0.9749377E-001  0.2609672E+03  0.7818608E-02  0.1106564E+00
         21   -1    0    0  501  502  0.00000000000E+00  0.00000000000E+00  0.52577552214E+03  0.52577552214E+03  0.00000000000E+00 0. -1.
         21   -1    0    0  502  503 -0.00000000000E+00 -0.00000000000E+00 -0.20489513285E+03  0.20489513285E+03  0.00000000000E+00 0.  1.
         -6    2    1    2    0  503  0.99535636184E+02 -0.20057180394E+03  0.34683555985E+03  0.44705220197E+03  0.17153534418E+03 0.  0.
        -24    2    3    3    0    0  0.10504789628E+03 -0.22261550589E+03  0.31574553294E+03  0.40825800678E+03  0.79916422304E+02 0.  0.
          6    2    1    2  501    0 -0.99535636184E+02  0.20057180394E+03 -0.25955170561E+02  0.28361845303E+03  0.17213182336E+03 0.  0.
         24    2    5    5    0    0 -0.37510789881E+02  0.75501023825E+02 -0.71510849917E+02  0.13669265026E+03  0.80396610773E+02 0.  0.
         14    1    6    6    0    0 -0.33855291368E+02  0.84981692968E+02 -0.33614456040E+02  0.97457685937E+02  0.00000000000E+00 0. -1.
        -13    1    6    6    0    0 -0.36554985137E+01 -0.94806691427E+01 -0.37896393877E+02  0.39234964326E+02  0.00000000000E+00 0.  1.
          5    1    5    5  501    0 -0.62024846302E+02  0.12507078011E+03  0.45555679355E+02  0.14692580277E+03  0.47000000000E+01 0. -1.
         11    1    4    4    0    0 -0.11850632770E+02 -0.27648703793E+02  0.51907621791E+02  0.59994079029E+02  0.00000000000E+00 0. -1.
        -12    1    4    4    0    0  0.11689852905E+03 -0.19496680209E+03  0.26383791115E+03  0.34826392775E+03  0.00000000000E+00 0.  1.
         -5    1    3    3    0  503 -0.55122600998E+01  0.22043701949E+02  0.31090026908E+02  0.38794195187E+02  0.47000000000E+01 0.  1.
</event>
<event>
12    1  0.9749377E-001  0.5042349E+03  0.7818608E-02  0.1012679E+00
         21   -1    0    0  503  502  0.00000000000E+00  0.00000000000E+00  0.78676902994E+03  0.78676902994E+03  0.00000000000E+00 0.  1.
         21   -1    0    0  501  503 -0.00000000000E+00 -0.00000000000E+00 -0.41646249787E+03  0.41646249787E+03  0.00000000000E+00 0. -1.
          6    2    1    2  501    0  0.25694036682E+03 -0.40638661740E+03  0.45736224647E+03  0.68479408473E+03  0.16909843015E+03 0.  0.
         24    2    3    3    0    0  0.78125897186E+02 -0.24806923477E+03  0.24691024431E+03  0.36643714133E+03  0.75296140370E+02 0.  0.
         -6    2    1    2    0  502 -0.25694036682E+03  0.40638661740E+03 -0.87055714402E+02  0.51843744308E+03  0.17329238319E+03 0.  0.
        -24    2    5    5    0    0 -0.86125625864E+02  0.25702838490E+03 -0.68066552767E+02  0.29069145387E+03  0.79920283219E+02 0.  0.
         14    1    4    4    0    0  0.36431809567E+02 -0.42140498188E+02  0.82984299029E+02  0.99947447297E+02  0.00000000000E+00 0. -1.
        -13    1    4    4    0    0  0.41694087619E+02 -0.20592873658E+03  0.16392594528E+03  0.26648969404E+03  0.00000000000E+00 0.  1.
          5    1    3    3  501    0  0.17881446964E+03 -0.15831738264E+03  0.21045200217E+03  0.31835694340E+03  0.47000000000E+01 0. -1.
         13    1    6    6    0    0 -0.26089876724E+02  0.16433023834E+03 -0.11965082235E+02  0.16681808083E+03  0.00000000000E+00 0. -1.
        -14    1    6    6    0    0 -0.60035749140E+02  0.92698146566E+02 -0.56101470532E+02  0.12387337304E+03  0.00000000000E+00 0.  1.
         -5    1    5    5    0  502 -0.17081474096E+03  0.14935823250E+03 -0.18989161635E+02  0.22774598922E+03  0.47000000000E+01 0.  1.
</event>
<event>
12    1  0.9749377E-001  0.2129142E+03  0.7818608E-02  0.1139279E+00
         21   -1    0    0  501  502  0.00000000000E+00  0.00000000000E+00  0.24159518921E+04  0.24159518921E+04  0.00000000000E+00 0.  1.
         21   -1    0    0  502  503 -0.00000000000E+00 -0.00000000000E+00 -0.24955786320E+02  0.24955786320E+02  0.00000000000E+00 0. -1.
         -6    2    1    2    0  503 -0.30743600675E+02 -0.16830462349E+03  0.10888568692E+04  0.11163422744E+04  0.17702874578E+03 0.  0.
        -24    2    3    3    0    0  0.39628022339E+02 -0.10370543391E+03  0.46406413542E+03  0.48427165276E+03  0.82694103171E+02 0.  0.
          6    2    1    2  501    0  0.30743600675E+02  0.16830462349E+03  0.13021392367E+04  0.13245654041E+04  0.17214907118E+03 0.  0.
         24    2    5    5    0    0  0.53626039226E+02  0.15471219704E+03  0.75149897525E+03  0.77326226827E+03  0.79826121812E+02 0.  0.
         14    1    6    6    0    0  0.50473885922E+02  0.11938830923E+03  0.41182199127E+03  0.43173896516E+03  0.00000000000E+00 0. -1.
        -13    1    6    6    0    0  0.31521533041E+01  0.35323887813E+02  0.33967698398E+03  0.34152330311E+03  0.00000000000E+00 0.  1.
          5    1    5    5  501    0 -0.22882438551E+02  0.13592426447E+02  0.55064026140E+03  0.55130313578E+03  0.47000000000E+01 0. -1.
         13    1    4    4    0    0  0.39698370017E+02 -0.57403971532E+01  0.15107665277E+03  0.15631080498E+03  0.00000000000E+00 0. -1.
        -14    1    4    4    0    0 -0.70347677349E-01 -0.97965036757E+02  0.31298748266E+03  0.32796084778E+03  0.00000000000E+00 0.  1.
         -5    1    3    3    0  503 -0.70371623014E+02 -0.64599189575E+02  0.62479273375E+03  0.63207062166E+03  0.47000000000E+01 0.  1.
</event>
<event>
12    1  0.9749377E-001  0.3160454E+03  0.7818608E-02  0.1077484E+00
         21   -1    0    0  503  502  0.00000000000E+00  0.00000000000E+00  0.34200449448E+03  0.34200449448E+03  0.00000000000E+00 0. -1.
         21   -1    0    0  501  503 -0.00000000000E+00 -0.00000000000E+00 -0.41303885414E+03  0.41303885414E+03  0.00000000000E+00 0.  1.
          6    2    1    2  501    0 -0.29032647651E+03  0.51599338073E+02  0.12093536825E+03  0.36333063216E+03  0.17444721356E+03 0.  0.
         24    2    3    3    0    0 -0.70821944992E+02 -0.24894569156E+02  0.38606304261E+02  0.11668570118E+03  0.80558169454E+02 0.  0.
         -6    2    1    2    0  502  0.29032647651E+03 -0.51599338073E+02 -0.19196972791E+03  0.39171271646E+03  0.17214680117E+03 0.  0.
        -24    2    5    5    0    0  0.15422758883E+03 -0.12586354131E+02 -0.29944627171E+02  0.17649388965E+03  0.79428250145E+02 0.  0.
         14    1    4    4    0    0 -0.25587607109E+02 -0.32740862859E+02  0.54113839327E+02  0.68227540957E+02  0.00000000000E+00 0. -1.
        -13    1    4    4    0    0 -0.45234337883E+02  0.78462937023E+01 -0.15507535067E+02  0.48458160225E+02  0.00000000000E+00 0.  1.
          5    1    3    3  501    0 -0.21950453152E+03  0.76493907229E+02  0.82329063985E+02  0.24664493098E+03  0.47000000000E+01 0. -1.
         13    1    6    6    0    0  0.75800335421E+01  0.19003339837E+02  0.76510923718E+01  0.21843146475E+02  0.00000000000E+00 0. -1.
        -14    1    6    6    0    0  0.14664755529E+03 -0.31589693968E+02 -0.37595719543E+02  0.15465074318E+03  0.00000000000E+00 0.  1.
         -5    1    5    5    0  502  0.13609888768E+03 -0.39012983942E+02 -0.16202510074E+03  0.21521882681E+03  0.47000000000E+01 0.  1.
</event>
<event>
12    1  0.9749377E-001  0.5126791E+03  0.7818608E-02  0.1010521E+00
         21   -1    0    0  503  502  0.00000000000E+00  0.00000000000E+00  0.37766093638E+03  0.37766093638E+03  0.00000000000E+00 0. -1.
         21   -1    0    0  501  503 -0.00000000000E+00 -0.00000000000E+00 -0.88101599525E+03  0.88101599525E+03  0.00000000000E+00 0.  1.
          6    2    1    2  501    0 -0.37866490157E+03  0.32766522409E+03 -0.27456748017E+01  0.52994656056E+03  0.17344800824E+03 0.  0.
         24    2    3    3    0    0 -0.37615091905E+03  0.31164656065E+03 -0.31980161553E+02  0.49618766689E+03  0.81033186850E+02 0.  0.
         -6    2    1    2    0  502  0.37866490157E+03 -0.32766522409E+03 -0.50060938406E+03  0.72873037106E+03  0.17229797311E+03 0.  0.
        -24    2    5    5    0    0  0.24812261926E+03 -0.27957353489E+03 -0.30733767752E+03  0.49054947218E+03  0.80350115347E+02 0.  0.
         14    1    4    4    0    0 -0.26614089258E+03  0.21094117798E+03  0.14679893556E+02  0.33991565799E+03  0.00000000000E+00 0. -1.
        -13    1    4    4    0    0 -0.11001002647E+03  0.10070538267E+03 -0.46660055109E+02  0.15627200890E+03  0.00000000000E+00 0.  1.
          5    1    3    3  501    0 -0.25139825218E+01  0.16018663435E+02  0.29234486751E+02  0.33758893672E+02  0.47000000000E+01 0. -1.
         11    1    6    6    0    0  0.15462721696E+03 -0.12055879355E+03 -0.18208813386E+03  0.26758192656E+03  0.00000000000E+00 0. -1.
        -12    1    6    6    0    0  0.93495402293E+02 -0.15901474135E+03 -0.12524954366E+03  0.22296754563E+03  0.00000000000E+00 0.  1.
         -5    1    5    5    0  502  0.13054228232E+03 -0.48091689195E+02 -0.19327170654E+03  0.23818089888E+03  0.47000000000E+01 0.  1.
</event>
<event>
12    1  0.9749377E-001  0.3277363E+03  0.7818608E-02  0.1072143E+00
         21   -1    0    0  503  502  0.00000000000E+00  0.00000000000E+00  0.10496096958E+03  0.10496096958E+03  0.00000000000E+00 0. -1.
         21   -1    0    0  501  503 -0.00000000000E+00 -0.00000000000E+00 -0.19850328371E+04  0.19850328371E+04  0.00000000000E+00 0.  1.
          6    2    1    2  501    0  0.24617690773E+03  0.20328722354E+03 -0.15819853372E+04  0.16229527318E+04  0.17137443558E+03 0.  0.
         24    2    3    3    0    0  0.14840913895E+03  0.10294756082E+03 -0.61091692132E+03  0.64181943658E+03  0.78033528826E+02 0.  0.
         -6    2    1    2    0  502 -0.24617690773E+03 -0.20328722354E+03 -0.29808653032E+03  0.46704107495E+03  0.16535725258E+03 0.  0.
        -24    2    5    5    0    0 -0.19619159849E+03 -0.14207975187E+03 -0.13679078730E+03  0.28736555507E+03  0.72037792460E+02 0.  0.
         14    1    4    4    0    0  0.10757058637E+03  0.93263147630E+02 -0.54797014779E+03  0.56616316432E+03  0.00000000000E+00 0. -1.
        -13    1    4    4    0    0  0.40838552584E+02  0.96844131870E+01 -0.62946773522E+02  0.75656272263E+02  0.00000000000E+00 0.  1.
          5    1    3    3  501    0  0.97767768774E+02  0.10033966272E+03 -0.97106841592E+03  0.98113329519E+03  0.47000000000E+01 0. -1.
         11    1    6    6    0    0 -0.83401971932E+02 -0.20363788010E+02 -0.58462034536E+02  0.10386713757E+03  0.00000000000E+00 0. -1.
        -12    1    6    6    0    0 -0.11278962656E+03 -0.12171596386E+03 -0.78328752765E+02  0.18349841751E+03  0.00000000000E+00 0.  1.
         -5    1    5    5    0  502 -0.49985309239E+02 -0.61207471671E+02 -0.16129574302E+03  0.17967551988E+03  0.47000000000E+01 0.  1.
</event>
<event>
12    1  0.9749377E-001  0.3339739E+03  0.7818608E-02  0.1069392E+00
         21   -1    0    0  501  502  0.00000000000E+00  0.00000000000E+00  0.33906950226E+03  0.33906950226E+03  0.00000000000E+00 0.  1.
         21   -1    0    0  502  503 -0.00000000000E+00 -0.00000000000E+00 -0.39251868515E+03  0.39251868515E+03  0.00000000000E+00 0. -1.
         -6    2    1    2    0  503 -0.92883341798E+02  0.30455702654E+03 -0.73632489036E+02  0.36921318213E+03  0.17179735976E+03 0.  0.
        -24    2    3    3    0    0 -0.82143214983E+02  0.22446437594E+03  0.98544784854E+01  0.25292755641E+03  0.82118659325E+02 0.  0.
          6    2    1    2  501    0  0.92883341798E+02 -0.30455702654E+03  0.20183306141E+02  0.36237500527E+03  0.17183125734E+03 0.  0.
         24    2    5    5    0    0  0.10916405901E+03 -0.20448924551E+03  0.62309817613E+02  0.25248708272E+03  0.78323497504E+02 0.  0.
         14    1    6    6    0    0  0.26541555181E+02 -0.10154256029E+02  0.25403107696E+02  0.38116675452E+02  0.00000000000E+00 0. -1.
        -13    1    6    6    0    0  0.82622503830E+02 -0.19433498948E+03  0.36906709917E+02  0.21437040727E+03  0.00000000000E+00 0.  1.
          5    1    5    5  501    0 -0.16280717213E+02 -0.10006778103E+03 -0.42126511472E+02  0.10988792255E+03  0.47000000000E+01 0. -1.
         11    1    4    4    0    0 -0.16947438336E+02  0.13026051724E+03  0.34347755937E+02  0.13577476333E+03  0.00000000000E+00 0. -1.
        -12    1    4    4    0    0 -0.65195776647E+02  0.94203858702E+02 -0.24493277451E+02  0.11715279308E+03  0.00000000000E+00 0.  1.
         -5    1    3    3    0  503 -0.10740126815E+02  0.80092650598E+02 -0.83486967521E+02  0.11628562572E+03  0.47000000000E+01 0.  1.
</event>
<event>
12    1  0.9749377E-001  0.2162750E+03  0.7818608E-02  0.1136691E+00
         21   -1    0    0  503  502  0.00000000000E+00  0.00000000000E+00  0.56237612500E+02  0.56237612500E+02  0.00000000000E+00 0.  1.
         21   -1    0    0  501  503 -0.00000000000E+00 -0.00000000000E+00 -0.16361402388E+04  0.16361402388E+04  0.00000000000E+00 0. -1.
          6    2    1    2  501    0 -0.76307848373E+02  0.18380298249E+03 -0.37214029592E+03  0.45655983580E+03  0.17421842532E+03 0.  0.
         24    2    3    3    0    0  0.58098783849E+01  0.48726693581E+02 -0.21395892927E+03  0.23288069142E+03  0.77762122324E+02 0.  0.
         -6    2    1    2    0  502  0.76307848373E+02 -0.18380298249E+03 -0.12077623304E+04  0.12358180155E+04  0.17014669157E+03 0.  0.
        -24    2    5    5    0    0  0.40305565273E+02 -0.17113947645E+03 -0.68578430178E+03  0.71242554220E+03  0.79603929602E+02 0.  0.
         12    1    4    4    0    0 -0.31258098584E+01  0.25394882373E+02 -0.20461131481E+03  0.20620490025E+03  0.00000000000E+00 0. -1.
        -11    1    4    4    0    0  0.89356882434E+01  0.23331811208E+02 -0.93476144600E+01  0.26675791173E+02  0.00000000000E+00 0.  1.
          5    1    3    3  501    0 -0.82117726758E+02  0.13507628891E+03 -0.15818136665E+03  0.22367914438E+03  0.47000000000E+01 0. -1.
         13    1    6    6    0    0 -0.13292470480E+02 -0.66438053742E+02 -0.16202570505E+03  0.17562184902E+03  0.00000000000E+00 0. -1.
        -14    1    6    6    0    0  0.53598035753E+02 -0.10470142271E+03 -0.52375859674E+03  0.53680369318E+03  0.00000000000E+00 0.  1.
         -5    1    5    5    0  502  0.36002283100E+02 -0.12663506044E+02 -0.52197802864E+03  0.52339247335E+03  0.47000000000E+01 0.  1.
</event>
<event>
12    1  0.9749377E-001  0.2583382E+03  0.7818608E-02  0.1108146E+00
         21   -1    0    0  503  502  0.00000000000E+00  0.00000000000E+00  0.67177782123E+02  0.67177782123E+02  0.00000000000E+00 0. -1.
         21   -1    0    0  501  503 -0.00000000000E+00 -0.00000000000E+00 -0.12221707239E+04  0.12221707239E+04  0.00000000000E+00 0.  1.
          6    2    1    2  501    0  0.20339294519E+01 -0.22148950846E+03 -0.71072675162E+03  0.76405819366E+03  0.17201938442E+03 0.  0.
         24    2    3    3    0    0 -0.47877213262E+02 -0.12184064656E+03 -0.28557216278E+03  0.32451350623E+03  0.81364518466E+02 0.  0.
         -6    2    1    2    0  502 -0.20339294519E+01  0.22148950846E+03 -0.44426619017E+03  0.52529031237E+03  0.17174319582E+03 0.  0.
        -24    2    5    5    0    0 -0.26585540127E+02  0.11176484357E+03 -0.12826142198E+03  0.18984525399E+03  0.79950340163E+02 0.  0.
         14    1    4    4    0    0 -0.22051591741E+02 -0.12508174111E+03 -0.25026047198E+03  0.28064571704E+03  0.00000000000E+00 0. -1.
        -13    1    4    4    0    0 -0.25825621521E+02  0.32410945536E+01 -0.35311690801E+02  0.43867789186E+02  0.00000000000E+00 0.  1.
          5    1    3    3  501    0  0.49911142714E+02 -0.99648861901E+02 -0.42515458884E+03  0.43954468744E+03  0.47000000000E+01 0. -1.
         11    1    6    6    0    0  0.22941483947E+02  0.75228392353E+01 -0.27956575891E+02  0.36938799810E+02  0.00000000000E+00 0. -1.
        -12    1    6    6    0    0 -0.49527024073E+02  0.10424200433E+03 -0.10030484609E+03  0.15290645418E+03  0.00000000000E+00 0.  1.
         -5    1    5    5    0  502  0.24551610675E+02  0.10972466489E+03 -0.31600476819E+03  0.33544505838E+03  0.47000000000E+01 0.  1.
</event>
<event>
12    1  0.9749377E-001  0.3842122E+03  0.7818608E-02  0.1049388E+00
         21   -1    0    0  501  502  0.00000000000E+00  0.00000000000E+00  0.14230945035E+04  0.14230945035E+04  0.00000000000E+00 0.  1.
         21   -1    0    0  502  503 -0.00000000000E+00 -0.00000000000E+00 -0.12440304189E+03  0.12440304189E+03  0.00000000000E+00 0. -1.
         -6    2    1    2    0  503  0.13391007558E+03 -0.33479272133E+03  0.89340354549E+03  0.97871169196E+03  0.17230381972E+03 0.  0.
        -24    2    3    3    0    0  0.14557183973E+03 -0.30388860376E+03  0.68890154514E+03  0.77150595031E+03  0.84241607598E+02 0.  0.
          6    2    1    2  501    0 -0.13391007558E+03  0.33479272133E+03  0.40528791611E+03  0.56878585342E+03  0.17099993423E+03 0.  0.
         24    2    5    5    0    0 -0.13450713136E+03  0.34890663047E+03  0.39846783970E+03  0.55241019010E+03  0.80946857145E+02 0.  0.
         14    1    6    6    0    0 -0.64270809945E+02  0.70220811970E+02  0.10019010645E+03  0.13820187002E+03  0.00000000000E+00 0. -1.
        -13    1    6    6    0    0 -0.70236321418E+02  0.27868581850E+03  0.29827773324E+03  0.41420832008E+03  0.00000000000E+00 0.  1.
          5    1    5    5  501    0  0.59705577847E+00 -0.14113909140E+02  0.68200764107E+01  0.16375663317E+02  0.47000000000E+01 0. -1.
         13    1    4    4    0    0  0.19588652922E+02 -0.59298554802E+02  0.21119790019E+03  0.22023756939E+03  0.00000000000E+00 0. -1.
        -14    1    4    4    0    0  0.12598318681E+03 -0.24459004895E+03  0.47770364495E+03  0.55126838092E+03  0.00000000000E+00 0.  1.
         -5    1    3    3    0  503 -0.11661764148E+02 -0.30904117569E+02  0.20450200035E+03  0.20720574166E+03  0.47000000000E+01 0.  1.
</event>
<event>
12    1  0.9749377E-001  0.2270331E+03  0.7818608E-02  0.1128746E+00
         21   -1    0    0  501  502  0.00000000000E+00  0.00000000000E+00  0.38471763015E+03  0.38471763015E+03  0.00000000000E+00 0.  1.
         21   -1    0    0  502  503 -0.00000000000E+00 -0.00000000000E+00 -0.15946432150E+03  0.15946432150E+03  0.00000000000E+00 0. -1.
         -6    2    1    2    0  503 -0.17862823365E+03  0.24582241651E+01  0.12367417172E+03  0.27579724953E+03  0.16986681069E+03 0.  0.
        -24    2    3    3    0    0 -0.18240999827E+03  0.21557222074E+02  0.59293727462E+02  0.20837318063E+03  0.78520793403E+02 0.  0.
          6    2    1    2  501    0  0.17862823365E+03 -0.24582241651E+01  0.10157913692E+03  0.26838470211E+03  0.17262079407E+03 0.  0.
         24    2    5    5    0    0  0.36487640167E+02 -0.23821550055E+02  0.83587253408E+02  0.12344975849E+03  0.79713234834E+02 0.  0.
         12    1    6    6    0    0 -0.55684517388E+01  0.25421980445E+02  0.21906279812E+02  0.34017199175E+02  0.00000000000E+00 0. -1.
        -11    1    6    6    0    0  0.42056091906E+02 -0.49243530500E+02  0.61680973596E+02  0.89432559318E+02  0.00000000000E+00 0.  1.
          5    1    5    5  501    0  0.14214059348E+03  0.21363325890E+02  0.17991883514E+02  0.14493494362E+03  0.47000000000E+01 0. -1.
         11    1    4    4    0    0 -0.59193951114E+02 -0.29412133626E+02  0.14144024735E+02  0.67594754890E+02  0.00000000000E+00 0. -1.
        -12    1    4    4    0    0 -0.12321604715E+03  0.50969355700E+02  0.45149702727E+02  0.14077842574E+03  0.00000000000E+00 0.  1.
         -5    1    3    3    0  503  0.37817646145E+01 -0.19098997909E+02  0.64380444262E+02  0.67424068908E+02  0.47000000000E+01 0.  1.
</event>
<event>
12    1  0.9749377E-001  0.3977810E+03  0.7818608E-02  0.1044551E+00
         21   -1    0    0  503  502  0.00000000000E+00  0.00000000000E+00  0.46866930256E+03  0.46866930256E+03  0.00000000000E+00 0. -1.
         21   -1    0    0  501  503 -0.00000000000E+00 -0.00000000000E+00 -0.38150298806E+03  0.38150298806E+03  0.00000000000E+00 0.  1.
          6    2    1    2  501    0  0.25066632697E+03  0.27799928254E+03 -0.51588470455E+02  0.41550980395E+03  0.17282887006E+03 0.  0.
         24    2    3    3    0    0  0.19398643796E+03  0.15712081207E+03  0.21795927384E+02  0.26309072940E+03  0.80149745762E+02 0.  0.
         -6    2    1    2    0  502 -0.25066632697E+03 -0.27799928254E+03  0.13875478496E+03  0.43466248668E+03  0.17193422699E+03 0.  0.
        -24    2    5    5    0    0 -0.20805896415E+03 -0.29039626296E+03  0.11223256386E+03  0.38275303954E+03  0.79279371732E+02 0.  0.
         14    1    4    4    0    0  0.73943225672E+02  0.19469496549E+02 -0.11846465113E+02  0.77375711010E+02  0.00000000000E+00 0. -1.
        -13    1    4    4    0    0  0.12004321229E+03  0.13765131552E+03  0.33642392497E+02  0.18571501839E+03  0.00000000000E+00 0.  1.
          5    1    3    3  501    0  0.56679889003E+02  0.12087847046E+03 -0.73384397838E+02  0.15241907454E+03  0.47000000000E+01 0. -1.
         11    1    6    6    0    0 -0.11573441449E+03 -0.13849977685E+03  0.17513045630E+02  0.18133766750E+03  0.00000000000E+00 0. -1.
        -12    1    6    6    0    0 -0.92324549658E+02 -0.15189648611E+03  0.94719518231E+02  0.20141537205E+03  0.00000000000E+00 0.  1.
         -5    1    5    5    0  502 -0.42607362816E+02  0.12396980428E+02  0.26522221098E+02  0.51909447134E+02  0.47000000000E+01 0.  1.
</event>
<event>
12    1  0.9749377E-001  0.1809964E+03  0.7818608E-02  0.1166842E+00
         21   -1    0    0  503  502  0.00000000000E+00  0.00000000000E+00  0.12139164249E+04  0.12139164249E+04  0.00000000000E+00 0.  1.
         21   -1    0    0  501  503 -0.00000000000E+00 -0.00000000000E+00 -0.42975237152E+02  0.42975237152E+02  0.00000000000E+00 0. -1.
          6    2    1    2  501    0  0.91124171542E+02 -0.10022741862E+03  0.74417217809E+03  0.77698271559E+03  0.17765348179E+03 0.  0.
         24    2    3    3    0    0  0.21388989228E+02  0.44348430666E+01  0.16922265518E+03  0.18841986545E+03  0.79928605482E+02 0.  0.
         -6    2    1    2    0  502 -0.91124171542E+02  0.10022741862E+03  0.42676900961E+03  0.47990894642E+03  0.17271843910E+03 0.  0.
        -24    2    5    5    0    0 -0.86482210103E+02  0.13724796929E+03  0.37398090686E+03  0.41509580909E+03  0.78272819645E+02 0.  0.
         12    1    4    4    0    0  0.17104629305E+02  0.14385372278E+02  0.38332353704E+01  0.22675999926E+02  0.00000000000E+00 0. -1.
        -11    1    4    4    0    0  0.42843599229E+01 -0.99505292116E+01  0.16538941981E+03  0.16574386552E+03  0.00000000000E+00 0.  1.
          5    1    3    3  501    0  0.69735182315E+02 -0.10466226168E+03  0.57494952291E+03  0.58856285014E+03  0.47000000000E+01 0. -1.
         13    1    6    6    0    0 -0.67008831596E+02  0.77209836345E+02  0.14392589474E+03  0.17653952962E+03  0.00000000000E+00 0. -1.
        -14    1    6    6    0    0 -0.19473378507E+02  0.60038132940E+02  0.23005501212E+03  0.23855627948E+03  0.00000000000E+00 0.  1.
         -5    1    5    5    0  502 -0.46419614399E+01 -0.37020550667E+02  0.52788102753E+02  0.64813137326E+02  0.47000000000E+01 0.  1.
</event>
<event>
12    1  0.9749377E-001  0.2188203E+03  0.7818608E-02  0.1134766E+00
         21   -1    0    0  501  502  0.00000000000E+00  0.00000000000E+00  0.17494105410E+03  0.17494105410E+03  0.00000000000E+00 0.  1.
         21   -1    0    0  502  503 -0.00000000000E+00 -0.00000000000E+00 -0.55933803695E+03  0.55933803695E+03  0.00000000000E+00 0. -1.
         -6    2    1    2    0  503 -0.64047201242E+02  0.14611443462E+03  0.46816000961E+02  0.24358953641E+03  0.17802430258E+03 0.  0.
        -24    2    3    3    0    0 -0.97600527167E+01  0.16280451423E+03  0.42304554480E+02  0.18642226953E+03  0.79768532420E+02 0.  0.
          6    2    1    2  501    0  0.64047201242E+02 -0.14611443462E+03 -0.43121298382E+03  0.49068955464E+03  0.17140632903E+03 0.  0.
         24    2    5    5    0    0 -0.85856592105E+01 -0.87440241741E+02 -0.33987788080E+03  0.35998995874E+03  0.79726326342E+02 0.  0.
         14    1    6    6    0    0  0.16344031630E+02 -0.90554506376E+02 -0.28811141517E+03  0.30244905943E+03  0.00000000000E+00 0. -1.
        -13    1    6    6    0    0 -0.24929690840E+02  0.31142646345E+01 -0.51766465632E+02  0.57540899312E+02  0.00000000000E+00 0.  1.
          5    1    5    5  501    0  0.72632860452E+02 -0.58674192875E+02 -0.91335103013E+02  0.13069959590E+03  0.47000000000E+01 0. -1.
         11    1    4    4    0    0 -0.23902455673E+02  0.41471062499E+02 -0.16788181313E+02  0.50724939071E+02  0.00000000000E+00 0. -1.
        -12    1    4    4    0    0  0.14142402956E+02  0.12133345173E+03  0.59092735793E+02  0.13569733046E+03  0.00000000000E+00 0.  1.
         -5    1    3    3    0  503 -0.54287148525E+02 -0.16690079615E+02  0.45114464814E+01  0.57167266874E+02  0.47000000000E+01 0.  1.
</event>
<event>
12    1  0.9749377E-001  0.9403425E+03  0.7818608E-02  0.9376510E-01
         21   -1    0    0  501  502  0.00000000000E+00  0.00000000000E+00  0.41541032534E+03  0.41541032534E+03  0.00000000000E+00 0. -1.
         21   -1    0    0  502  503 -0.00000000000E+00 -0.00000000000E+00 -0.23329656382E+04  0.23329656382E+04  0.00000000000E+00 0.  1.
         -6    2    1    2    0  503  0.81512143373E+03 -0.45647242752E+03 -0.59756706863E+03  0.11220445012E+04  0.17060900453E+03 0.  0.
        -24    2    3    3    0    0  0.80904132531E+03 -0.43863496426E+03 -0.60129350824E+03  0.11022677683E+04  0.80572030029E+02 0.  0.
          6    2    1    2  501    0 -0.81512143373E+03  0.45647242752E+03 -0.13199882442E+04  0.16263314623E+04  0.17261237364E+03 0.  0.
         24    2    5    5    0    0 -0.80185616082E+03  0.43462401858E+03 -0.13108298906E+04  0.15987763197E+04  0.77067362806E+02 0.  0.
         14    1    6    6    0    0 -0.10829145529E+03  0.81799996497E+02 -0.22823993929E+03  0.26554048393E+03  0.00000000000E+00 0. -1.
        -13    1    6    6    0    0 -0.69356470553E+03  0.35282402208E+03 -0.10825899513E+04  0.13332358358E+04  0.00000000000E+00 0.  1.
          5    1    5    5  501    0 -0.13265272911E+02  0.21848408943E+02 -0.91583536507E+01  0.27555142539E+02  0.47000000000E+01 0. -1.
         13    1    4    4    0    0  0.25857948339E+03 -0.16444530963E+03 -0.23798489561E+03  0.38799796343E+03  0.00000000000E+00 0. -1.
        -14    1    4    4    0    0  0.55046184192E+03 -0.27418965464E+03 -0.36330861263E+03  0.71426980486E+03  0.00000000000E+00 0.  1.
         -5    1    3    3    0  503  0.60801084184E+01 -0.17837463258E+02  0.37264396084E+01  0.19776732946E+02  0.47000000000E+01 0.  1.
</event>
<event>
12    1  0.9749377E-001  0.4648412E+03  0.7818608E-02  0.1023386E+00
         21   -1    0    0  501  502  0.00000000000E+00  0.00000000000E+00  0.38598262237E+03  0.38598262237E+03  0.00000000000E+00 0.  1.
         21   -1    0    0  502  503 -0.00000000000E+00 -0.00000000000E+00 -0.67300663690E+03  0.67300663690E+03  0.00000000000E+00 0. -1.
         -6    2    1    2    0  503 -0.45115628060E+03 -0.32067852966E+01  0.32087025603E+02  0.48033411762E+03  0.16167564547E+03 0.  0.
        -24    2    3    3    0    0 -0.19839548028E+03 -0.49033972483E+02  0.40507945658E+02  0.22327156655E+03  0.80275785373E+02 0.  0.
          6    2    1    2  501    0  0.45115628060E+03  0.32067852966E+01 -0.31911104013E+03  0.57865514165E+03  0.17163229310E+03 0.  0.
         24    2    5    5    0    0  0.15335483957E+03  0.98461916156E+01 -0.17839564792E+03  0.24918178673E+03  0.81559189155E+02 0.  0.
         14    1    6    6    0    0  0.15755862510E+03  0.20390300920E+02 -0.17684018531E+03  0.23772449570E+03  0.00000000000E+00 0. -1.
        -13    1    6    6    0    0 -0.42037855381E+01 -0.10544109305E+02 -0.15554626110E+01  0.11457291033E+02  0.00000000000E+00 0.  1.
          5    1    5    5  501    0  0.29780144103E+03 -0.66394063190E+01 -0.14071539221E+03  0.32947335492E+03  0.47000000000E+01 0. -1.
         11    1    4    4    0    0 -0.11961161626E+03 -0.34710138742E+02 -0.15565822331E+02  0.12551504810E+03  0.00000000000E+00 0. -1.
        -12    1    4    4    0    0 -0.78783864020E+02 -0.14323833741E+02  0.56073767990E+02  0.97756518450E+02  0.00000000000E+00 0.  1.
         -5    1    3    3    0  503 -0.25276080032E+03  0.45827187186E+02 -0.84209200552E+01  0.25706255106E+03  0.47000000000E+01 0.  1.
</event>
<event>
12    1  0.9749377E-001  0.5942351E+03  0.7818608E-02  0.9917439E-01
         21   -1    0    0  503  502  0.00000000000E+00  0.00000000000E+00  0.24968017575E+04  0.24968017575E+04  0.00000000000E+00 0. -1.
         21   -1    0    0  501  503 -0.00000000000E+00 -0.00000000000E+00 -0.27952088897E+03  0.27952088897E+03  0.00000000000E+00 0.  1.
          6    2    1    2  501    0  0.57632548230E+03 -0.14435398221E+02  0.20717571006E+04  0.21573880080E+04  0.17258647359E+03 0.  0.
         24    2    3    3    0    0  0.14509546270E+03  0.59876172399E+01  0.70293227422E+03  0.72209015574E+03  0.78815392022E+02 0.  0.
         -6    2    1    2    0  502 -0.57632548230E+03  0.14435398221E+02  0.14552376792E+03  0.61893463847E+03  0.17188216138E+03 0.  0.
        -24    2    5    5    0    0 -0.46305985565E+03  0.70871045728E+02  0.10256134215E+03  0.48521125040E+03  0.73918830978E+02 0.  0.
         14    1    4    4    0    0  0.40536767553E+00  0.12289009036E+02  0.16680002124E+02  0.20722126746E+02  0.00000000000E+00 0. -1.
        -13    1    4    4    0    0  0.14469009503E+03 -0.63013917961E+01  0.68625227209E+03  0.70136802899E+03  0.00000000000E+00 0.  1.
          5    1    3    3  501    0  0.43123001960E+03 -0.20423015461E+02  0.13688248264E+04  0.14352978523E+04  0.47000000000E+01 0. -1.
         13    1    6    6    0    0 -0.34220657579E+03  0.81111532285E+02  0.60596792870E+02  0.35687027403E+03  0.00000000000E+00 0. -1.
        -14    1    6    6    0    0 -0.12085327986E+03 -0.10240486557E+02  0.41964549282E+02  0.12834097637E+03  0.00000000000E+00 0.  1.
         -5    1    5    5    0  502 -0.11326562665E+03 -0.56435647507E+02  0.42962425768E+02  0.13372338807E+03  0.47000000000E+01 0.  1.
</event>
<event>
12    1  0.9749377E-001  0.3036345E+03  0.7818608E-02  0.1083438E+00
         21   -1    0    0  503  502  0.00000000000E+00  0.00000000000E+00  0.59146241588E+03  0.59146241588E+03  0.00000000000E+00 0.  1.
         21   -1    0    0  501  503 -0.00000000000E+00 -0.00000000000E+00 -0.18151851903E+03  0.18151851903E+03  0.00000000000E+00 0. -1.
          6    2    1    2  501    0 -0.12150615680E+03  0.24258174846E+03  0.28115874919E+03  0.42682163335E+03  0.17180457976E+03 0.  0.
         24    2    3    3    0    0 -0.13625551172E+03  0.12498711799E+03  0.18814094905E+03  0.27608861862E+03  0.81489658778E+02 0.  0.
         -6    2    1    2    0  502  0.12150615680E+03 -0.24258174846E+03  0.12878514766E+03  0.34615930155E+03  0.17213656488E+03 0.  0.
        -24    2    5    5    0    0 -0.10020437413E+02 -0.46812945163E+02  0.38216828263E+02  0.93474953389E+02  0.70605806757E+02 0.  0.
         12    1    4    4    0    0 -0.46299350226E+02  0.18517765784E+02  0.11672349489E+02  0.51213096212E+02  0.00000000000E+00 0. -1.
        -11    1    4    4    0    0 -0.89956161489E+02  0.10646935220E+03  0.17646859956E+03  0.22487552241E+03  0.00000000000E+00 0.  1.
          5    1    3    3  501    0  0.14749354920E+02  0.11759463048E+03  0.93017800136E+02  0.15073301473E+03  0.47000000000E+01 0. -1.
         11    1    6    6    0    0  0.10365965351E+02 -0.41037693186E+02 -0.75928889370E+01  0.43002296010E+02  0.00000000000E+00 0. -1.
        -12    1    6    6    0    0 -0.20386402763E+02 -0.57752519767E+01  0.45809717200E+02  0.50472657379E+02  0.00000000000E+00 0.  1.
         -5    1    5    5    0  502  0.13152659421E+03 -0.19576880330E+03  0.90568319396E+02  0.25268434816E+03  0.47000000000E+01 0.  1.
</event>
<event>
12    1  0.9749377E-001  0.2590273E+03  0.7818608E-02  0.1107729E+00
         21   -1    0    0  501  502  0.00000000000E+00  0.00000000000E+00  0.87502007134E+03  0.87502007134E+03  0.00000000000E+00 0.  1.
         21   -1    0    0  502  503 -0.00000000000E+00 -0.00000000000E+00 -0.96745884791E+02  0.96745884791E+02  0.00000000000E+00 0. -1.
         -6    2    1    2    0  503  0.22908915305E+03  0.56348875015E+02  0.33190111818E+03  0.44171868897E+03  0.17117246324E+03 0.  0.
        -24    2    3    3    0    0  0.12446587237E+03  0.61201727233E+02  0.28491656435E+03  0.32683083350E+03  0.80022123712E+02 0.  0.
          6    2    1    2  501    0 -0.22908915305E+03 -0.56348875015E+02  0.44637306837E+03  0.53004726716E+03  0.16138201109E+03 0.  0.
         24    2    5    5    0    0 -0.55660824901E+02  0.17940074495E+02  0.15997610837E+03  0.18705813947E+03  0.77320234020E+02 0.  0.
         12    1    6    6    0    0 -0.27822856949E+02 -0.21455487235E+02  0.23401141639E+02  0.42214484852E+02  0.00000000000E+00 0. -1.
        -11    1    6    6    0    0 -0.27837967951E+02  0.39395561730E+02  0.13657496673E+03  0.14484365461E+03  0.00000000000E+00 0.  1.
          5    1    5    5  501    0 -0.17342832815E+03 -0.74288949511E+02  0.28639695999E+03  0.34298912770E+03  0.47000000000E+01 0. -1.
         13    1    4    4    0    0  0.44643641066E+01  0.94015430632E+01  0.99124649605E+02  0.99669532547E+02  0.00000000000E+00 0. -1.
        -14    1    4    4    0    0  0.12000150826E+03  0.51800184170E+02  0.18579191475E+03  0.22716130096E+03  0.00000000000E+00 0.  1.
         -5    1    3    3    0  503  0.10462328068E+03 -0.48528522179E+01  0.46984553824E+02  0.11488785546E+03  0.47000000000E+01 0.  1.
</event>
<event>
12    1  0.1044168E+000  0.4701075E+03  0.7818608E-02  0.1021890E+00
         21   -1    0    0  503  502  0.00000000000E+00  0.00000000000E+00  0.39897071559E+03  0.39897071559E+03  0.00000000000E+00 0. -1.
         21   -1    0    0  501  503 -0.00000000000E+00 -0.00000000000E+00 -0.87329741160E+03  0.87329741160E+03  0.00000000000E+00 0.  1.
          6    2    1    2  501    0 -0.33135986745E+03 -0.32459847812E+03  0.10887722915E+03  0.50703349977E+03  0.17339315183E+03 0.  0.
         24    2    3    3    0    0 -0.29177548065E+03 -0.28269838695E+03  0.37843118232E+02  0.41543395701E+03  0.78115055827E+02 0.  0.
         -6    2    1    2    0  502  0.33135986745E+03  0.32459847812E+03 -0.58320392516E+03  0.76523462742E+03  0.17405080559E+03 0.  0.
        -24    2    5    5    0    0  0.16998247504E+03  0.18866561643E+03 -0.42271461964E+03  0.50009445156E+03  0.83174841035E+02 0.  0.
         12    1    4    4    0    0 -0.13704992519E+03 -0.79966932274E+02  0.13695483360E+02  0.15926380165E+03  0.00000000000E+00 0. -1.
        -11    1    4    4    0    0 -0.15472555547E+03 -0.20273145468E+03  0.24147634872E+02  0.25617015536E+03  0.00000000000E+00 0.  1.
          5    1    3    3  501    0 -0.39584386795E+02 -0.41900091175E+02  0.71034110920E+02  0.91599542753E+02  0.47000000000E+01 0. -1.
         11    1    6    6    0    0  0.76241470987E+02  0.11692227306E+03 -0.16160310445E+03  0.21353955887E+03  0.00000000000E+00 0. -1.
        -12    1    6    6    0    0  0.93741004052E+02  0.71743343369E+02 -0.26111151519E+03  0.28655489269E+03  0.00000000000E+00 0.  1.
         -5    1    5    5    0  502  0.16137739241E+03  0.13593286170E+03 -0.16048930553E+03  0.26514017586E+03  0.47000000000E+01 0.  1.
</event>
<event>
12    1  0.9749377E-001  0.1049433E+04  0.7818608E-02  0.9255930E-01
         21   -1    0    0  503  502  0.00000000000E+00  0.00000000000E+00  0.55513886002E+03  0.55513886002E+03  0.00000000000E+00 0. -1.
         21   -1    0    0  501  503 -0.00000000000E+00 -0.00000000000E+00 -0.21175528991E+04  0.21175528991E+04  0.00000000000E+00 0.  1.
          6    2    1    2  501    0  0.10399440574E+04  0.10583614688E+03 -0.10653494500E+04  0.15022914096E+04  0.17095349151E+03 0.  0.
         24    2    3    3    0    0  0.69987849079E+03  0.77398479017E+02 -0.62343418671E+03  0.94393267146E+03  0.80735844948E+02 0.  0.
         -6    2    1    2    0  502 -0.10399440574E+04 -0.10583614688E+03 -0.49706458909E+03  0.11704003495E+04  0.17343252245E+03 0.  0.
        -24    2    5    5    0    0 -0.60603092965E+03 -0.52057617841E+02 -0.22584844676E+03  0.65585878802E+03  0.95706560100E+02 0.  0.
         14    1    4    4    0    0  0.73056707089E+02  0.26489516619E+02 -0.93203902113E+02  0.12135050190E+03  0.00000000000E+00 0. -1.
        -13    1    4    4    0    0  0.62682178370E+03  0.50908962399E+02 -0.53023028460E+03  0.82258216956E+03  0.00000000000E+00 0.  1.
          5    1    3    3  501    0  0.34006556662E+03  0.28437667868E+02 -0.44191526325E+03  0.55835873813E+03  0.47000000000E+01 0. -1.
         11    1    6    6    0    0 -0.65706260247E+02  0.19846051625E+02 -0.90199048066E+01  0.69228152391E+02  0.00000000000E+00 0. -1.
        -12    1    6    6    0    0 -0.54032466941E+03 -0.71903669466E+02 -0.21682854195E+03  0.58663063563E+03  0.00000000000E+00 0.  1.
         -5    1    5    5    0  502 -0.43391312776E+03 -0.53778529044E+02 -0.27121614233E+03  0.51454156148E+03  0.47000000000E+01 0.  1.
</event>
<event>
12    1  0.9749377E-001  0.1564854E+03  0.7818608E-02  0.1192723E+00
         21   -1    0    0  503  502  0.00000000000E+00  0.00000000000E+00  0.28458126475E+03  0.28458126475E+03  0.00000000000E+00 0. -1.
         21   -1    0    0  501  503 -0.00000000000E+00 -0.00000000000E+00 -0.42487380979E+03  0.42487380979E+03  0.00000000000E+00 0. -1.
          6    2    1    2  501    0  0.22370368402E+02 -0.60892140738E+02  0.23088573494E+03  0.29518863056E+03  0.17210409301E+03 0.  0.
         24    2    3    3    0    0  0.19801106095E+02 -0.94985739945E+02  0.22768648794E+03  0.26052885853E+03  0.81361998143E+02 0.  0.
         -6    2    1    2    0  502 -0.22370368402E+02  0.60892140738E+02 -0.37117827997E+03  0.41426644398E+03  0.17214843856E+03 0.  0.
        -24    2    5    5    0    0 -0.29224391054E+02 -0.28139980598E+02 -0.25558318937E+03  0.26812264073E+03  0.70150269024E+02 0.  0.
         14    1    4    4    0    0 -0.23162664739E+02 -0.58694856135E+02  0.16314266554E+03  0.17492033757E+03  0.00000000000E+00 0. -1.
        -13    1    4    4    0    0  0.42963770834E+02 -0.36290883811E+02  0.64543822400E+02  0.85608520966E+02  0.00000000000E+00 0.  1.
          5    1    3    3  501    0  0.25692623068E+01  0.34093599208E+02  0.31992469930E+01  0.34659772029E+02  0.47000000000E+01 0. -1.
         13    1    6    6    0    0 -0.36343237152E+02  0.42008147054E+01 -0.64174055718E+02  0.73870069434E+02  0.00000000000E+00 0. -1.
        -14    1    6    6    0    0  0.71188460977E+01 -0.32340795304E+02 -0.19140913365E+03  0.19425257130E+03  0.00000000000E+00 0.  1.
         -5    1    5    5    0  502  0.68540226522E+01  0.89032121336E+02 -0.11559509060E+03  0.14614380325E+03  0.47000000000E+01 0.  1.
</event>
<event>
12    1  0.9749377E-001  0.1083229E+04  0.7818608E-02  0.9221694E-01
         21   -1    0    0  503  502  0.00000000000E+00  0.00000000000E+00  0.74737648220E+03  0.74737648220E+03  0.00000000000E+00 0.  1.
         21   -1    0    0  501  503 -0.00000000000E+00 -0.00000000000E+00 -0.16170231569E+04  0.16170231569E+04  0.00000000000E+00 0. -1.
          6    2    1    2  501    0 -0.78752679794E+03 -0.73392455177E+03 -0.58651000117E+03  0.12379151857E+04  0.17203581094E+03 0.  0.
         24    2    3    3    0    0 -0.58525414600E+03 -0.48687750308E+03 -0.35666941938E+03  0.84447490680E+03  0.79703670415E+02 0.  0.
         -6    2    1    2    0  502  0.78752679794E+03  0.73392455177E+03 -0.28313667355E+03  0.11264844535E+04  0.17308131843E+03 0.  0.
        -24    2    5    5    0    0  0.37149608154E+03  0.42382106166E+03 -0.18398667398E+03  0.59818667380E+03  0.79640251154E+02 0.  0.
         14    1    4    4    0    0 -0.25661815914E+03 -0.20940535083E+03 -0.19887930335E+03  0.38633723333E+03  0.00000000000E+00 0. -1.
        -13    1    4    4    0    0 -0.32863598686E+03 -0.27747215225E+03 -0.15779011602E+03  0.45813767347E+03  0.00000000000E+00 0.  1.
          5    1    3    3  501    0 -0.20227265194E+03 -0.24704704870E+03 -0.22984058179E+03  0.39344027886E+03  0.47000000000E+01 0. -1.
         13    1    6    6    0    0  0.50690171239E+02  0.93982507264E+02 -0.14109773145E+02  0.10770928850E+03  0.00000000000E+00 0. -1.
        -14    1    6    6    0    0  0.32080591030E+03  0.32983855440E+03 -0.16987690083E+03  0.49047738530E+03  0.00000000000E+00 0.  1.
         -5    1    5    5    0  502  0.41603071640E+03  0.31010349011E+03 -0.99149999574E+02  0.52829777965E+03  0.47000000000E+01 0.  1.
</event>
<event>
12    1  0.9749377E-001  0.2675445E+03  0.7818608E-02  0.1102693E+00
         21   -1    0    0  501  502  0.00000000000E+00  0.00000000000E+00  0.26829623351E+03  0.26829623351E+03  0.00000000000E+00 0. -1.
         21   -1    0    0  502  503 -0.00000000000E+00 -0.00000000000E+00 -0.32898977895E+03  0.32898977895E+03  0.00000000000E+00 0.  1.
         -6    2    1    2    0  503 -0.85216648100E+02  0.21449257908E+03  0.47279308597E+02  0.29085222012E+03  0.17056006958E+03 0.  0.
        -24    2    3    3    0    0 -0.10876750862E+03  0.16102939570E+03 -0.72211068823E+01  0.21081885023E+03  0.81434673315E+02 0.  0.
          6    2    1    2  501    0  0.85216648100E+02 -0.21449257908E+03 -0.10797285403E+03  0.30643379233E+03  0.17021923593E+03 0.  0.
         24    2    5    5    0    0  0.11881804531E+03 -0.16456578161E+03 -0.11428125303E+03  0.24574091880E+03  0.78286461213E+02 0.  0.
         12    1    6    6    0    0  0.10141914158E+03 -0.11263332608E+03 -0.46378041075E+02  0.15850246408E+03  0.00000000000E+00 0. -1.
        -11    1    6    6    0    0  0.17398903722E+02 -0.51932455525E+02 -0.67903211960E+02  0.87238454721E+02  0.00000000000E+00 0.  1.
          5    1    5    5  501    0 -0.33601397206E+02 -0.49926797469E+02  0.63083990010E+01  0.60692873533E+02  0.47000000000E+01 0. -1.
         11    1    4    4    0    0 -0.76461606709E+02  0.16014540256E+03 -0.13199003096E+02  0.17795263680E+03  0.00000000000E+00 0. -1.
        -12    1    4    4    0    0 -0.32305901916E+02  0.88399314114E+00  0.59778962137E+01  0.32866213436E+02  0.00000000000E+00 0.  1.
         -5    1    3    3    0  503  0.23550860525E+02  0.53463183381E+02  0.54500415480E+02  0.80033369891E+02  0.47000000000E+01 0.  1.
</event>
<event>
12    1  0.9749377E-001  0.1854215E+03  0.7818608E-02  0.1162657E+00
         21   -1    0    0  501  502  0.00000000000E+00  0.00000000000E+00  0.59823920152E+03  0.59823920152E+03  0.00000000000E+00 0.  1.
         21   -1    0    0  502  503 -0.00000000000E+00 -0.00000000000E+00 -0.12564345170E+03  0.12564345170E+03  0.00000000000E+00 0. -1.
         -6    2    1    2    0  503 -0.93877451606E+02 -0.42960981807E+02  0.47788216456E+03  0.51867806399E+03  0.17319627300E+03 0.  0.
        -24    2    3    3    0    0 -0.12242815728E+03 -0.12586208115E+01  0.40002623748E+03  0.42573794839E+03  0.79003621452E+02 0.  0.
          6    2    1    2  501    0  0.93877451606E+02  0.42960981807E+02 -0.52864147488E+01  0.20520458922E+03  0.17726351960E+03 0.  0.
         24    2    5    5    0    0  0.22815787486E+02 -0.37298677069E+02 -0.26733062512E+02  0.95781457982E+02  0.80917733484E+02 0.  0.
         12    1    6    6    0    0  0.42520735456E+02 -0.44663633967E+02 -0.37475066944E+02  0.72161165355E+02  0.00000000000E+00 0. -1.
        -11    1    6    6    0    0 -0.19704947970E+02  0.73649568981E+01  0.10742004432E+02  0.23620292628E+02  0.00000000000E+00 0.  1.
          5    1    5    5  501    0  0.71061664120E+02  0.80259658876E+02  0.21446647763E+02  0.10942313124E+03  0.47000000000E+01 0. -1.
         13    1    4    4    0    0 -0.43665884750E+02  0.20687513830E+02  0.65674318443E+02  0.81534034749E+02  0.00000000000E+00 0. -1.
        -14    1    4    4    0    0 -0.78762272528E+02 -0.21946134641E+02  0.33435191904E+03  0.34420391364E+03  0.00000000000E+00 0.  1.
         -5    1    3    3    0  503  0.28550705672E+02 -0.41702360996E+02  0.77855927084E+02  0.92940115607E+02  0.47000000000E+01 0.  1.
</event>
<event>
12    1  0.9749377E-001  0.6079315E+03  0.7818608E-02  0.9889086E-01
         21   -1    0    0  503  502  0.00000000000E+00  0.00000000000E+00  0.24032278951E+03  0.24032278951E+03  0.00000000000E+00 0. -1.
         21   -1    0    0  501  503 -0.00000000000E+00 -0.00000000000E+00 -0.16171415130E+04  0.16171415130E+04  0.00000000000E+00 0.  1.
          6    2    1    2  501    0 -0.46322433708E+03 -0.37941603730E+03 -0.70405221820E+03  0.94022059617E+03  0.17260338261E+03 0.  0.
         24    2    3    3    0    0 -0.89151690145E+02 -0.94568560610E+02 -0.18407494969E+03  0.23917360778E+03  0.80182236465E+02 0.  0.
         -6    2    1    2    0  502  0.46322433708E+03  0.37941603730E+03 -0.67276650528E+03  0.91724370633E+03  0.17374674203E+03 0.  0.
        -24    2    5    5    0    0  0.25264064684E+03  0.22343174386E+03 -0.47939745304E+03  0.59152869170E+03  0.79594186494E+02 0.  0.
         14    1    4    4    0    0 -0.65838792616E+02 -0.10089387054E+03 -0.11723329461E+03  0.16810105619E+03  0.00000000000E+00 0. -1.
        -13    1    4    4    0    0 -0.23312897528E+02  0.63253099288E+01 -0.66841655073E+02  0.71072551592E+02  0.00000000000E+00 0.  1.
          5    1    3    3  501    0 -0.37407264694E+03 -0.28484747669E+03 -0.51997726852E+03  0.70104698840E+03  0.47000000000E+01 0. -1.
         13    1    6    6    0    0  0.27650590726E+02  0.40048180374E+02 -0.32072716420E+02  0.58284398061E+02  0.00000000000E+00 0. -1.
        -14    1    6    6    0    0  0.22499005611E+03  0.18338356349E+03 -0.44732473662E+03  0.53324429364E+03  0.00000000000E+00 0.  1.
         -5    1    5    5    0  502  0.21058369025E+03  0.15598429344E+03 -0.19336905224E+03  0.32571501464E+03  0.47000000000E+01 0.  1.
</event>
<event>
12    1  0.9749377E-001  0.5941749E+03  0.7818608E-02  0.9917566E-01
         21   -1    0    0  503  502  0.00000000000E+00  0.00000000000E+00  0.19528494828E+03  0.19528494828E+03  0.00000000000E+00 0.  1.
         21   -1    0    0  501  503 -0.00000000000E+00 -0.00000000000E+00 -0.18834403413E+04  0.18834403413E+04  0.00000000000E+00 0. -1.
          6    2    1    2  501    0 -0.49787603883E+03  0.29791414051E+03 -0.92812979357E+03  0.11079196836E+04  0.17154511519E+03 0.  0.
         24    2    3    3    0    0 -0.34584995329E+03  0.14666787879E+03 -0.51488250337E+03  0.64232031163E+03  0.79672665283E+02 0.  0.
         -6    2    1    2    0  502  0.49787603883E+03 -0.29791414051E+03 -0.76002559944E+03  0.97080560591E+03  0.16790243451E+03 0.  0.
        -24    2    5    5    0    0  0.30287997311E+03 -0.23866357911E+03 -0.42867602178E+03  0.58176996836E+03  0.77437602838E+02 0.  0.
         12    1    4    4    0    0 -0.23805161128E+03  0.12278100320E+03 -0.31087213006E+03  0.41034768871E+03  0.00000000000E+00 0. -1.
        -11    1    4    4    0    0 -0.10779834200E+03  0.23886875588E+02 -0.20401037331E+03  0.23197262292E+03  0.00000000000E+00 0.  1.
          5    1    3    3  501    0 -0.15202608554E+03  0.15124626172E+03 -0.41324729019E+03  0.46559937201E+03  0.47000000000E+01 0. -1.
         13    1    6    6    0    0  0.33793562156E+02 -0.59602394404E+02 -0.95911956195E+02  0.11787091924E+03  0.00000000000E+00 0. -1.
        -14    1    6    6    0    0  0.26908641096E+03 -0.17906118470E+03 -0.33276406559E+03  0.46389904912E+03  0.00000000000E+00 0.  1.
         -5    1    5    5    0  502  0.19499606571E+03 -0.59250561404E+02 -0.33134957765E+03  0.38903563755E+03  0.47000000000E+01 0.  1.
</event>
<event>
12    1  0.9749377E-001  0.2846082E+03  0.7818608E-02  0.1093198E+00
         21   -1    0    0  501  502  0.00000000000E+00  0.00000000000E+00  0.22697667371E+04  0.22697667371E+04  0.00000000000E+00 0.  1.
         21   -1    0    0  502  503 -0.00000000000E+00 -0.00000000000E+00 -0.49967441528E+02  0.49967441528E+02  0.00000000000E+00 0. -1.
         -6    2    1    2    0  503  0.11147748930E+02 -0.26752248761E+03  0.15083907351E+04  0.15407833736E+04  0.16455467515E+03 0.  0.
        -24    2    3    3    0    0  0.28338057123E+02 -0.14686092651E+03  0.11459292840E+04  0.11583502258E+04  0.79057855597E+02 0.  0.
          6    2    1    2  501    0 -0.11147748930E+02  0.26752248761E+03  0.71140856047E+03  0.77895080497E+03  0.17020476776E+03 0.  0.
         24    2    5    5    0    0 -0.24661065143E+02  0.49785813013E+02  0.28765540196E+03  0.30231604068E+03  0.74582590902E+02 0.  0.
         14    1    6    6    0    0 -0.24394262968E+02  0.23742026686E+02  0.36867939692E+02  0.50179765583E+02  0.00000000000E+00 0. -1.
        -13    1    6    6    0    0 -0.26680217523E+00  0.26043786327E+02  0.25078746227E+03  0.25213627510E+03  0.00000000000E+00 0.  1.
          5    1    5    5  501    0  0.13513316213E+02  0.21773667460E+03  0.42375315850E+03  0.47663476428E+03  0.47000000000E+01 0. -1.
         13    1    4    4    0    0  0.54951079710E+02 -0.11489472033E+03  0.88876002431E+03  0.89783896036E+03  0.00000000000E+00 0. -1.
        -14    1    4    4    0    0 -0.26613022588E+02 -0.31966206189E+02  0.25716925967E+03  0.26051126545E+03  0.00000000000E+00 0.  1.
         -5    1    3    3    0  503 -0.17190308193E+02 -0.12066156110E+03  0.36246145108E+03  0.38243314781E+03  0.47000000000E+01 0.  1.
</event>
<event>
12    1  0.9749377E-001  0.4598661E+03  0.7818608E-02  0.1024820E+00
         21   -1    0    0  503  502  0.00000000000E+00  0.00000000000E+00  0.60013151645E+03  0.60013151645E+03  0.00000000000E+00 0. -1.
         21   -1    0    0  501  503 -0.00000000000E+00 -0.00000000000E+00 -0.42871400005E+03  0.42871400005E+03  0.00000000000E+00 0.  1.
          6    2    1    2  501    0  0.37189848583E+03  0.25652473810E+03  0.24020989083E+03  0.54068069308E+03  0.17470373551E+03 0.  0.
         24    2    3    3    0    0  0.24870561915E+03  0.19167639332E+03  0.23720206647E+03  0.40135041199E+03  0.78886045121E+02 0.  0.
         -6    2    1    2    0  502 -0.37189848583E+03 -0.25652473810E+03 -0.68792374433E+02  0.48816482342E+03  0.17163647346E+03 0.  0.
        -24    2    5    5    0    0 -0.26262225894E+03 -0.22192655773E+03 -0.10075623431E+03  0.36907617498E+03  0.88563854177E+02 0.  0.
         14    1    4    4    0    0  0.13643916032E+03  0.83041260797E+02  0.76044114429E+02  0.17690167552E+03  0.00000000000E+00 0. -1.
        -13    1    4    4    0    0  0.11226645884E+03  0.10863513252E+03  0.16115795204E+03  0.22444873647E+03  0.00000000000E+00 0.  1.
          5    1    3    3  501    0  0.12319286668E+03  0.64848344775E+02  0.30078243577E+01  0.13933028109E+03  0.47000000000E+01 0. -1.
         11    1    6    6    0    0 -0.23910615513E+03 -0.17187727223E+03 -0.10725668850E+03  0.31339678901E+03  0.00000000000E+00 0. -1.
        -12    1    6    6    0    0 -0.23516103804E+02 -0.50049285501E+02  0.65004541878E+01  0.55679385970E+02  0.00000000000E+00 0.  1.
         -5    1    5    5    0  502 -0.10927622689E+03 -0.34598180365E+02  0.31963859881E+02  0.11908864844E+03  0.47000000000E+01 0.  1.
</event>
<event>
12    1  0.9749377E-001  0.2514821E+03  0.7818608E-02  0.1112372E+00
         21   -1    0    0  503  502  0.00000000000E+00  0.00000000000E+00  0.30022143208E+04  0.30022143208E+04  0.00000000000E+00 0. -1.
         21   -1    0    0  501  503 -0.00000000000E+00 -0.00000000000E+00 -0.26669317356E+02  0.26669317356E+02  0.00000000000E+00 0.  1.
          6    2    1    2  501    0  0.14053025992E+03  0.17115607500E+03  0.13414373556E+04  0.13708983746E+04  0.17568442865E+03 0.  0.
         24    2    3    3    0    0  0.68615740866E+02  0.15164547944E+03  0.65930412148E+03  0.68469126264E+03  0.80098247209E+02 0.  0.
         -6    2    1    2    0  502 -0.14053025992E+03 -0.17115607500E+03  0.16341076478E+04  0.16579852636E+04  0.17194235523E+03 0.  0.
        -24    2    5    5    0    0 -0.71858247670E+02 -0.45149681937E+02  0.10447925074E+04  0.10514311596E+04  0.81938990721E+02 0.  0.
         12    1    4    4    0    0  0.30910779330E+02  0.10426140085E+03  0.54064883865E+03  0.55147718241E+03  0.00000000000E+00 0. -1.
        -11    1    4    4    0    0  0.37704961536E+02  0.47384078582E+02  0.11865528283E+03  0.13321408023E+03  0.00000000000E+00 0.  1.
          5    1    3    3  501    0  0.71914519054E+02  0.19510595564E+02  0.68213323413E+03  0.68620711195E+03  0.47000000000E+01 0. -1.
         13    1    6    6    0    0 -0.87139635685E+02 -0.48566767149E+02  0.81057739649E+03  0.81669318761E+03  0.00000000000E+00 0. -1.
        -14    1    6    6    0    0  0.15281388015E+02  0.34170852124E+01  0.23421511095E+03  0.23473797198E+03  0.00000000000E+00 0.  1.
         -5    1    5    5    0  502 -0.68672012250E+02 -0.12600639306E+03  0.58931514038E+03  0.60655410397E+03  0.47000000000E+01 0.  1.
</event>
<event>
12    1  0.9749377E-001  0.4560736E+03  0.7818608E-02  0.1025926E+00
         21   -1    0    0  503  502  0.00000000000E+00  0.00000000000E+00  0.12542509940E+04  0.12542509940E+04  0.00000000000E+00 0.  1.
         21   -1    0    0  501  503 -0.00000000000E+00 -0.00000000000E+00 -0.19185972352E+03  0.19185972352E+03  0.00000000000E+00 0. -1.
          6    2    1    2  501    0 -0.27387656910E+03  0.34673376933E+03  0.71352448419E+03  0.85639905002E+03  0.17049768749E+03 0.  0.
         24    2    3    3    0    0 -0.14413230913E+03  0.24377659536E+03  0.35259182858E+03  0.45924892154E+03  0.79921357422E+02 0.  0.
         -6    2    1    2    0  502  0.27387656910E+03 -0.34673376933E+03  0.34886678624E+03  0.58971166746E+03  0.17555379318E+03 0.  0.
        -24    2    5    5    0    0  0.22193169100E+03 -0.18011525256E+03  0.18057743113E+03  0.34721754890E+03  0.79098912479E+02 0.  0.
         12    1    4    4    0    0 -0.11438724930E+03  0.21151525037E+03  0.33408204066E+03  0.41162355840E+03  0.00000000000E+00 0. -1.
        -11    1    4    4    0    0 -0.29745059836E+02  0.32261344987E+02  0.18509787924E+02  0.47625363138E+02  0.00000000000E+00 0.  1.
          5    1    3    3  501    0 -0.12974425996E+03  0.10295717397E+03  0.36093265561E+03  0.39715012848E+03  0.47000000000E+01 0. -1.
         11    1    6    6    0    0  0.39765464477E+01  0.10301181673E+01 -0.64614137544E+01  0.76566267242E+01  0.00000000000E+00 0. -1.
        -12    1    6    6    0    0  0.21795514455E+03 -0.18114537073E+03  0.18703884488E+03  0.33956092218E+03  0.00000000000E+00 0.  1.
         -5    1    5    5    0  502  0.51944878095E+02 -0.16661851676E+03  0.16828935512E+03  0.24249411856E+03  0.47000000000E+01 0.  1.
</event>
<event>
12    1  0.9749377E-001  0.1279733E+03  0.7818608E-02  0.1230494E+00
         21   -1    0    0  503  502  0.00000000000E+00  0.00000000000E+00  0.18554764481E+03  0.18554764481E+03  0.00000000000E+00 0. -1.
         21   -1    0    0  501  503 -0.00000000000E+00 -0.00000000000E+00 -0.19379479359E+03  0.19379479359E+03  0.00000000000E+00 0. -1.
          6    2    1    2  501    0 -0.50433657659E+02 -0.35965230903E+02 -0.57607927010E+02  0.19190293468E+03  0.17225275448E+03 0.  0.
         24    2    3    3    0    0 -0.48262455976E+02 -0.80413958450E+02 -0.62265638700E+01  0.12376676238E+03  0.80521872824E+02 0.  0.
         -6    2    1    2    0  502  0.50433657659E+02  0.35965230903E+02  0.49360778235E+02  0.18743950372E+03  0.16988239893E+03 0.  0.
        -24    2    5    5    0    0  0.50190511180E+02 -0.31831419344E+01 -0.31028834656E+02  0.97900495030E+02  0.78054458822E+02 0.  0.
         14    1    4    4    0    0 -0.39629111256E+02 -0.12580614707E+02  0.25084050710E+02  0.48558705969E+02  0.00000000000E+00 0. -1.
        -13    1    4    4    0    0 -0.86333447203E+01 -0.67833343743E+02 -0.31310614580E+02  0.75208056415E+02  0.00000000000E+00 0.  1.
          5    1    3    3  501    0 -0.21712016826E+01  0.44448727547E+02 -0.51381363141E+02  0.68136172298E+02  0.47000000000E+01 0. -1.
         13    1    6    6    0    0  0.51275449418E+02  0.68375033454E+01  0.12501487094E+02  0.53218515055E+02  0.00000000000E+00 0. -1.
        -14    1    6    6    0    0 -0.10849382387E+01 -0.10020645280E+02 -0.43530321751E+02  0.44681979975E+02  0.00000000000E+00 0.  1.
         -5    1    5    5    0  502  0.24314647887E+00  0.39148372838E+02  0.80389612891E+02  0.89539008688E+02  0.47000000000E+01 0.  1.
</event>
<event>
12    1  0.9749377E-001  0.4858966E+03  0.7818608E-02  0.1017527E+00
         21   -1    0    0  501  502  0.00000000000E+00  0.00000000000E+00  0.20751863318E+03  0.20751863318E+03  0.00000000000E+00 0.  1.
         21   -1    0    0  502  503 -0.00000000000E+00 -0.00000000000E+00 -0.17433174514E+04  0.17433174514E+04  0.00000000000E+00 0. -1.
         -6    2    1    2    0  503  0.46623609347E+03  0.93210768373E+02 -0.13002584848E+04  0.13951613863E+04  0.17244948389E+03 0.  0.
        -24    2    3    3    0    0  0.42041943179E+03  0.80949561633E+02 -0.98502763930E+03  0.10763478364E+04  0.70284312617E+02 0.  0.
          6    2    1    2  501    0 -0.46623609347E+03 -0.93210768373E+02 -0.23554033344E+03  0.55567469823E+03  0.16501751234E+03 0.  0.
         24    2    5    5    0    0 -0.13839607611E+03  0.15337669003E+01 -0.53973617816E+02  0.16909460799E+03  0.80771335927E+02 0.  0.
         12    1    6    6    0    0 -0.82434799923E+02  0.30770858927E+02 -0.31582269809E+01  0.88047239565E+02  0.00000000000E+00 0. -1.
        -11    1    6    6    0    0 -0.55961276183E+02 -0.29237092027E+02 -0.50815390835E+02  0.81047368421E+02  0.00000000000E+00 0.  1.
          5    1    5    5  501    0 -0.32784001737E+03 -0.94744535273E+02 -0.18156671563E+03  0.38658009025E+03  0.47000000000E+01 0. -1.
         13    1    4    4    0    0  0.19086166312E+03  0.87170247676E+01 -0.38324178632E+03  0.42822707499E+03  0.00000000000E+00 0. -1.
        -14    1    4    4    0    0  0.22955776867E+03  0.72232536866E+02 -0.60178585297E+03  0.64812076142E+03  0.00000000000E+00 0.  1.
         -5    1    3    3    0  503  0.45816661685E+02  0.12261206740E+02 -0.31523084548E+03  0.31881354993E+03  0.47000000000E+01 0.  1.
</event>
<event>
12    1  0.9749377E-001  0.3502333E+03  0.7818608E-02  0.1062519E+00
         21   -1    0    0  503  502  0.00000000000E+00  0.00000000000E+00  0.70671439943E+02  0.70671439943E+02  0.00000000000E+00 0. -1.
         21   -1    0    0  501  503 -0.00000000000E+00 -0.00000000000E+00 -0.21121681674E+04  0.21121681674E+04  0.00000000000E+00 0.  1.
          6    2    1    2  501    0  0.28848900391E+03  0.14979018700E+03 -0.13503220884E+04  0.13997399869E+04  0.17389445906E+03 0.  0.
         24    2    3    3    0    0  0.27755673844E+03  0.16917794194E+03 -0.13201794893E+04  0.13619767011E+04  0.80297766751E+02 0.  0.
         -6    2    1    2    0  502 -0.28848900391E+03 -0.14979018700E+03 -0.69117463902E+03  0.78309962045E+03  0.17279938781E+03 0.  0.
        -24    2    5    5    0    0 -0.24897035536E+03 -0.17449937760E+03 -0.54019563687E+03  0.62502047327E+03  0.80018718330E+02 0.  0.
         14    1    4    4    0    0  0.10271649675E+03  0.80160590065E+02 -0.38536849284E+03  0.40679881290E+03  0.00000000000E+00 0. -1.
        -13    1    4    4    0    0  0.17484024169E+03  0.89017351875E+02 -0.93481099641E+03  0.95517788818E+03  0.00000000000E+00 0.  1.
          5    1    3    3  501    0  0.10932265462E+02 -0.19387754940E+02 -0.30142599178E+02  0.37763285807E+02  0.47000000000E+01 0.  1.
         13    1    6    6    0    0 -0.10494172025E+03 -0.82399711623E+02 -0.31652525017E+03  0.34349775999E+03  0.00000000000E+00 0. -1.
        -14    1    6    6    0    0 -0.14402863511E+03 -0.92099665975E+02 -0.22367038670E+03  0.28152271328E+03  0.00000000000E+00 0.  1.
         -5    1    5    5    0  502 -0.39518648544E+02  0.24709190598E+02 -0.15097900215E+03  0.15807914718E+03  0.47000000000E+01 0.  1.
</event>
<event>
12    1  0.9749377E-001  0.1338658E+03  0.7818608E-02  0.1221830E+00
         21   -1    0    0  501  502  0.00000000000E+00  0.00000000000E+00  0.18401474685E+03  0.18401474685E+03  0.00000000000E+00 0.  1.
         21   -1    0    0  502  503 -0.00000000000E+00 -0.00000000000E+00 -0.25527593500E+03  0.25527593500E+03  0.00000000000E+00 0. -1.
         -6    2    1    2    0  503  0.68942469002E+02  0.12901908862E+02  0.78051654955E+02  0.20115703792E+03  0.17161751012E+03 0.  0.
        -24    2    3    3    0    0  0.54336678673E+02  0.23114849567E+02 -0.22736281890E+02  0.98697624088E+02  0.75746363389E+02 0.  0.
          6    2    1    2  501    0 -0.68942469002E+02 -0.12901908862E+02 -0.14931284311E+03  0.23813364393E+03  0.17173754385E+03 0.  0.
         24    2    5    5    0    0 -0.52509169575E+02 -0.60309096181E+02 -0.41879319547E+02  0.11946795080E+03  0.78257995706E+02 0.  0.
         14    1    6    6    0    0 -0.50865179281E+02 -0.83385464310E+00 -0.29121375364E+02  0.58617542425E+02  0.00000000000E+00 0. -1.
        -13    1    6    6    0    0 -0.16439902934E+01 -0.59475241538E+02 -0.12757944183E+02  0.60850408379E+02  0.00000000000E+00 0.  1.
          5    1    5    5  501    0 -0.16433299427E+02  0.47407187319E+02 -0.10743352356E+03  0.11866569312E+03  0.47000000000E+01 0. -1.
         13    1    4    4    0    0  0.58633531973E+02 -0.61518226664E+01 -0.32783642202E+02  0.67457417604E+02  0.00000000000E+00 0. -1.
        -14    1    4    4    0    0 -0.42968533007E+01  0.29266672233E+02  0.10047360312E+02  0.31240206483E+02  0.00000000000E+00 0.  1.
         -5    1    3    3    0  503  0.14605790329E+02 -0.10212940704E+02  0.10078793685E+03  0.10245941383E+03  0.47000000000E+01 0.  1.
</event>
<event>
12    1  0.9749377E-001  0.6434101E+03  0.7818608E-02  0.9819224E-01
         21   -1    0    0  501  502  0.00000000000E+00  0.00000000000E+00  0.18281928384E+04  0.18281928384E+04  0.00000000000E+00 0. -1.
         21   -1    0    0  502  503 -0.00000000000E+00 -0.00000000000E+00 -0.24164608830E+03  0.24164608830E+03  0.00000000000E+00 0.  1.
         -6    2    1    2    0  503  0.32060889795E+03  0.54031673698E+03  0.58777966078E+03  0.87752700615E+03  0.17273238026E+03 0.  0.
        -24    2    3    3    0    0  0.28757011890E+03  0.45453956785E+03  0.56190439947E+03  0.78191893739E+03  0.79736305839E+02 0.  0.
          6    2    1    2  501    0 -0.32060889795E+03 -0.54031673698E+03  0.99876708936E+03  0.11923119206E+04  0.17128857367E+03 0.  0.
         24    2    5    5    0    0 -0.26598698950E+03 -0.52628077699E+03  0.91118828175E+03  0.10880396875E+04  0.76457451574E+02 0.  0.
         12    1    6    6    0    0 -0.21932116336E+03 -0.35713378168E+03  0.64844961388E+03  0.77209663415E+03  0.00000000000E+00 0. -1.
        -11    1    6    6    0    0 -0.46665826140E+02 -0.16914699531E+03  0.26273866787E+03  0.31594305333E+03  0.00000000000E+00 0.  1.
          5    1    5    5  501    0 -0.54621908452E+02 -0.14035959987E+02  0.87578807606E+02  0.10427223311E+03  0.47000000000E+01 0. -1.
         13    1    4    4    0    0 -0.42515137853E+01  0.18197112322E+02  0.16357083320E+02  0.24834742621E+02  0.00000000000E+00 0. -1.
        -14    1    4    4    0    0  0.29182163269E+03  0.43634245553E+03  0.54554731615E+03  0.75708419476E+03  0.00000000000E+00 0.  1.
         -5    1    3    3    0  503  0.33038779048E+02  0.85777169129E+02  0.25875261304E+02  0.95608068762E+02  0.47000000000E+01 0.  1.
</event>
<event>
12    1  0.9749377E-001  0.6223142E+03  0.7818608E-02  0.9860163E-01
         21   -1    0    0  503  502  0.00000000000E+00  0.00000000000E+00  0.19565026670E+04  0.19565026670E+04  0.00000000000E+00 0. -1.
         21   -1    0    0  501  503 -0.00000000000E+00 -0.00000000000E+00 -0.43793615176E+03  0.43793615176E+03  0.00000000000E+00 0.  1.
          6    2    1    2  501    0 -0.40631051366E+03  0.44494259613E+03  0.16402770122E+04  0.17559635882E+04  0.17273476504E+03 0.  0.
         24    2    3    3    0    0 -0.32120841875E+03  0.42432975367E+03  0.13888141733E+04  0.14896500415E+04  0.83796479590E+02 0.  0.
         -6    2    1    2    0  502  0.40631051366E+03 -0.44494259613E+03 -0.12171049696E+03  0.63847523054E+03  0.17255441920E+03 0.  0.
        -24    2    5    5    0    0  0.18914042494E+03 -0.30543783661E+03 -0.57714225022E+02  0.37250147586E+03  0.79749892548E+02 0.  0.
         12    1    4    4    0    0 -0.15368035192E+03  0.16551800131E+03  0.49320208112E+03  0.54245935529E+03  0.00000000000E+00 0. -1.
        -11    1    4    4    0    0 -0.16752806683E+03  0.25881175236E+03  0.89561209220E+03  0.94719068620E+03  0.00000000000E+00 0.  1.
          5    1    3    3  501    0 -0.85102094901E+02  0.20612842456E+02  0.25146283888E+03  0.26631354673E+03  0.47000000000E+01 0. -1.
         13    1    6    6    0    0  0.17352010525E+03 -0.23299899325E+03 -0.66060476210E+02  0.29792909274E+03  0.00000000000E+00 0. -1.
        -14    1    6    6    0    0  0.15620319692E+02 -0.72438843360E+02  0.83462511882E+01  0.74572383116E+02  0.00000000000E+00 0.  1.
         -5    1    5    5    0  502  0.21717008871E+03 -0.13950475951E+03 -0.63996271942E+02  0.26597375469E+03  0.47000000000E+01 0.  1.
</event>
<event>
12    1  0.9749377E-001  0.9913768E+03  0.7818608E-02  0.9318053E-01
         21   -1    0    0  503  502  0.00000000000E+00  0.00000000000E+00  0.39418531733E+03  0.39418531733E+03  0.00000000000E+00 0. -1.
         21   -1    0    0  501  503 -0.00000000000E+00 -0.00000000000E+00 -0.25494045150E+04  0.25494045150E+04  0.00000000000E+00 0.  1.
          6    2    1    2  501    0  0.93567417079E+03 -0.30837123365E+03 -0.97964375796E+03  0.13999493134E+04  0.17198027822E+03 0.  0.
         24    2    3    3    0    0  0.75914203312E+03 -0.28832454447E+03 -0.86112359170E+03  0.11863267838E+04  0.80060778828E+02 0.  0.
         -6    2    1    2    0  502 -0.93567417079E+03  0.30837123365E+03 -0.11755754397E+04  0.15436405189E+04  0.17398122157E+03 0.  0.
        -24    2    5    5    0    0 -0.78849123347E+03  0.24523860908E+03 -0.10603690438E+04  0.13463003330E+04  0.79257030196E+02 0.  0.
         14    1    4    4    0    0  0.76074778040E+03 -0.28611108922E+03 -0.86019015616E+03  0.11834373010E+04  0.00000000000E+00 0. -1.
        -13    1    4    4    0    0 -0.16057472792E+01 -0.22134552567E+01 -0.93343554576E+00  0.28894827246E+01  0.00000000000E+00 0.  1.
          5    1    3    3  501    0  0.17653213767E+03 -0.20046689177E+02 -0.11852016625E+03  0.21362252968E+03  0.47000000000E+01 0. -1.
         11    1    6    6    0    0 -0.91918929716E+02  0.55391808592E+02 -0.14843124437E+03  0.18316434261E+03  0.00000000000E+00 0. -1.
        -12    1    6    6    0    0 -0.69657230375E+03  0.18984680048E+03 -0.91193779943E+03  0.11631359903E+04  0.00000000000E+00 0.  1.
         -5    1    5    5    0  502 -0.14718293732E+03  0.63132624574E+02 -0.11520639594E+03  0.19734018595E+03  0.47000000000E+01 0.  1.
</event>
<event>
12    1  0.1129230E+000  0.5000662E+03  0.7818608E-02  0.1013762E+00
         21   -1    0    0  503  502  0.00000000000E+00  0.00000000000E+00  0.73847701461E+03  0.73847701461E+03  0.00000000000E+00 0. -1.
         21   -1    0    0  501  503 -0.00000000000E+00 -0.00000000000E+00 -0.11212028604E+04  0.11212028604E+04  0.00000000000E+00 0.  1.
          6    2    1    2  501    0 -0.41744315569E+03 -0.25146227996E+03  0.57381660872E+03  0.77237211094E+03  0.17262998246E+03 0.  0.
         24    2    3    3    0    0 -0.26091111866E+03 -0.20940970705E+03  0.31271223871E+03  0.46501518562E+03  0.80765966662E+02 0.  0.
         -6    2    1    2    0  502  0.41744315569E+03  0.25146227996E+03 -0.95654245449E+03  0.10873077641E+04  0.17254750092E+03 0.  0.
        -24    2    5    5    0    0  0.88453349829E+02  0.62750528222E+02 -0.30005576130E+03  0.32912356089E+03  0.80791302477E+02 0.  0.
         14    1    4    4    0    0 -0.23481613147E+03 -0.14847082984E+03  0.24906773939E+03  0.37311786571E+03  0.00000000000E+00 0. -1.
        -13    1    4    4    0    0 -0.26094987193E+02 -0.60938877207E+02  0.63644499320E+02  0.91897319904E+02  0.00000000000E+00 0.  1.
          5    1    3    3  501    0 -0.15653203703E+03 -0.42052572905E+02  0.26110437001E+03  0.30735692532E+03  0.47000000000E+01 0. -1.
         11    1    6    6    0    0  0.28968892939E+01 -0.47718148579E+01  0.35035813566E+01  0.65906954824E+01  0.00000000000E+00 0. -1.
        -12    1    6    6    0    0  0.85556460536E+02  0.67522343080E+02 -0.30355934266E+03  0.32253286541E+03  0.00000000000E+00 0.  1.
         -5    1    5    5    0  502  0.32898980586E+03  0.18871175173E+03 -0.65648669319E+03  0.75818420317E+03  0.47000000000E+01 0.  1.
</event>
<event>
12    1  0.9749377E-001  0.3263411E+03  0.7818608E-02  0.1072767E+00
         21   -1    0    0  503  502  0.00000000000E+00  0.00000000000E+00  0.37452975226E+03  0.37452975226E+03  0.00000000000E+00 0.  1.
         21   -1    0    0  501  503 -0.00000000000E+00 -0.00000000000E+00 -0.60322868349E+03  0.60322868349E+03  0.00000000000E+00 0. -1.
          6    2    1    2  501    0  0.11061694399E+03  0.29077394691E+03  0.20994907335E+03  0.41341965438E+03  0.17335397524E+03 0.  0.
         24    2    3    3    0    0  0.79751535103E+02  0.12234632716E+03  0.39617443355E+02  0.17185084278E+03  0.81450839330E+02 0.  0.
         -6    2    1    2    0  502 -0.11061694399E+03 -0.29077394691E+03 -0.43864800457E+03  0.56433878137E+03  0.17111572618E+03 0.  0.
        -24    2    5    5    0    0 -0.13125657423E+03 -0.27120441070E+03 -0.33903533941E+03  0.46063856852E+03  0.80391596437E+02 0.  0.
         12    1    4    4    0    0  0.47642379410E+02  0.97184345424E+02  0.62595163856E+02  0.12503098756E+03  0.00000000000E+00 0. -1.
        -11    1    4    4    0    0  0.32109155693E+02  0.25161981733E+02 -0.22977720502E+02  0.46819855227E+02  0.00000000000E+00 0.  1.
          5    1    3    3  501    0  0.30865408884E+02  0.16842761975E+03  0.17033162999E+03  0.24156881160E+03  0.47000000000E+01 0. -1.
         13    1    6    6    0    0 -0.56301224005E+02 -0.15825979552E+03 -0.13414879516E+03  0.21496950934E+03  0.00000000000E+00 0. -1.
        -14    1    6    6    0    0 -0.74955350225E+02 -0.11294461519E+03 -0.20488654425E+03  0.24566905918E+03  0.00000000000E+00 0.  1.
         -5    1    5    5    0  502  0.20639630242E+02 -0.19569536205E+02 -0.99612665164E+02  0.10370021285E+03  0.47000000000E+01 0.  1.
</event>
<event>
12    1  0.9749377E-001  0.2104616E+03  0.7818608E-02  0.1141201E+00
         21   -1    0    0  501  502  0.00000000000E+00  0.00000000000E+00  0.52073537534E+02  0.52073537534E+02  0.00000000000E+00 0. -1.
         21   -1    0    0  502  503 -0.00000000000E+00 -0.00000000000E+00 -0.11730214052E+04  0.11730214052E+04  0.00000000000E+00 0. -1.
         -6    2    1    2    0  503  0.17409456391E+03 -0.34688510222E+02 -0.57149881654E+03  0.62289684434E+03  0.17285072016E+03 0.  0.
        -24    2    3    3    0    0  0.11378921514E+03 -0.83127419675E+02 -0.45614338561E+03  0.48392911973E+03  0.79135651272E+02 0.  0.
          6    2    1    2  501    0 -0.17409456391E+03  0.34688510222E+02 -0.54944905112E+03  0.60219809839E+03  0.17098561344E+03 0.  0.
         24    2    5    5    0    0 -0.17895833218E+03  0.35605980720E+02 -0.34779801257E+03  0.40043157653E+03  0.78026402047E+02 0.  0.
         12    1    6    6    0    0 -0.14243359126E+03  0.55432237178E+02 -0.23610252651E+03  0.28125515793E+03  0.00000000000E+00 0. -1.
        -11    1    6    6    0    0 -0.36524740916E+02 -0.19826256459E+02 -0.11169548606E+03  0.11917641860E+03  0.00000000000E+00 0.  1.
          5    1    5    5  501    0  0.48637682721E+01 -0.91747049788E+00 -0.20165103856E+03  0.20176652186E+03  0.47000000000E+01 0. -1.
         13    1    4    4    0    0  0.12863079084E+02 -0.26769237372E+01 -0.16423963582E+03  0.16476432471E+03  0.00000000000E+00 0. -1.
        -14    1    4    4    0    0  0.10092613605E+03 -0.80450495937E+02 -0.29190374979E+03  0.31916479502E+03  0.00000000000E+00 0.  1.
         -5    1    3    3    0  503  0.60305348768E+02  0.48438909453E+02 -0.11535543093E+03  0.13896772462E+03  0.47000000000E+01 0.  1.
</event>
<event>
12    1  0.9749377E-001  0.4533469E+03  0.7818608E-02  0.1026729E+00
         21   -1    0    0  501  502  0.00000000000E+00  0.00000000000E+00  0.24551343901E+03  0.24551343901E+03  0.00000000000E+00 0.  1.
         21   -1    0    0  502  503 -0.00000000000E+00 -0.00000000000E+00 -0.90041027012E+03  0.90041027012E+03  0.00000000000E+00 0. -1.
         -6    2    1    2    0  503  0.13983200072E+03 -0.40817981240E+03 -0.42987498631E+03  0.63324459006E+03  0.17332760689E+03 0.  0.
        -24    2    3    3    0    0  0.20056764053E+02 -0.26625517494E+03 -0.24451512098E+03  0.37081540016E+03  0.80139407540E+02 0.  0.
          6    2    1    2  501    0 -0.13983200072E+03  0.40817981240E+03 -0.22502184479E+03  0.51267911907E+03  0.16137317255E+03 0.  0.
         24    2    5    5    0    0 -0.14925093277E+03  0.30997830786E+03 -0.21300421710E+03  0.41318658090E+03  0.83605991774E+02 0.  0.
         12    1    6    6    0    0 -0.62822416327E+02  0.68744367095E+02 -0.28378933869E+02  0.97354033753E+02  0.00000000000E+00 0. -1.
        -11    1    6    6    0    0 -0.86428516442E+02  0.24123394076E+03 -0.18462528323E+03  0.31583254715E+03  0.00000000000E+00 0.  1.
          5    1    5    5  501    0  0.94189320465E+01  0.98201504543E+02 -0.12017627692E+02  0.99492538166E+02  0.47000000000E+01 0. -1.
         11    1    4    4    0    0  0.18509505218E+02 -0.22996677574E+02 -0.55083263637E+02  0.62494918960E+02  0.00000000000E+00 0. -1.
        -12    1    4    4    0    0  0.15472588351E+01 -0.24325849737E+03 -0.18943185734E+03  0.30832048120E+03  0.00000000000E+00 0.  1.
         -5    1    3    3    0  503  0.11977523667E+03 -0.14192463746E+03 -0.18535986533E+03  0.26242918990E+03  0.47000000000E+01 0.  1.
</event>
<event>
12    1  0.9749377E-001  0.5267865E+03  0.7818608E-02  0.1007014E+00
         21   -1    0    0  503  502  0.00000000000E+00  0.00000000000E+00  0.23673604025E+04  0.23673604025E+04  0.00000000000E+00 0.  1.
         21   -1    0    0  501  503 -0.00000000000E+00 -0.00000000000E+00 -0.18345398864E+03  0.18345398864E+03  0.00000000000E+00 0. -1.
          6    2    1    2  501    0 -0.71078320613E+02 -0.50718957842E+03  0.35627736696E+03  0.64677337706E+03  0.17055451604E+03 0.  0.
         24    2    3    3    0    0 -0.98829417080E+02 -0.45556296191E+03  0.27852607441E+03  0.54929115108E+03  0.82699024115E+02 0.  0.
         -6    2    1    2    0  502  0.71078320613E+02  0.50718957842E+03  0.18276290469E+04  0.19040410140E+04  0.15116498967E+03 0.  0.
        -24    2    5    5    0    0  0.20972370913E+02  0.43969028502E+03  0.15990875558E+04  0.16604839079E+04  0.79739640532E+02 0.  0.
         14    1    4    4    0    0 -0.43487372546E+02 -0.32759564144E+03  0.16433451685E+03  0.36907436823E+03  0.00000000000E+00 0. -1.
        -13    1    4    4    0    0 -0.55342044534E+02 -0.12796732047E+03  0.11419155757E+03  0.18021678285E+03  0.00000000000E+00 0.  1.
          5    1    3    3  501    0  0.27751096467E+02 -0.51626616515E+02  0.77751292548E+02  0.97482225974E+02  0.47000000000E+01 0. -1.
         13    1    6    6    0    0 -0.40536665883E+01  0.96167894969E+02  0.48141317309E+03  0.49094127903E+03  0.00000000000E+00 0. -1.
        -14    1    6    6    0    0  0.25026037502E+02  0.34352239005E+03  0.11176743827E+04  0.11695426289E+04  0.00000000000E+00 0.  1.
         -5    1    5    5    0  502  0.50105949700E+02  0.67499293405E+02  0.22854149109E+03  0.24355710615E+03  0.47000000000E+01 0.  1.
</event>
<event>
12    1  0.9749377E-001  0.4813548E+03  0.7818608E-02  0.1018763E+00
         21   -1    0    0  503  502  0.00000000000E+00  0.00000000000E+00  0.17596047691E+03  0.17596047691E+03  0.00000000000E+00 0.  1.
         21   -1    0    0  501  503 -0.00000000000E+00 -0.00000000000E+00 -0.19076299765E+04  0.19076299765E+04  0.00000000000E+00 0. -1.
          6    2    1    2  501    0  0.40335636383E+03  0.20323552576E+03 -0.29183282282E+03  0.56461047576E+03  0.17209752378E+03 0.  0.
         24    2    3    3    0    0  0.40251109171E+03  0.21950408338E+03 -0.27426454108E+03  0.54019500986E+03  0.79952414705E+02 0.  0.
         -6    2    1    2    0  502 -0.40335636383E+03 -0.20323552576E+03 -0.14398366768E+04  0.15189799777E+04  0.17369364286E+03 0.  0.
        -24    2    5    5    0    0 -0.27789965947E+03 -0.64868158993E+02 -0.91708428050E+03  0.96384299396E+03  0.80707129105E+02 0.  0.
         14    1    4    4    0    0  0.38502815220E+03  0.19320665079E+03 -0.26980949785E+03  0.50830370157E+03  0.00000000000E+00 0. -1.
        -13    1    4    4    0    0  0.17482939513E+02  0.26297432583E+02 -0.44550432225E+01  0.31891308293E+02  0.00000000000E+00 0.  1.
          5    1    3    3  501    0  0.84527212238E+00 -0.16268557617E+02 -0.17568281742E+02  0.24415465903E+02  0.47000000000E+01 0. -1.
         13    1    6    6    0    0 -0.41277539360E+02  0.19094472633E+02 -0.13844947241E+03  0.14572813919E+03  0.00000000000E+00 0. -1.
        -14    1    6    6    0    0 -0.23662212011E+03 -0.83962631625E+02 -0.77863480809E+03  0.81811485478E+03  0.00000000000E+00 0.  1.
         -5    1    5    5    0  502 -0.12545670436E+03 -0.13836736677E+03 -0.52275239629E+03  0.55513698371E+03  0.47000000000E+01 0.  1.
</event>
<event>
12    1  0.9749377E-001  0.3518722E+03  0.7818608E-02  0.1061849E+00
         21   -1    0    0  503  502  0.00000000000E+00  0.00000000000E+00  0.56705215016E+03  0.56705215016E+03  0.00000000000E+00 0. -1.
         21   -1    0    0  501  503 -0.00000000000E+00 -0.00000000000E+00 -0.23622717734E+03  0.23622717734E+03  0.00000000000E+00 0.  1.
          6    2    1    2  501    0  0.56540516926E+01 -0.32146386017E+03  0.13736991230E+03  0.39017425648E+03  0.17318913337E+03 0.  0.
         24    2    3    3    0    0  0.17848476175E+01 -0.10051481297E+03 -0.27809816837E+01  0.12845338364E+03  0.79913231699E+02 0.  0.
         -6    2    1    2    0  502 -0.56540516926E+01  0.32146386017E+03  0.19345506053E+03  0.41310507102E+03  0.17280034017E+03 0.  0.
        -24    2    5    5    0    0  0.42581046571E+02  0.91387345408E+02  0.85022308531E+02  0.15418118441E+03  0.79863960904E+02 0.  0.
         12    1    4    4    0    0 -0.26651462149E+02 -0.17187013772E+02 -0.21662654791E+02  0.38405266431E+02  0.00000000000E+00 0. -1.
        -11    1    4    4    0    0  0.28436309766E+02 -0.83327799201E+02  0.18881673108E+02  0.90048117205E+02  0.00000000000E+00 0.  1.
          5    1    3    3  501    0  0.38692040750E+01 -0.22094904720E+03  0.14015089398E+03  0.26172087284E+03  0.47000000000E+01 0. -1.
         11    1    6    6    0    0  0.46763651331E+02  0.10427340953E+03  0.70286576062E+02  0.13416402571E+03  0.00000000000E+00 0. -1.
        -12    1    6    6    0    0 -0.41826047601E+01 -0.12886064121E+02  0.14735732468E+02  0.20017158701E+02  0.00000000000E+00 0.  1.
         -5    1    5    5    0  502 -0.48235098264E+02  0.23007651476E+03  0.10843275200E+03  0.25892388661E+03  0.47000000000E+01 0.  1.
</event>
<event>
12    1  0.9749377E-001  0.1955287E+03  0.7818608E-02  0.1153567E+00
         21   -1    0    0  503  502  0.00000000000E+00  0.00000000000E+00  0.65708409434E+03  0.65708409434E+03  0.00000000000E+00 0.  1.
         21   -1    0    0  501  503 -0.00000000000E+00 -0.00000000000E+00 -0.77733226459E+02  0.77733226459E+02  0.00000000000E+00 0. -1.
          6    2    1    2  501    0 -0.82682232613E+02  0.12091968865E+03  0.33918144024E+03  0.40523833436E+03  0.16648163724E+03 0.  0.
         24    2    3    3    0    0  0.58062314715E+01  0.19649665985E+02  0.16383627709E+03  0.18420928196E+03  0.81675652249E+02 0.  0.
         -6    2    1    2    0  502  0.82682232613E+02 -0.12091968865E+03  0.24016942763E+03  0.32957898643E+03  0.17170623645E+03 0.  0.
        -24    2    5    5    0    0  0.11736078402E+03 -0.97895591679E+02  0.14009634833E+03  0.22109201869E+03  0.76795790362E+02 0.  0.
         14    1    4    4    0    0  0.13190173951E+02 -0.77468235824E+01 -0.24742505787E+01  0.15495672958E+02  0.00000000000E+00 0. -1.
        -13    1    4    4    0    0 -0.73839424800E+01  0.27396489568E+02  0.16631052767E+03  0.16871360900E+03  0.00000000000E+00 0.  1.
          5    1    3    3  501    0 -0.88488464085E+02  0.10127002266E+03  0.17534516315E+03  0.22102905240E+03  0.47000000000E+01 0. -1.
         11    1    6    6    0    0  0.14371059578E+02  0.13148493744E+02  0.13515979556E+02  0.23708478325E+02  0.00000000000E+00 0. -1.
        -12    1    6    6    0    0  0.10298972444E+03 -0.11104408542E+03  0.12658036877E+03  0.19738354036E+03  0.00000000000E+00 0.  1.
         -5    1    5    5    0  502 -0.34678551405E+02 -0.23024096969E+02  0.10007307931E+03  0.10848696775E+03  0.47000000000E+01 0.  1.
</event>
<event>
12    1  0.9749377E-001  0.6951919E+03  0.7818608E-02  0.9725490E-01
         21   -1    0    0  503  502  0.00000000000E+00  0.00000000000E+00  0.12428324690E+04  0.12428324690E+04  0.00000000000E+00 0. -1.
         21   -1    0    0  501  503 -0.00000000000E+00 -0.00000000000E+00 -0.46500931148E+03  0.46500931148E+03  0.00000000000E+00 0.  1.
          6    2    1    2  501    0  0.57341590383E+03 -0.37562435016E+03  0.75328452243E+02  0.71095698766E+03  0.17287571082E+03 0.  0.
         24    2    3    3    0    0  0.36695046377E+03 -0.27754131548E+03  0.11350024046E+03  0.47916519521E+03  0.70958826513E+02 0.  0.
         -6    2    1    2    0  502 -0.57341590383E+03  0.37562435016E+03  0.70249470528E+03  0.99688479282E+03  0.17430154336E+03 0.  0.
        -24    2    5    5    0    0 -0.57606884041E+03  0.35982936021E+03  0.65530822785E+03  0.94683308524E+03  0.75706937903E+02 0.  0.
         14    1    4    4    0    0  0.48689247076E+02 -0.70915439923E+02  0.23834837625E+02  0.89262208604E+02  0.00000000000E+00 0. -1.
        -13    1    4    4    0    0  0.31826121669E+03 -0.20662587556E+03  0.89665402835E+02  0.38990298661E+03  0.00000000000E+00 0.  1.
          5    1    3    3  501    0  0.20646544006E+03 -0.98083034678E+02 -0.38171788217E+02  0.23179179245E+03  0.47000000000E+01 0. -1.
         13    1    6    6    0    0 -0.12980552468E+03  0.70089516053E+02  0.18569402651E+03  0.23715877799E+03  0.00000000000E+00 0. -1.
        -14    1    6    6    0    0 -0.44626331573E+03  0.28973984415E+03  0.46961420135E+03  0.70967430725E+03  0.00000000000E+00 0.  1.
         -5    1    5    5    0  502  0.26529365839E+01  0.15794989950E+02  0.47186477429E+02  0.50051707585E+02  0.47000000000E+01 0.  1.
</event>
<event>
12    1  0.9749377E-001  0.3267313E+03  0.7818608E-02  0.1072592E+00
         21   -1    0    0  503  502  0.00000000000E+00  0.00000000000E+00  0.17158357446E+03  0.17158357446E+03  0.00000000000E+00 0. -1.
         21   -1    0    0  501  503 -0.00000000000E+00 -0.00000000000E+00 -0.65846867144E+03  0.65846867144E+03  0.00000000000E+00 0.  1.
          6    2    1    2  501    0 -0.19222795164E+02 -0.28475039249E+03 -0.31529855393E+03  0.45536795142E+03  0.16277128491E+03 0.  0.
         24    2    3    3    0    0 -0.66919567474E+02 -0.10526501682E+03 -0.11079425431E+03  0.17908172170E+03  0.65084130037E+02 0.  0.
         -6    2    1    2    0  502  0.19222795164E+02  0.28475039249E+03 -0.17158654305E+03  0.37468429449E+03  0.17173839672E+03 0.  0.
        -24    2    5    5    0    0  0.65039807928E+02  0.25343783132E+03 -0.16269953623E+03  0.31828620910E+03  0.79837715741E+02 0.  0.
         12    1    4    4    0    0 -0.21960239617E+02 -0.87309695928E+02 -0.56274791473E+02  0.10617008657E+03  0.00000000000E+00 0. -1.
        -11    1    4    4    0    0 -0.44959327857E+02 -0.17955320895E+02 -0.54519462839E+02  0.72911635135E+02  0.00000000000E+00 0.  1.
          5    1    3    3  501    0  0.47696772309E+02 -0.17948537566E+03 -0.20450429962E+03  0.27628622971E+03  0.47000000000E+01 0. -1.
         13    1    6    6    0    0 -0.11198160950E+02  0.11472984472E+03 -0.69612372939E+02  0.13466335264E+03  0.00000000000E+00 0. -1.
        -14    1    6    6    0    0  0.76237968877E+02  0.13870798660E+03 -0.93087163292E+02  0.18362285646E+03  0.00000000000E+00 0.  1.
         -5    1    5    5    0  502 -0.45817012763E+02  0.31312561165E+02 -0.88870068148E+01  0.56398085388E+02  0.47000000000E+01 0.  1.
</event>
<event>
12    1  0.1400224E+000  0.1307589E+04  0.7818608E-02  0.9023569E-01
         21   -1    0    0  503  502  0.00000000000E+00  0.00000000000E+00  0.96955607967E+03  0.96955607967E+03  0.00000000000E+00 0.  1.
         21   -1    0    0  501  503 -0.00000000000E+00 -0.00000000000E+00 -0.17840234093E+04  0.17840234093E+04  0.00000000000E+00 0. -1.
          6    2    1    2  501    0  0.28602161900E+03 -0.12702783158E+04 -0.47840087065E+03  0.13978857493E+04  0.17263200471E+03 0.  0.
         24    2    3    3    0    0  0.44273467591E+02 -0.44034074068E+03 -0.14136042735E+03  0.47006200653E+03  0.71522106563E+02 0.  0.
         -6    2    1    2    0  502 -0.28602161900E+03  0.12702783158E+04 -0.33606645893E+03  0.13556937396E+04  0.17189963584E+03 0.  0.
        -24    2    5    5    0    0 -0.12410895934E+03  0.50896351262E+03 -0.77483275317E+02  0.53550882652E+03  0.79493108847E+02 0.  0.
         14    1    4    4    0    0  0.26709691111E+02 -0.28386502459E+03 -0.12644372057E+03  0.31189866024E+03  0.00000000000E+00 0. -1.
        -13    1    4    4    0    0  0.17563776480E+02 -0.15647571609E+03 -0.14916706781E+02  0.15816334630E+03  0.00000000000E+00 0.  1.
          5    1    3    3  501    0  0.24174815141E+03 -0.82993757508E+03 -0.33704044330E+03  0.92782374277E+03  0.47000000000E+01 0. -1.
         13    1    6    6    0    0 -0.69045072220E+02  0.13326464990E+03 -0.17975372112E+02  0.15116151267E+03  0.00000000000E+00 0. -1.
        -14    1    6    6    0    0 -0.55063887122E+02  0.37569886272E+03 -0.59507903206E+02  0.38434731385E+03  0.00000000000E+00 0.  1.
         -5    1    5    5    0  502 -0.16191265966E+03  0.76131480314E+03 -0.25858318362E+03  0.82018491310E+03  0.47000000000E+01 0.  1.
</event>
<event>
12    1  0.1180054E+000  0.3928885E+03  0.7818608E-02  0.1046270E+00
         21   -1    0    0  501  502  0.00000000000E+00  0.00000000000E+00  0.75180299369E+03  0.75180299369E+03  0.00000000000E+00 0. -1.
         21   -1    0    0  502  503 -0.00000000000E+00 -0.00000000000E+00 -0.22550210429E+03  0.22550210429E+03  0.00000000000E+00 0.  1.
         -6    2    1    2    0  503 -0.14507276471E+03  0.34465893981E+03  0.25428045502E+03  0.48390516952E+03  0.17224915510E+03 0.  0.
        -24    2    3    3    0    0 -0.12404141128E+03  0.16263427212E+03  0.10394834166E+03  0.24684582720E+03  0.91057270397E+02 0.  0.
          6    2    1    2  501    0  0.14507276471E+03 -0.34465893981E+03  0.27202043438E+03  0.49339992845E+03  0.17208277319E+03 0.  0.
         24    2    5    5    0    0  0.29796301078E+02 -0.17105525112E+03  0.71372945817E+02  0.20407587405E+03  0.80032159028E+02 0.  0.
         12    1    6    6    0    0  0.38441840177E+01 -0.14275062140E+03  0.81418743601E+02  0.16438226629E+03  0.00000000000E+00 0. -1.
        -11    1    6    6    0    0  0.25952117060E+02 -0.28304629722E+02 -0.10045797784E+02  0.39693607757E+02  0.00000000000E+00 0.  1.
          5    1    5    5  501    0  0.11527646364E+03 -0.17360368869E+03  0.20064748856E+03  0.28932405441E+03  0.47000000000E+01 0. -1.
         11    1    4    4    0    0  0.53043198166E+01  0.36033992245E+00  0.23804415126E+02  0.24390896520E+02  0.00000000000E+00 0. -1.
        -12    1    4    4    0    0 -0.12934573110E+03  0.16227393220E+03  0.80143926537E+02  0.22245493068E+03  0.00000000000E+00 0.  1.
         -5    1    3    3    0  503 -0.21031353434E+02  0.18202466768E+03  0.15033211336E+03  0.23705934232E+03  0.47000000000E+01 0.  1.
</event>
<event>
12    1  0.9749377E-001  0.3064048E+03  0.7818608E-02  0.1082082E+00
         21   -1    0    0  501  502  0.00000000000E+00  0.00000000000E+00  0.22432335114E+03  0.22432335114E+03  0.00000000000E+00 0.  1.
         21   -1    0    0  502  503 -0.00000000000E+00 -0.00000000000E+00 -0.12350640699E+04  0.12350640699E+04  0.00000000000E+00 0. -1.
         -6    2    1    2    0  503 -0.12675556439E+03  0.26747779413E+03  0.49122016547E+02  0.34560051646E+03  0.17150918638E+03 0.  0.
        -24    2    3    3    0    0 -0.10056837978E+02  0.74076043764E+02  0.44664506953E+02  0.11962532052E+03  0.82017674180E+02 0.  0.
          6    2    1    2  501    0  0.12675556439E+03 -0.26747779413E+03 -0.10598627353E+04  0.11137869046E+04  0.17204914313E+03 0.  0.
         24    2    5    5    0    0  0.72111079801E+02 -0.15040166724E+03 -0.38440003679E+03  0.42606255117E+03  0.77105381677E+02 0.  0.
         14    1    6    6    0    0  0.88848100637E+01 -0.96260055792E+02 -0.16271187700E+03  0.18926196952E+03  0.00000000000E+00 0. -1.
        -13    1    6    6    0    0  0.63226269737E+02 -0.54141611444E+02 -0.22168815979E+03  0.23680058164E+03  0.00000000000E+00 0.  1.
          5    1    5    5  501    0  0.54644484588E+02 -0.11707612690E+03 -0.67546269850E+03  0.68772435340E+03  0.47000000000E+01 0. -1.
         13    1    4    4    0    0 -0.12632633902E+02  0.20736356390E+02 -0.22987293092E+02  0.33436440590E+02  0.00000000000E+00 0. -1.
        -14    1    4    4    0    0  0.25757959240E+01  0.53339687374E+02  0.67651800045E+02  0.86188879928E+02  0.00000000000E+00 0.  1.
         -5    1    3    3    0  503 -0.11669872641E+03  0.19340175037E+03  0.44575095937E+01  0.22597519595E+03  0.47000000000E+01 0.  1.
</event>
<event>
12    1  0.9749377E-001  0.7810368E+03  0.7818608E-02  0.9587879E-01
         21   -1    0    0  501  502  0.00000000000E+00  0.00000000000E+00  0.10070524550E+04  0.10070524550E+04  0.00000000000E+00 0.  1.
         21   -1    0    0  502  503 -0.00000000000E+00 -0.00000000000E+00 -0.71640540920E+03  0.71640540920E+03  0.00000000000E+00 0. -1.
         -6    2    1    2    0  503  0.44328778061E+03 -0.63205161052E+03 -0.16981972063E+03  0.80809342349E+03  0.16787777929E+03 0.  0.
        -24    2    3    3    0    0  0.27359601304E+03 -0.36726551858E+03 -0.36704386252E+02  0.46655462231E+03  0.81161962398E+02 0.  0.
          6    2    1    2  501    0 -0.44328778061E+03  0.63205161052E+03  0.46046676642E+03  0.91536444069E+03  0.17282685412E+03 0.  0.
         24    2    5    5    0    0 -0.20677492093E+03  0.19964308233E+03  0.17393117765E+03  0.34524147003E+03  0.79538605857E+02 0.  0.
         12    1    6    6    0    0 -0.11686506389E+03  0.14854388225E+03  0.78965884340E+02  0.20483734767E+03  0.00000000000E+00 0. -1.
        -11    1    6    6    0    0 -0.89909857035E+02  0.51099200085E+02  0.94965293314E+02  0.14040412236E+03  0.00000000000E+00 0.  1.
          5    1    5    5  501    0 -0.23651285968E+03  0.43240852819E+03  0.28653558876E+03  0.57012297066E+03  0.47000000000E+01 0. -1.
         13    1    4    4    0    0  0.58491635857E+01 -0.35153507377E+02 -0.17043613068E+02  0.39502740942E+02  0.00000000000E+00 0. -1.
        -14    1    4    4    0    0  0.26774684946E+03 -0.33211201120E+03 -0.19660773184E+02  0.42705188137E+03  0.00000000000E+00 0.  1.
         -5    1    3    3    0  503  0.16969176757E+03 -0.26478609194E+03 -0.13311533438E+03  0.34153880118E+03  0.47000000000E+01 0.  1.
</event>
<event>
12    1  0.9749377E-001  0.3240995E+03  0.7818608E-02  0.1073778E+00
         21   -1    0    0  501  502  0.00000000000E+00  0.00000000000E+00  0.23452346775E+03  0.23452346775E+03  0.00000000000E+00 0.  1.
         21   -1    0    0  502  503 -0.00000000000E+00 -0.00000000000E+00 -0.71649515022E+03  0.71649515022E+03  0.00000000000E+00 0. -1.
         -6    2    1    2    0  503  0.25691278061E+03 -0.13035903843E+03 -0.51383941428E+03  0.61431376738E+03  0.17422056533E+03 0.  0.
        -24    2    3    3    0    0  0.69888246512E+02  0.99183307487E+00 -0.13396783614E+03  0.17096770201E+03  0.79982643601E+02 0.  0.
          6    2    1    2  501    0 -0.25691278061E+03  0.13035903843E+03  0.31867731807E+02  0.33670485059E+03  0.17133869482E+03 0.  0.
         24    2    5    5    0    0 -0.26316434243E+03  0.14438759485E+03  0.11219894438E+02  0.31054561497E+03  0.78800027091E+02 0.  0.
         14    1    6    6    0    0 -0.11232431497E+03  0.10038184716E+03 -0.14450985352E+02  0.15133439117E+03  0.00000000000E+00 0. -1.
        -13    1    6    6    0    0 -0.15084002746E+03  0.44005747695E+02  0.25670879790E+02  0.15921122380E+03  0.00000000000E+00 0.  1.
          5    1    5    5  501    0  0.62515618199E+01 -0.14028556426E+02  0.20647837369E+02  0.26159235627E+02  0.47000000000E+01 0. -1.
         11    1    4    4    0    0  0.82359735291E+02  0.54314792091E+01 -0.78377778075E+02  0.11382312181E+03  0.00000000000E+00 0. -1.
        -12    1    4    4    0    0 -0.12471488779E+02 -0.44396461342E+01 -0.55590058064E+02  0.57144580196E+02  0.00000000000E+00 0.  1.
         -5    1    3    3    0  503  0.18702453410E+03 -0.13135087150E+03 -0.37987157814E+03  0.44334606537E+03  0.47000000000E+01 0.  1.
</event>
<event>
12    1  0.9749377E-001  0.4645520E+03  0.7818608E-02  0.1023469E+00
         21   -1    0    0  501  502  0.00000000000E+00  0.00000000000E+00  0.86722159991E+03  0.86722159991E+03  0.00000000000E+00 0. -1.
         21   -1    0    0  502  503 -0.00000000000E+00 -0.00000000000E+00 -0.27321067943E+03  0.27321067943E+03  0.00000000000E+00 0.  1.
         -6    2    1    2    0  503  0.44502668900E+03  0.51345359978E+02  0.39231765955E+03  0.61988461581E+03  0.17221698816E+03 0.  0.
        -24    2    3    3    0    0  0.91941270219E+02  0.35944461341E+02  0.10995627066E+03  0.16749480097E+03  0.78860163738E+02 0.  0.
          6    2    1    2  501    0 -0.44502668900E+03 -0.51345359978E+02  0.20169326093E+03  0.52054766353E+03  0.17205986922E+03 0.  0.
         24    2    5    5    0    0 -0.22404683308E+03 -0.47926897712E+02  0.17534662631E+03  0.29792686990E+03  0.74296766485E+02 0.  0.
         12    1    6    6    0    0 -0.20028228720E+03 -0.46192489374E+02  0.12081746309E+03  0.23841895904E+03  0.00000000000E+00 0. -1.
        -11    1    6    6    0    0 -0.23764545880E+02 -0.17344083388E+01  0.54529163222E+02  0.59507910859E+02  0.00000000000E+00 0.  1.
          5    1    5    5  501    0 -0.22097985591E+03 -0.34184622655E+01  0.26346634622E+02  0.22262079364E+03  0.47000000000E+01 0. -1.
         13    1    4    4    0    0  0.63037040551E+02 -0.16663279838E+02  0.68336192869E+02  0.94451938213E+02  0.00000000000E+00 0. -1.
        -14    1    4    4    0    0  0.28904229668E+02  0.52607741180E+02  0.41620077787E+02  0.73042862757E+02  0.00000000000E+00 0.  1.
         -5    1    3    3    0  503  0.35308541878E+03  0.15400898637E+02  0.28236138889E+03  0.45238981484E+03  0.47000000000E+01 0.  1.
</event>
<event>
12    1  0.9749377E-001  0.2786789E+03  0.7818608E-02  0.1096413E+00
         21   -1    0    0  501  502  0.00000000000E+00  0.00000000000E+00  0.75763018394E+03  0.75763018394E+03  0.00000000000E+00 0.  1.
         21   -1    0    0  502  503 -0.00000000000E+00 -0.00000000000E+00 -0.11132337670E+03  0.11132337670E+03  0.00000000000E+00 0. -1.
         -6    2    1    2    0  503 -0.36436773521E+01 -0.23037511070E+03  0.38206012065E+03  0.47832486678E+03  0.17244933857E+03 0.  0.
        -24    2    3    3    0    0  0.49351585634E+02 -0.17103539574E+03  0.19964544776E+03  0.27925979562E+03  0.80243647960E+02 0.  0.
          6    2    1    2  501    0  0.36436773521E+01  0.23037511070E+03  0.26424668659E+03  0.39062869387E+03  0.17227448181E+03 0.  0.
         24    2    5    5    0    0  0.10492705996E+02  0.25019465270E+03  0.25864797352E+03  0.36842150975E+03  0.78282651472E+02 0.  0.
         14    1    6    6    0    0  0.44537701497E+02  0.15469877229E+03  0.15859073808E+03  0.22597862555E+03  0.00000000000E+00 0. -1.
        -13    1    6    6    0    0 -0.34044995501E+02  0.95495880407E+02  0.10005723544E+03  0.14244288419E+03  0.00000000000E+00 0.  1.
          5    1    5    5  501    0 -0.68490286438E+01 -0.19819541999E+02  0.55987130752E+01  0.22207184119E+02  0.47000000000E+01 0. -1.
         13    1    4    4    0    0 -0.17640185842E+02 -0.72758464319E+02  0.94057443482E+02  0.12021552712E+03  0.00000000000E+00 0. -1.
        -14    1    4    4    0    0  0.66991771476E+02 -0.98276931420E+02  0.10558800428E+03  0.15904426850E+03  0.00000000000E+00 0.  1.
         -5    1    3    3    0  503 -0.52995262986E+02 -0.59339714960E+02  0.18241467289E+03  0.19906507116E+03  0.47000000000E+01 0.  1.
</event>
<event>
12    1  0.9749377E-001  0.2014897E+03  0.7818608E-02  0.1148488E+00
         21   -1    0    0  501  502  0.00000000000E+00  0.00000000000E+00  0.25950940597E+03  0.25950940597E+03  0.00000000000E+00 0. -1.
         21   -1    0    0  502  503 -0.00000000000E+00 -0.00000000000E+00 -0.34773773157E+03  0.34773773157E+03  0.00000000000E+00 0.  1.
         -6    2    1    2    0  503  0.14633563824E+03 -0.92558237591E+02 -0.22966874989E+03  0.32537336456E+03  0.15211490829E+03 0.  0.
        -24    2    3    3    0    0  0.12223388204E+03 -0.10983668599E+03 -0.13543347698E+03  0.22647030044E+03  0.77080158214E+02 0.  0.
          6    2    1    2  501    0 -0.14633563824E+03  0.92558237591E+02  0.14144042429E+03  0.28187377298E+03  0.17165746097E+03 0.  0.
         24    2    5    5    0    0 -0.10701016680E+03  0.16794828571E+02  0.14354790591E+03  0.19635700077E+03  0.78846866765E+02 0.  0.
         14    1    6    6    0    0 -0.20687528374E+02  0.24777964406E+02  0.87148938520E+02  0.92934701998E+02  0.00000000000E+00 0. -1.
        -13    1    6    6    0    0 -0.86322638422E+02 -0.79831358345E+01  0.56398967387E+02  0.10342229878E+03  0.00000000000E+00 0.  1.
          5    1    5    5  501    0 -0.39325471441E+02  0.75763409019E+02 -0.21074816133E+01  0.85516772209E+02  0.47000000000E+01 0. -1.
         13    1    4    4    0    0  0.11419626581E+03 -0.84914092384E+02 -0.75564361491E+02  0.16112468134E+03  0.00000000000E+00 0. -1.
        -14    1    4    4    0    0  0.80376162278E+01 -0.24922593604E+02 -0.59869115487E+02  0.65345619102E+02  0.00000000000E+00 0.  1.
         -5    1    3    3    0  503  0.24101756200E+02  0.17278448397E+02 -0.94235272908E+02  0.98903064113E+02  0.47000000000E+01 0.  1.
</event>
<event>
12    1  0.9749377E-001  0.2254542E+03  0.7818608E-02  0.1129881E+00
         21   -1    0    0  501  502  0.00000000000E+00  0.00000000000E+00  0.77468350681E+02  0.77468350681E+02  0.00000000000E+00 0. -1.
         21   -1    0    0  502  503 -0.00000000000E+00 -0.00000000000E+00 -0.90259357748E+03  0.90259357748E+03  0.00000000000E+00 0.  1.
         -6    2    1    2    0  503 -0.19835011809E+03 -0.29023268713E+02 -0.36281129459E+03  0.44779385408E+03  0.16941717975E+03 0.  0.
        -24    2    3    3    0    0 -0.12259620319E+03 -0.15407988151E+02 -0.33483094329E+03  0.36576324060E+03  0.80023449436E+02 0.  0.
          6    2    1    2  501    0  0.19835011809E+03  0.29023268713E+02 -0.46231393220E+03  0.53226807408E+03  0.17143515187E+03 0.  0.
         24    2    5    5    0    0  0.38983026942E+02  0.48234604416E+02 -0.14161801965E+03  0.17361099065E+03  0.78986449044E+02 0.  0.
         12    1    6    6    0    0  0.50461228140E+02  0.36462847805E+02 -0.14410906663E+03  0.15698183939E+03  0.00000000000E+00 0. -1.
        -11    1    6    6    0    0 -0.11478201198E+02  0.11771756610E+02  0.24910469792E+01  0.16629151255E+02  0.00000000000E+00 0.  1.
          5    1    5    5  501    0  0.15936709115E+03 -0.19211335702E+02 -0.32069591256E+03  0.35865708343E+03  0.47000000000E+01 0. -1.
         13    1    4    4    0    0 -0.20766822193E+02  0.17852737856E+02 -0.22090449636E+02  0.35184785321E+02  0.00000000000E+00 0. -1.
        -14    1    4    4    0    0 -0.10182938100E+03 -0.33260726007E+02 -0.31274049365E+03  0.33057845528E+03  0.00000000000E+00 0.  1.
         -5    1    3    3    0  503 -0.75753914905E+02 -0.13615280562E+02 -0.27980351304E+02  0.82030613477E+02  0.47000000000E+01 0.  1.
</event>
<event>
12    1  0.9749377E-001  0.2078657E+03  0.7818608E-02  0.1143267E+00
         21   -1    0    0  501  502  0.00000000000E+00  0.00000000000E+00  0.53482615414E+02  0.53482615414E+02  0.00000000000E+00 0.  1.
         21   -1    0    0  502  503 -0.00000000000E+00 -0.00000000000E+00 -0.12872198074E+04  0.12872198074E+04  0.00000000000E+00 0. -1.
         -6    2    1    2    0  503  0.13665953956E+03  0.60911901177E+02 -0.28476835124E+03  0.36464827867E+03  0.17172438327E+03 0.  0.
        -24    2    3    3    0    0  0.23018245075E+02  0.36767430258E+02 -0.45796120594E+02  0.98890651668E+02  0.76160309819E+02 0.  0.
          6    2    1    2  501    0 -0.13665953956E+03 -0.60911901177E+02 -0.94896884072E+03  0.97605414413E+03  0.17249273070E+03 0.  0.
         24    2    5    5    0    0 -0.52368218819E+02 -0.86223418988E+02 -0.38659661712E+03  0.40681754343E+03  0.76594131327E+02 0.  0.
         12    1    6    6    0    0  0.15913011505E+02 -0.31557123992E+00 -0.68471164452E+02  0.70296684714E+02  0.00000000000E+00 0. -1.
        -11    1    6    6    0    0 -0.68281230324E+02 -0.85907847748E+02 -0.31812545266E+03  0.33652085872E+03  0.00000000000E+00 0.  1.
          5    1    5    5  501    0 -0.84291320738E+02  0.25311517811E+02 -0.56237222361E+03  0.56923660070E+03  0.47000000000E+01 0. -1.
         13    1    4    4    0    0 -0.38445630734E+01 -0.21323734059E+02 -0.29408897840E+01  0.21866209826E+02  0.00000000000E+00 0. -1.
        -14    1    4    4    0    0  0.26862808149E+02  0.58091164317E+02 -0.42855230810E+02  0.77024441842E+02  0.00000000000E+00 0.  1.
         -5    1    3    3    0  503  0.11364129448E+03  0.24144470919E+02 -0.23897223065E+03  0.26575762700E+03  0.47000000000E+01 0.  1.
</event>
<event>
12    1  0.9749377E-001  0.6302052E+03  0.7818608E-02  0.9844648E-01
         21   -1    0    0  503  502  0.00000000000E+00  0.00000000000E+00  0.30137895402E+03  0.30137895402E+03  0.00000000000E+00 0.  1.
         21   -1    0    0  501  503 -0.00000000000E+00 -0.00000000000E+00 -0.18035023341E+04  0.18035023341E+04  0.00000000000E+00 0. -1.
          6    2    1    2  501    0 -0.25290782436E+03 -0.55808373091E+03 -0.12817461440E+04  0.14311777220E+04  0.17313773742E+03 0.  0.
         24    2    3    3    0    0 -0.26786666499E+03 -0.55113416221E+03 -0.12616263053E+04  0.14047398453E+04  0.78049239374E+02 0.  0.
         -6    2    1    2    0  502  0.25290782436E+03  0.55808373091E+03 -0.22037723614E+03  0.67370356611E+03  0.17288883846E+03 0.  0.
        -24    2    5    5    0    0  0.11985555804E+03  0.32071676843E+03 -0.18386659473E+03  0.39911096355E+03  0.90873737805E+02 0.  0.
         12    1    4    4    0    0 -0.26839260972E+03 -0.51111408400E+03 -0.11917460999E+04  0.13242095629E+04  0.00000000000E+00 0. -1.
        -11    1    4    4    0    0  0.52594472730E+00 -0.40020078213E+02 -0.69880205368E+02  0.80530282381E+02  0.00000000000E+00 0.  1.
          5    1    3    3  501    0  0.14958840633E+02 -0.69495686968E+01 -0.20119838691E+02  0.26437876751E+02  0.47000000000E+01 0. -1.
         11    1    6    6    0    0  0.49292803029E+02  0.37571793702E+02 -0.40024245254E+02  0.73779132013E+02  0.00000000000E+00 0. -1.
        -12    1    6    6    0    0  0.70562755014E+02  0.28314497472E+03 -0.14384234947E+03  0.32533183153E+03  0.00000000000E+00 0.  1.
         -5    1    5    5    0  502  0.13305226631E+03  0.23736696248E+03 -0.36510641412E+02  0.27459260257E+03  0.47000000000E+01 0.  1.
</event>
<event>
12    1  0.9749377E-001  0.1287047E+03  0.7818608E-02  0.1229390E+00
         21   -1    0    0  503  502  0.00000000000E+00  0.00000000000E+00  0.20568575384E+03  0.20568575384E+03  0.00000000000E+00 0. -1.
         21   -1    0    0  501  503 -0.00000000000E+00 -0.00000000000E+00 -0.22391111748E+03  0.22391111748E+03  0.00000000000E+00 0.  1.
          6    2    1    2  501    0 -0.99108768248E+02 -0.17758392463E+02  0.79935070910E+02  0.21505562886E+03  0.17239895445E+03 0.  0.
         24    2    3    3    0    0 -0.76289346282E+02 -0.26434800767E+02  0.12159786580E+03  0.16653878067E+03  0.80188911038E+02 0.  0.
         -6    2    1    2    0  502  0.99108768248E+02  0.17758392463E+02 -0.98160434554E+02  0.21454124246E+03  0.16203260584E+03 0.  0.
        -24    2    5    5    0    0  0.98690327830E+02 -0.13180882926E+01 -0.12528374209E+03  0.18104719788E+03  0.85677031148E+02 0.  0.
         14    1    4    4    0    0  0.68828944856E+00 -0.36050270076E+02  0.42776637065E+02  0.55945834461E+02  0.00000000000E+00 0. -1.
        -13    1    4    4    0    0 -0.76977635730E+02  0.96154693093E+01  0.78821228734E+02  0.11059294621E+03  0.00000000000E+00 0.  1.
          5    1    3    3  501    0 -0.22819421966E+02  0.86764083046E+01 -0.41662794890E+02  0.48516848187E+02  0.47000000000E+01 0. -1.
         11    1    6    6    0    0  0.36683539368E+02 -0.56040794264E+01 -0.11132116579E+03  0.11734346901E+03  0.00000000000E+00 0. -1.
        -12    1    6    6    0    0  0.62006788462E+02  0.42859911339E+01 -0.13962576296E+02  0.63703728872E+02  0.00000000000E+00 0.  1.
         -5    1    5    5    0  502  0.41844041788E+00  0.19076480755E+02  0.27123307532E+02  0.33494044573E+02  0.47000000000E+01 0.  1.
</event>
<event>
12    1  0.9749377E-001  0.2707005E+03  0.7818608E-02  0.1100879E+00
         21   -1    0    0  503  502  0.00000000000E+00  0.00000000000E+00  0.15088488556E+04  0.15088488556E+04  0.00000000000E+00 0. -1.
         21   -1    0    0  501  503 -0.00000000000E+00 -0.00000000000E+00 -0.95028695998E+02  0.95028695998E+02  0.00000000000E+00 0.  1.
          6    2    1    2  501    0  0.27232792152E+02  0.23841411387E+03  0.20421373621E+03  0.35888799196E+03  0.17179763112E+03 0.  0.
         24    2    3    3    0    0 -0.51104483508E+02  0.11275498985E+03  0.99260994398E+02  0.17732777545E+03  0.79164632037E+02 0.  0.
         -6    2    1    2    0  502 -0.27232792152E+02 -0.23841411387E+03  0.12096064234E+04  0.12449895596E+04  0.17108006730E+03 0.  0.
        -24    2    5    5    0    0 -0.44011028073E+02 -0.20962163709E+03  0.73982399103E+03  0.77400321198E+03  0.76571751496E+02 0.  0.
         12    1    4    4    0    0 -0.55211245487E+02  0.32613089692E+02  0.60698096173E+02  0.88295833008E+02  0.00000000000E+00 0. -1.
        -11    1    4    4    0    0  0.41067619800E+01  0.80141900161E+02  0.38562898225E+02  0.89031942442E+02  0.00000000000E+00 0.  1.
          5    1    3    3  501    0  0.78337275659E+02  0.12565912401E+03  0.10495274181E+03  0.18156021651E+03  0.47000000000E+01 0. -1.
         11    1    6    6    0    0 -0.34703488660E+02 -0.11439064179E+03  0.53118224262E+03  0.54446682721E+03  0.00000000000E+00 0. -1.
        -12    1    6    6    0    0 -0.93075394123E+01 -0.95230995301E+02  0.20864174841E+03  0.22953638477E+03  0.00000000000E+00 0.  1.
         -5    1    5    5    0  502  0.16778235921E+02 -0.28792476781E+02  0.46978243235E+03  0.47098634764E+03  0.47000000000E+01 0.  1.
</event>
<event>
12    1  0.9749377E-001  0.5684411E+03  0.7818608E-02  0.9973134E-01
         21   -1    0    0  503  502  0.00000000000E+00  0.00000000000E+00  0.34586082400E+03  0.34586082400E+03  0.00000000000E+00 0. -1.
         21   -1    0    0  501  503 -0.00000000000E+00 -0.00000000000E+00 -0.10438366016E+04  0.10438366016E+04  0.00000000000E+00 0.  1.
          6    2    1    2  501    0  0.28753187290E+03  0.47717408204E+03 -0.51817455802E+03  0.77977218181E+03  0.17079256552E+03 0.  0.
         24    2    3    3    0    0  0.27209619906E+03  0.47112595491E+03 -0.45038229145E+03  0.70982419202E+03  0.70782541574E+02 0.  0.
         -6    2    1    2    0  502 -0.28753187290E+03 -0.47717408204E+03 -0.17980121954E+03  0.60992524374E+03  0.17120351019E+03 0.  0.
        -24    2    5    5    0    0 -0.17664056760E+03 -0.21840330300E+03 -0.14594260728E+03  0.32632747700E+03  0.79299966851E+02 0.  0.
         12    1    4    4    0    0  0.23179595579E+03  0.34370641317E+03 -0.35254804097E+03  0.54419994925E+03  0.00000000000E+00 0. -1.
        -11    1    4    4    0    0  0.40300243272E+02  0.12741954175E+03 -0.97834250479E+02  0.16562424277E+03  0.00000000000E+00 0.  1.
          5    1    3    3  501    0  0.15435673837E+02  0.60481271309E+01 -0.67792266566E+02  0.69947989783E+02  0.47000000000E+01 0. -1.
         13    1    6    6    0    0  0.38069967724E+01  0.25646520555E+01 -0.84982080932E+01  0.96586854896E+01  0.00000000000E+00 0. -1.
        -14    1    6    6    0    0 -0.18044756437E+03 -0.22096795506E+03 -0.13744439919E+03  0.31666879151E+03  0.00000000000E+00 0.  1.
         -5    1    5    5    0  502 -0.11089130530E+03 -0.25877077904E+03 -0.33858612260E+02  0.28359776674E+03  0.47000000000E+01 0.  1.
</event>
<event>
12    1  0.9749377E-001  0.2617687E+03  0.7818608E-02  0.1106085E+00
         21   -1    0    0  503  502  0.00000000000E+00  0.00000000000E+00  0.85582973218E+03  0.85582973218E+03  0.00000000000E+00 0. -1.
         21   -1    0    0  501  503 -0.00000000000E+00 -0.00000000000E+00 -0.13959658344E+03  0.13959658344E+03  0.00000000000E+00 0.  1.
          6    2    1    2  501    0 -0.22988454850E+03 -0.13672533877E+01  0.63600176688E+03  0.69733800367E+03  0.17009782145E+03 0.  0.
         24    2    3    3    0    0 -0.21400929210E+03  0.40925629353E+02  0.58324373486E+03  0.62772326644E+03  0.79927221489E+02 0.  0.
         -6    2    1    2    0  502  0.22988454850E+03  0.13672533877E+01  0.80231381860E+02  0.29808831195E+03  0.17196160056E+03 0.  0.
        -24    2    5    5    0    0  0.13067414600E+03  0.40814864566E+02 -0.70095739618E+01  0.16013218717E+03  0.82774377910E+02 0.  0.
         14    1    4    4    0    0 -0.35671324447E+02 -0.14224657946E+02  0.16984731987E+03  0.17413470747E+03  0.00000000000E+00 0. -1.
        -13    1    4    4    0    0 -0.17833796765E+03  0.55150287299E+02  0.41339641500E+03  0.45358855897E+03  0.00000000000E+00 0.  1.
          5    1    3    3  501    0 -0.15875256406E+02 -0.42292882740E+02  0.52758032016E+02  0.69614737223E+02  0.47000000000E+01 0. -1.
         13    1    6    6    0    0  0.11998954311E+03  0.18461861861E+02  0.20489513362E+02  0.12311844280E+03  0.00000000000E+00 0. -1.
        -14    1    6    6    0    0  0.10684602890E+02  0.22353002705E+02 -0.27499087324E+02  0.37013744372E+02  0.00000000000E+00 0.  1.
         -5    1    5    5    0  502  0.99210402506E+02 -0.39447611178E+02  0.87240955822E+02  0.13795612479E+03  0.47000000000E+01 0.  1.
</event>
<event>
12    1  0.9749377E-001  0.2633647E+03  0.7818608E-02  0.1105138E+00
         21   -1    0    0  501  502  0.00000000000E+00  0.00000000000E+00  0.31827905049E+03  0.31827905049E+03  0.00000000000E+00 0. -1.
         21   -1    0    0  502  503 -0.00000000000E+00 -0.00000000000E+00 -0.28105356936E+03  0.28105356936E+03  0.00000000000E+00 0.  1.
         -6    2    1    2    0  503  0.77340570012E+01 -0.24045745297E+03 -0.18890782959E+02  0.29762637152E+03  0.17419814298E+03 0.  0.
        -24    2    3    3    0    0 -0.27582607011E+02 -0.19103614275E+03  0.40781161788E+02  0.21234704431E+03  0.78565616030E+02 0.  0.
          6    2    1    2  501    0 -0.77340570012E+01  0.24045745297E+03  0.56116264090E+02  0.30170624832E+03  0.17319937313E+03 0.  0.
         24    2    5    5    0    0  0.23486657699E+02  0.23595535840E+03  0.16451086707E+02  0.25081009740E+03  0.80053185158E+02 0.  0.
         14    1    6    6    0    0  0.24304009130E+02  0.87023941090E+02 -0.29335961061E+02  0.94997104135E+02  0.00000000000E+00 0. -1.
        -13    1    6    6    0    0 -0.81735143158E+00  0.14893141731E+03  0.45787047768E+02  0.15581299326E+03  0.00000000000E+00 0.  1.
          5    1    5    5  501    0 -0.31220714700E+02  0.45020945690E+01  0.39665177383E+02  0.50896150922E+02  0.47000000000E+01 0. -1.
         13    1    4    4    0    0 -0.19510189738E+01 -0.10080935127E+03 -0.16898360835E+02  0.10223446765E+03  0.00000000000E+00 0. -1.
        -14    1    4    4    0    0 -0.25631588038E+02 -0.90226791487E+02  0.57679522622E+02  0.11011257665E+03  0.00000000000E+00 0.  1.
         -5    1    3    3    0  503  0.35316664013E+02 -0.49421310219E+02 -0.59671944747E+02  0.85279327217E+02  0.47000000000E+01 0.  1.
</event>
<event>
12    1  0.9749377E-001  0.5836417E+03  0.7818608E-02  0.9939938E-01
         21   -1    0    0  501  502  0.00000000000E+00  0.00000000000E+00  0.13273936334E+04  0.13273936334E+04  0.00000000000E+00 0.  1.
         21   -1    0    0  502  503 -0.00000000000E+00 -0.00000000000E+00 -0.27389771632E+03  0.27389771632E+03  0.00000000000E+00 0. -1.
         -6    2    1    2    0  503 -0.45510668512E+03 -0.35074637198E+03  0.62027529525E+03  0.86237527726E+03  0.16971907564E+03 0.  0.
        -24    2    3    3    0    0 -0.42033002945E+03 -0.30378102305E+03  0.48271657845E+03  0.71284384128E+03  0.78554460820E+02 0.  0.
          6    2    1    2  501    0  0.45510668512E+03  0.35074637198E+03  0.43322062179E+03  0.73891607242E+03  0.16784440009E+03 0.  0.
         24    2    5    5    0    0  0.46030881478E+03  0.32824264682E+03  0.39805951350E+03  0.69658554756E+03  0.84573096313E+02 0.  0.
         14    1    6    6    0    0  0.84824274405E+02  0.76934798897E+02  0.44454153907E+02  0.12284255211E+03  0.00000000000E+00 0. -1.
        -13    1    6    6    0    0  0.37548454038E+03  0.25130784793E+03  0.35360535960E+03  0.57374299545E+03  0.00000000000E+00 0.  1.
          5    1    5    5  501    0 -0.52021296645E+01  0.22503725158E+02  0.35161108291E+02  0.42330524864E+02  0.47000000000E+01 0. -1.
         11    1    4    4    0    0 -0.22335500228E+03 -0.15424423319E+03  0.30507224053E+03  0.40834766126E+03  0.00000000000E+00 0. -1.
        -12    1    4    4    0    0 -0.19697502716E+03 -0.14953678987E+03  0.17764433793E+03  0.30449618002E+03  0.00000000000E+00 0.  1.
         -5    1    3    3    0  503 -0.34776655668E+02 -0.46965348929E+02  0.13755871679E+03  0.14953143598E+03  0.47000000000E+01 0.  1.
</event>
<event>
12    1  0.9749377E-001  0.5722314E+03  0.7818608E-02  0.9964753E-01
         21   -1    0    0  503  502  0.00000000000E+00  0.00000000000E+00  0.54340448592E+03  0.54340448592E+03  0.00000000000E+00 0.  1.
         21   -1    0    0  501  503 -0.00000000000E+00 -0.00000000000E+00 -0.11970154373E+04  0.11970154373E+04  0.00000000000E+00 0. -1.
          6    2    1    2  501    0 -0.67631641130E+02  0.55580756730E+03 -0.92233181907E+03  0.10932027264E+04  0.17578431634E+03 0.  0.
         24    2    3    3    0    0 -0.22916099820E+02  0.34254586258E+03 -0.44443793352E+03  0.56795546068E+03  0.84767405093E+02 0.  0.
         -6    2    1    2    0  502  0.67631641130E+02 -0.55580756730E+03  0.26872086766E+03  0.64721719681E+03  0.18216230231E+03 0.  0.
        -24    2    5    5    0    0  0.88623500828E+02 -0.50870618518E+03  0.27837831873E+03  0.59454315450E+03  0.96700395509E+02 0.  0.
         12    1    4    4    0    0 -0.47158099422E+02  0.15641434981E+03 -0.24099498067E+03  0.29114930169E+03  0.00000000000E+00 0. -1.
        -11    1    4    4    0    0  0.24241999603E+02  0.18613151277E+03 -0.20344295284E+03  0.27680615899E+03  0.00000000000E+00 0.  1.
          5    1    3    3  501    0 -0.44715541310E+02  0.21326170472E+03 -0.47789388556E+03  0.52524726576E+03  0.47000000000E+01 0. -1.
         11    1    6    6    0    0  0.61597256970E+02 -0.12856994506E+03  0.97390415628E+02  0.17265383256E+03  0.00000000000E+00 0. -1.
        -12    1    6    6    0    0  0.27026243858E+02 -0.38013624011E+03  0.18098790310E+03  0.42188932195E+03  0.00000000000E+00 0.  1.
         -5    1    5    5    0  502 -0.20991859698E+02 -0.47101382127E+02 -0.96574510767E+01  0.52674042309E+02  0.47000000000E+01 0.  1.
</event>
<event>
12    1  0.9749377E-001  0.8238607E+03  0.7818608E-02  0.9526108E-01
         21   -1    0    0  503  502  0.00000000000E+00  0.00000000000E+00  0.10049865398E+04  0.10049865398E+04  0.00000000000E+00 0.  1.
         21   -1    0    0  501  503 -0.00000000000E+00 -0.00000000000E+00 -0.69258623457E+03  0.69258623457E+03  0.00000000000E+00 0. -1.
          6    2    1    2  501    0  0.78014815725E+03 -0.23437664643E+03  0.13735261688E+03  0.84412437218E+03  0.17354150713E+03 0.  0.
         24    2    3    3    0    0  0.54274408249E+03 -0.98932037159E+02  0.12758868870E+03  0.57058578041E+03  0.70218033812E+02 0.  0.
         -6    2    1    2    0  502 -0.78014815725E+03  0.23437664643E+03  0.17504768835E+03  0.85344840218E+03  0.18484837661E+03 0.  0.
        -24    2    5    5    0    0 -0.22423115321E+03  0.10332853957E+03  0.15279373464E+02  0.26035032755E+03  0.81193821447E+02 0.  0.
         14    1    4    4    0    0  0.34777680176E+03 -0.38264359155E+02  0.10420070968E+03  0.36506253289E+03  0.00000000000E+00 0. -1.
        -13    1    4    4    0    0  0.19496728073E+03 -0.60667678003E+02  0.23387979024E+02  0.20552324752E+03  0.00000000000E+00 0.  1.
          5    1    3    3  501    0  0.23740407476E+03 -0.13544460927E+03  0.97639281757E+01  0.27353859177E+03  0.47000000000E+01 0. -1.
         13    1    6    6    0    0 -0.11980889779E+03  0.36915391239E+02  0.44789529387E+02  0.13312783347E+03  0.00000000000E+00 0. -1.
        -14    1    6    6    0    0 -0.10442225541E+03  0.66413148332E+02 -0.29510155923E+02  0.12722249408E+03  0.00000000000E+00 0.  1.
         -5    1    5    5    0  502 -0.55591700404E+03  0.13104810686E+03  0.15976831489E+03  0.59309807463E+03  0.47000000000E+01 0.  1.
</event>
<event>
12    1  0.9749377E-001  0.6131948E+03  0.7818608E-02  0.9878403E-01
         21   -1    0    0  503  502  0.00000000000E+00  0.00000000000E+00  0.19340523244E+04  0.19340523244E+04  0.00000000000E+00 0. -1.
         21   -1    0    0  501  503 -0.00000000000E+00 -0.00000000000E+00 -0.20308946197E+03  0.20308946197E+03  0.00000000000E+00 0.  1.
          6    2    1    2  501    0 -0.10764718888E+02  0.60267364900E+03  0.90054852811E+03  0.10970409313E+04  0.17082080418E+03 0.  0.
         24    2    3    3    0    0  0.37359468462E+02  0.49897740560E+03  0.66904968924E+03  0.83881109048E+03  0.74849032435E+02 0.  0.
         -6    2    1    2    0  502  0.10764718888E+02 -0.60267364900E+03  0.83041433430E+03  0.10401008550E+04  0.16997180839E+03 0.  0.
        -24    2    5    5    0    0  0.24779781902E+02 -0.27233522008E+03  0.48116819803E+03  0.55914882695E+03  0.79649646553E+02 0.  0.
         14    1    4    4    0    0  0.32492316605E+02  0.46324195596E+03  0.64746211252E+03  0.79677854360E+03  0.00000000000E+00 0. -1.
        -13    1    4    4    0    0  0.48671518565E+01  0.35735449643E+02  0.21587576723E+02  0.42032546879E+02  0.00000000000E+00 0.  1.
          5    1    3    3  501    0 -0.48124187350E+02  0.10369624340E+03  0.23149883887E+03  0.25822984084E+03  0.47000000000E+01 0. -1.
         13    1    6    6    0    0 -0.84686537019E+01 -0.22868541204E+01  0.38983331713E+02  0.39958077391E+02  0.00000000000E+00 0. -1.
        -14    1    6    6    0    0  0.33248435604E+02 -0.27004836596E+03  0.44218486632E+03  0.51919074956E+03  0.00000000000E+00 0.  1.
         -5    1    5    5    0  502 -0.14015063015E+02 -0.33033842892E+03  0.34924613627E+03  0.48095202808E+03  0.47000000000E+01 0.  1.
</event>
<event>
12    1  0.9749377E-001  0.1034476E+04  0.7818608E-02  0.9271520E-01
         21   -1    0    0  501  502  0.00000000000E+00  0.00000000000E+00  0.14706445625E+04  0.14706445625E+04  0.00000000000E+00 0. -1.
         21   -1    0    0  502  503 -0.00000000000E+00 -0.00000000000E+00 -0.82762326166E+03  0.82762326166E+03  0.00000000000E+00 0.  1.
         -6    2    1    2    0  503  0.84519690449E+03 -0.57702403243E+03 -0.68841210867E+02  0.10399887855E+04  0.17182264221E+03 0.  0.
        -24    2    3    3    0    0  0.21902435593E+03 -0.17656269647E+03  0.70023793769E+01  0.29283707246E+03  0.80984340574E+02 0.  0.
          6    2    1    2  501    0 -0.84519690449E+03  0.57702403243E+03  0.71186251169E+03  0.12582790386E+04  0.17088991201E+03 0.  0.
         24    2    5    5    0    0 -0.23085924560E+03  0.20046099654E+03  0.23576200734E+03  0.39462154897E+03  0.81620097956E+02 0.  0.
         14    1    6    6    0    0 -0.13341324085E+03  0.16306921746E+03  0.13992246781E+03  0.25292085623E+03  0.00000000000E+00 0. -1.
        -13    1    6    6    0    0 -0.97446004753E+02  0.37391779078E+02  0.95839539536E+02  0.14170069274E+03  0.00000000000E+00 0.  1.
          5    1    5    5  501    0 -0.61433765889E+03  0.37656303589E+03  0.47610050434E+03  0.86365748962E+03  0.47000000000E+01 0. -1.
         13    1    4    4    0    0  0.13052900867E+03 -0.14729343300E+03 -0.13949575407E+02  0.19730121177E+03  0.00000000000E+00 0. -1.
        -14    1    4    4    0    0  0.88495347257E+02 -0.29269263466E+02  0.20951954784E+02  0.95535860698E+02  0.00000000000E+00 0.  1.
         -5    1    3    3    0  503  0.62617254857E+03 -0.40046133596E+03 -0.75843590244E+02  0.74715171308E+03  0.47000000000E+01 0.  1.
</event>
<event>
12    1  0.9749377E-001  0.3888443E+03  0.7818608E-02  0.1047712E+00
         21   -1    0    0  501  502  0.00000000000E+00  0.00000000000E+00  0.26039866045E+03  0.26039866045E+03  0.00000000000E+00 0. -1.
         21   -1    0    0  502  503 -0.00000000000E+00 -0.00000000000E+00 -0.63409921601E+03  0.63409921601E+03  0.00000000000E+00 0.  1.
         -6    2    1    2    0  503  0.15005714194E+03  0.32009888384E+03 -0.29930993708E+03  0.49418214145E+03  0.17218916696E+03 0.  0.
        -24    2    3    3    0    0  0.74247734685E+02  0.29108216964E+03 -0.22381375314E+03  0.38322809817E+03  0.80806086093E+02 0.  0.
          6    2    1    2  501    0 -0.15005714194E+03 -0.32009888384E+03 -0.74390618481E+02  0.40031573500E+03  0.17244791183E+03 0.  0.
         24    2    5    5    0    0 -0.10116161523E+02 -0.85640750174E+02 -0.47056966226E+02  0.12586480499E+03  0.78682375729E+02 0.  0.
         12    1    6    6    0    0  0.22354918491E+02 -0.75602357947E+02 -0.47180141407E+02  0.91877225965E+02  0.00000000000E+00 0. -1.
        -11    1    6    6    0    0 -0.32471080014E+02 -0.10038392227E+02  0.12317518138E+00  0.33987579024E+02  0.00000000000E+00 0.  1.
          5    1    5    5  501    0 -0.13994098041E+03 -0.23445813366E+03 -0.27333652255E+02  0.27445093001E+03  0.47000000000E+01 0. -1.
         13    1    4    4    0    0  0.73397431074E+02  0.12927227327E+03 -0.95172035715E+02  0.17651124584E+03  0.00000000000E+00 0. -1.
        -14    1    4    4    0    0  0.85030361034E+00  0.16180989637E+03 -0.12864171742E+03  0.20671685234E+03  0.00000000000E+00 0.  1.
         -5    1    3    3    0  503  0.75809407251E+02  0.29016714200E+02 -0.75496183939E+02  0.11095404328E+03  0.47000000000E+01 0.  1.
</event>
<event>
12    1  0.9749377E-001  0.9261377E+03  0.7818608E-02  0.9393485E-01
         21   -1    0    0  503  502  0.00000000000E+00  0.00000000000E+00  0.17181967552E+04  0.17181967552E+04  0.00000000000E+00 0. -1.
         21   -1    0    0  501  503 -0.00000000000E+00 -0.00000000000E+00 -0.52162386200E+03  0.52162386200E+03  0.00000000000E+00 0.  1.
          6    2    1    2  501    0  0.91472032141E+03  0.96408089033E+02  0.76829239870E+03  0.12108152257E+04  0.17260508322E+03 0.  0.
         24    2    3    3    0    0  0.72044901728E+03  0.38163777222E+02  0.66068368223E+03  0.98117318829E+03  0.75462819065E+02 0.  0.
         -6    2    1    2    0  502 -0.91472032141E+03 -0.96408089033E+02  0.42828049450E+03  0.10290053915E+04  0.17152296589E+03 0.  0.
        -24    2    5    5    0    0 -0.63008407041E+03 -0.14419794467E+02  0.24716056089E+03  0.68177866996E+03  0.80746180726E+02 0.  0.
         12    1    4    4    0    0  0.45855917688E+03  0.82710173906E+01  0.46290858322E+03  0.65163585295E+03  0.00000000000E+00 0. -1.
        -11    1    4    4    0    0  0.26188984040E+03  0.29892759831E+02  0.19777509901E+03  0.32953733535E+03  0.00000000000E+00 0.  1.
          5    1    3    3  501    0  0.19427130413E+03  0.58244311811E+02  0.10760871647E+03  0.22964203737E+03  0.47000000000E+01 0. -1.
         13    1    6    6    0    0 -0.19690266981E+03 -0.18159521218E+02  0.40639140793E+02  0.20187117018E+03  0.00000000000E+00 0. -1.
        -14    1    6    6    0    0 -0.43318140060E+03  0.37397267506E+01  0.20652142009E+03  0.47990749978E+03  0.00000000000E+00 0.  1.
         -5    1    5    5    0  502 -0.28463625100E+03 -0.81988294566E+02  0.18111993361E+03  0.34722672158E+03  0.47000000000E+01 0.  1.
</event>
<event>
12    1  0.9749377E-001  0.2444601E+03  0.7818608E-02  0.1116857E+00
         21   -1    0    0  501  502  0.00000000000E+00  0.00000000000E+00  0.41410629139E+03  0.41410629139E+03  0.00000000000E+00 0. -1.
         21   -1    0    0  502  503 -0.00000000000E+00 -0.00000000000E+00 -0.20385348981E+03  0.20385348981E+03  0.00000000000E+00 0.  1.
         -6    2    1    2    0  503 -0.14070852985E+03  0.14442551961E+03  0.23191432426E+03  0.35222056809E+03  0.17209722166E+03 0.  0.
        -24    2    3    3    0    0 -0.49371029416E+02  0.13593240731E+03  0.10502423584E+03  0.19557492825E+03  0.79399902672E+02 0.  0.
          6    2    1    2  501    0  0.14070852985E+03 -0.14442551961E+03 -0.21661522681E+02  0.26573921311E+03  0.17172794394E+03 0.  0.
         24    2    5    5    0    0  0.16684734030E+00 -0.58421983883E+02  0.72870939967E+01  0.98381258150E+02  0.78820138147E+02 0.  0.
         12    1    6    6    0    0 -0.25423643888E+02 -0.18478892400E+02 -0.25701846763E+02  0.40600690388E+02  0.00000000000E+00 0. -1.
        -11    1    6    6    0    0  0.25590491228E+02 -0.39943091483E+02  0.32988940760E+02  0.57780567763E+02  0.00000000000E+00 0.  1.
          5    1    5    5  501    0  0.14054168251E+03 -0.86003535724E+02 -0.28948616677E+02  0.16735795496E+03  0.47000000000E+01 0. -1.
         13    1    4    4    0    0  0.74492339470E+01  0.48656182258E+02  0.22729775989E+01  0.49275567835E+02  0.00000000000E+00 0. -1.
        -14    1    4    4    0    0 -0.56820263363E+02  0.87276225052E+02  0.10275125825E+03  0.14629936042E+03  0.00000000000E+00 0.  1.
         -5    1    3    3    0  503 -0.91337500434E+02  0.84931122967E+01  0.12689008842E+03  0.15664563984E+03  0.47000000000E+01 0.  1.
</event>
<event>
12    1  0.9749377E-001  0.1366675E+04  0.7818608E-02  0.8978300E-01
         21   -1    0    0  501  502  0.00000000000E+00  0.00000000000E+00  0.70554556787E+03  0.70554556787E+03  0.00000000000E+00 0. -1.
         21   -1    0    0  502  503 -0.00000000000E+00 -0.00000000000E+00 -0.30042609650E+04  0.30042609650E+04  0.00000000000E+00 0.  1.
         -6    2    1    2    0  503 -0.13337075631E+04 -0.28169363477E+03 -0.17635555323E+04  0.22353914847E+04  0.16946918978E+03 0.  0.
        -24    2    3    3    0    0 -0.12994367072E+04 -0.29213642239E+03 -0.17381312090E+04  0.21912097057E+04  0.80127580421E+02 0.  0.
          6    2    1    2  501    0  0.13337075631E+04  0.28169363477E+03 -0.53515986484E+03  0.14744150482E+04  0.17139569909E+03 0.  0.
         24    2    5    5    0    0  0.10421386599E+04  0.22369192186E+03 -0.48177902095E+03  0.11723418311E+04  0.78633844296E+02 0.  0.
         14    1    6    6    0    0  0.71095227894E+03  0.17531138355E+03 -0.36210387993E+03  0.81688826898E+03  0.00000000000E+00 0. -1.
        -13    1    6    6    0    0  0.33118638098E+03  0.48380538311E+02 -0.11967514102E+03  0.35545356210E+03  0.00000000000E+00 0.  1.
          5    1    5    5  501    0  0.29156890322E+03  0.58001712914E+02 -0.53380843894E+02  0.30207321715E+03  0.47000000000E+01 0. -1.
         11    1    4    4    0    0 -0.43963072325E+03 -0.12490400306E+03 -0.55005481990E+03  0.71514787821E+03  0.00000000000E+00 0. -1.
        -12    1    4    4    0    0 -0.85980598397E+03 -0.16723241932E+03 -0.11880763892E+04  0.14760618275E+04  0.00000000000E+00 0.  1.
         -5    1    3    3    0  503 -0.34270855922E+02  0.10442787614E+02 -0.25424323290E+02  0.44181778977E+02  0.47000000000E+01 0.  1.
</event>
<event>
12    1  0.9749377E-001  0.1780203E+03  0.7818608E-02  0.1169733E+00
         21   -1    0    0  503  502  0.00000000000E+00  0.00000000000E+00  0.27333149059E+03  0.27333149059E+03  0.00000000000E+00 0. -1.
         21   -1    0    0  501  503 -0.00000000000E+00 -0.00000000000E+00 -0.31917338604E+03  0.31917338604E+03  0.00000000000E+00 0.  1.
          6    2    1    2  501    0 -0.51028599407E+02 -0.13671387158E+03  0.16789072207E+03  0.28146985679E+03  0.17246270636E+03 0.  0.
         24    2    3    3    0    0 -0.48150285684E+02 -0.14706899255E+03  0.18884514013E+03  0.25745546826E+03  0.81688999275E+02 0.  0.
         -6    2    1    2    0  502  0.51028599407E+02  0.13671387158E+03 -0.21373261753E+03  0.31103501984E+03  0.17252985577E+03 0.  0.
        -24    2    5    5    0    0 -0.13501167324E+02  0.76429016798E+01 -0.10123281456E+03  0.12800031894E+03  0.76780879392E+02 0.  0.
         12    1    4    4    0    0 -0.48757823456E+02 -0.13775107444E+03  0.12314534244E+03  0.19109541915E+03  0.00000000000E+00 0. -1.
        -11    1    4    4    0    0  0.60753777188E+00 -0.93179181147E+01  0.65699797696E+02  0.66360049106E+02  0.00000000000E+00 0.  1.
          5    1    3    3  501    0 -0.28783137230E+01  0.10355120974E+02 -0.20954418062E+02  0.24014388532E+02  0.47000000000E+01 0. -1.
         13    1    6    6    0    0 -0.27682889685E+02 -0.12789251364E+01 -0.24653999374E+01  0.27821865999E+02  0.00000000000E+00 0. -1.
        -14    1    6    6    0    0  0.14181722362E+02  0.89218268162E+01 -0.98767414618E+02  0.10017845294E+03  0.00000000000E+00 0.  1.
         -5    1    5    5    0  502  0.64529766731E+02  0.12907096990E+03 -0.11249980297E+03  0.18303470090E+03  0.47000000000E+01 0.  1.
</event>
<event>
12    1  0.9749377E-001  0.3149351E+03  0.7818608E-02  0.1078004E+00
         21   -1    0    0  501  502  0.00000000000E+00  0.00000000000E+00  0.41991375432E+03  0.41991375432E+03  0.00000000000E+00 0.  1.
         21   -1    0    0  502  503 -0.00000000000E+00 -0.00000000000E+00 -0.39957285205E+03  0.39957285205E+03  0.00000000000E+00 0. -1.
         -6    2    1    2    0  503 -0.37532148209E+02  0.30529868649E+03  0.21898524649E+03  0.41477975884E+03  0.17167341101E+03 0.  0.
        -24    2    3    3    0    0  0.10839205547E+02  0.21813362822E+03  0.21107974455E+03  0.31466920891E+03  0.82233109750E+02 0.  0.
          6    2    1    2  501    0  0.37532148209E+02 -0.30529868649E+03 -0.19864434422E+03  0.40470684752E+03  0.17237200128E+03 0.  0.
         24    2    5    5    0    0  0.28345698107E+02 -0.17546509586E+03 -0.39737740883E+02  0.19924504888E+03  0.80796181746E+02 0.  0.
         14    1    6    6    0    0  0.35948428865E+02 -0.16021344124E+03 -0.58119053628E+02  0.17417939225E+03  0.00000000000E+00 0. -1.
        -13    1    6    6    0    0 -0.76027307586E+01 -0.15251654624E+02  0.18381312745E+02  0.25065656624E+02  0.00000000000E+00 0.  1.
          5    1    5    5  501    0  0.91864501018E+01 -0.12983359062E+03 -0.15890660333E+03  0.20546179865E+03  0.47000000000E+01 0. -1.
         13    1    4    4    0    0 -0.81257192766E+00  0.68275918374E+02  0.12237858660E+03  0.14013843070E+03  0.00000000000E+00 0. -1.
        -14    1    4    4    0    0  0.11651777474E+02  0.14985770985E+03  0.88701157955E+02  0.17453077821E+03  0.00000000000E+00 0.  1.
         -5    1    3    3    0  503 -0.48371353755E+02  0.87165058264E+02  0.79055019352E+01  0.10011054993E+03  0.47000000000E+01 0.  1.
</event>
<event>
12    1  0.9749377E-001  0.6100252E+03  0.7818608E-02  0.9884822E-01
         21   -1    0    0  501  502  0.00000000000E+00  0.00000000000E+00  0.28628588191E+03  0.28628588191E+03  0.00000000000E+00 0.  1.
         21   -1    0    0  502  503 -0.00000000000E+00 -0.00000000000E+00 -0.17213884700E+04  0.17213884700E+04  0.00000000000E+00 0. -1.
         -6    2    1    2    0  503  0.53012930344E+03 -0.28175681959E+03 -0.11761786402E+04  0.13316832116E+04  0.17193021427E+03 0.  0.
        -24    2    3    3    0    0  0.13080963873E+03 -0.68329715473E+02 -0.38686754862E+03  0.42171540297E+03  0.79982931496E+02 0.  0.
          6    2    1    2  501    0 -0.53012930344E+03  0.28175681959E+03 -0.25892394786E+03  0.67599114030E+03  0.17175106182E+03 0.  0.
         24    2    5    5    0    0 -0.11482988230E+03  0.79394694879E+02 -0.57854907869E+02  0.17213115225E+03  0.82416768715E+02 0.  0.
         12    1    6    6    0    0 -0.24274774091E+02  0.17974515057E+02  0.21405231890E+02  0.37020694226E+02  0.00000000000E+00 0. -1.
        -11    1    6    6    0    0 -0.90555108211E+02  0.61420179822E+02 -0.79260139759E+02  0.13511045802E+03  0.00000000000E+00 0.  1.
          5    1    5    5  501    0 -0.41529942114E+03  0.20236212471E+03 -0.20106903999E+03  0.50385998805E+03  0.47000000000E+01 0.  1.
         13    1    4    4    0    0  0.92804507788E+02 -0.83366147092E+02 -0.31853655699E+03  0.34209374342E+03  0.00000000000E+00 0. -1.
        -14    1    4    4    0    0  0.38005130937E+02  0.15036431619E+02 -0.68330991627E+02  0.79621659554E+02  0.00000000000E+00 0.  1.
         -5    1    3    3    0  503  0.39931966472E+03 -0.21342710412E+03 -0.78931109160E+03  0.90996780862E+03  0.47000000000E+01 0.  1.
</event>
<event>
12    1  0.9749377E-001  0.5309089E+03  0.7818608E-02  0.1006012E+00
         21   -1    0    0  503  502  0.00000000000E+00  0.00000000000E+00  0.48698399550E+03  0.48698399550E+03  0.00000000000E+00 0. -1.
         21   -1    0    0  501  503 -0.00000000000E+00 -0.00000000000E+00 -0.65547371478E+03  0.65547371478E+03  0.00000000000E+00 0.  1.
          6    2    1    2  501    0  0.14560855476E+02  0.50700272681E+03  0.97479796908E+02  0.54446712264E+03  0.17227406460E+03 0.  0.
         24    2    3    3    0    0 -0.83319591671E+00  0.51079748680E+03  0.10254281236E+03  0.52717258168E+03  0.80505501529E+02 0.  0.
         -6    2    1    2    0  502 -0.14560855476E+02 -0.50700272681E+03 -0.26596951619E+03  0.59799058763E+03  0.17201504543E+03 0.  0.
        -24    2    5    5    0    0  0.31568049191E+02 -0.17279187210E+03 -0.13724647389E+03  0.23685836411E+03  0.80073199385E+02 0.  0.
         12    1    4    4    0    0 -0.35182635908E+02  0.38699594038E+03  0.79635263054E+02  0.39666793526E+03  0.00000000000E+00 0. -1.
        -11    1    4    4    0    0  0.34349439991E+02  0.12380154642E+03  0.22907549303E+02  0.13050464642E+03  0.00000000000E+00 0.  1.
          5    1    3    3  501    0  0.15394051392E+02 -0.37947599914E+01 -0.50630154486E+01  0.17294540962E+02  0.47000000000E+01 0. -1.
         11    1    6    6    0    0  0.42542758310E+01 -0.16098679300E+03 -0.12794965671E+03  0.20568412928E+03  0.00000000000E+00 0. -1.
        -12    1    6    6    0    0  0.27313773360E+02 -0.11805079100E+02 -0.92968171745E+01  0.31174234831E+02  0.00000000000E+00 0.  1.
         -5    1    5    5    0  502 -0.46128904667E+02 -0.33421085471E+03 -0.12872304230E+03  0.36113222353E+03  0.47000000000E+01 0.  1.
</event>
<event>
12    1  0.9749377E-001  0.3956308E+03  0.7818608E-02  0.1045303E+00
         21   -1    0    0  501  502  0.00000000000E+00  0.00000000000E+00  0.13779551707E+04  0.13779551707E+04  0.00000000000E+00 0. -1.
         21   -1    0    0  502  503 -0.00000000000E+00 -0.00000000000E+00 -0.22031761138E+03  0.22031761138E+03  0.00000000000E+00 0.  1.
         -6    2    1    2    0  503  0.34728502607E+03 -0.10329106649E+03  0.11230034830E+04  0.11931825143E+04  0.17683821887E+03 0.  0.
        -24    2    3    3    0    0  0.91777916334E+02  0.88967681570E+01  0.38227642991E+03  0.40162161918E+03  0.81623021992E+02 0.  0.
          6    2    1    2  501    0 -0.34728502607E+03  0.10329106649E+03  0.34634076325E+02  0.40509026787E+03  0.17782764725E+03 0.  0.
         24    2    5    5    0    0 -0.98768714438E+02  0.13967818096E+02  0.55064966518E+02  0.14017799725E+03  0.81653912829E+02 0.  0.
         12    1    6    6    0    0 -0.66164054350E+02 -0.30801461080E+02  0.24904569282E+02  0.77114523041E+02  0.00000000000E+00 0. -1.
        -11    1    6    6    0    0 -0.32604660088E+02  0.44769279176E+02  0.30160397236E+02  0.63063474206E+02  0.00000000000E+00 0.  1.
          5    1    5    5  501    0 -0.24851631164E+03  0.89323248392E+02 -0.20430890193E+02  0.26491227062E+03  0.47000000000E+01 0. -1.
         11    1    4    4    0    0  0.90354566554E+02  0.32509700747E+02  0.33857107862E+03  0.35192499715E+03  0.00000000000E+00 0. -1.
        -12    1    4    4    0    0  0.14233497791E+01 -0.23612932590E+02  0.43705351289E+02  0.49696622032E+02  0.00000000000E+00 0.  1.
         -5    1    3    3    0  503  0.25550710974E+03 -0.11218783465E+03  0.74072705312E+03  0.79156089507E+03  0.47000000000E+01 0.  1.
</event>
<event>
12    1  0.9749377E-001  0.1273116E+03  0.7818608E-02  0.1231500E+00
         21   -1    0    0  503  502  0.00000000000E+00  0.00000000000E+00  0.38829082353E+02  0.38829082353E+02  0.00000000000E+00 0.  1.
         21   -1    0    0  501  503 -0.00000000000E+00 -0.00000000000E+00 -0.12092564057E+04  0.12092564057E+04  0.00000000000E+00 0.  1.
          6    2    1    2  501    0 -0.43670123871E+02  0.56730688248E+02 -0.27777621968E+03  0.33550261369E+03  0.17400265764E+03 0.  0.
         24    2    3    3    0    0 -0.10102004932E+02 -0.19573316672E+02 -0.21711170040E+03  0.23229702433E+03  0.79619418691E+02 0.  0.
         -6    2    1    2    0  502  0.43670123871E+02 -0.56730688248E+02 -0.89265110366E+03  0.91258287435E+03  0.17565892802E+03 0.  0.
        -24    2    5    5    0    0  0.59683968477E+02 -0.73336832638E+02 -0.41100209968E+03  0.43035879751E+03  0.85705901438E+02 0.  0.
         12    1    4    4    0    0 -0.93569847672E+01 -0.14260412655E+02 -0.20619245810E+01  0.17180339519E+02  0.00000000000E+00 0. -1.
        -11    1    4    4    0    0 -0.74502016472E+00 -0.53129040169E+01 -0.21504977582E+03  0.21511668481E+03  0.00000000000E+00 0.  1.
          5    1    3    3  501    0 -0.33568118939E+02  0.76304004919E+02 -0.60664519277E+02  0.10320558936E+03  0.47000000000E+01 0. -1.
         11    1    6    6    0    0  0.67574324031E+02 -0.18911713457E+02 -0.27114764283E+03  0.28008032131E+03  0.00000000000E+00 0. -1.
        -12    1    6    6    0    0 -0.78903555532E+01 -0.54425119180E+02 -0.13985445685E+03  0.15027847620E+03  0.00000000000E+00 0.  1.
         -5    1    5    5    0  502 -0.16013844606E+02  0.16606144390E+02 -0.48164900398E+03  0.48222407684E+03  0.47000000000E+01 0.  1.
</event>
<event>
12    1  0.9749377E-001  0.3673714E+03  0.7818608E-02  0.1055703E+00
         21   -1    0    0  503  502  0.00000000000E+00  0.00000000000E+00  0.20567081477E+03  0.20567081477E+03  0.00000000000E+00 0. -1.
         21   -1    0    0  501  503 -0.00000000000E+00 -0.00000000000E+00 -0.87893056870E+03  0.87893056870E+03  0.00000000000E+00 0.  1.
          6    2    1    2  501    0  0.56463322183E+02 -0.34143660106E+03 -0.55884725241E+03  0.67999776646E+03  0.17412539033E+03 0.  0.
         24    2    3    3    0    0  0.61138134503E+02 -0.33918078054E+03 -0.45717698295E+03  0.57808664689E+03  0.79949385255E+02 0.  0.
         -6    2    1    2    0  502 -0.56463322183E+02  0.34143660106E+03 -0.11441250151E+03  0.40460361701E+03  0.17563259122E+03 0.  0.
        -24    2    5    5    0    0  0.54353238522E+01  0.30863974452E+03 -0.93834280233E+02  0.33144195102E+03  0.75900330053E+02 0.  0.
         12    1    4    4    0    0  0.15091356447E+02 -0.63903298001E+02 -0.42442804788E+02  0.78184219719E+02  0.00000000000E+00 0. -1.
        -11    1    4    4    0    0  0.46046778056E+02 -0.27527748254E+03 -0.41473417816E+03  0.49990242717E+03  0.00000000000E+00 0.  1.
          5    1    3    3  501    0 -0.46748123202E+01 -0.22558205170E+01 -0.10167026947E+03  0.10191111956E+03  0.47000000000E+01 0. -1.
         11    1    6    6    0    0 -0.13534728063E+02  0.26294773315E+03 -0.56063569643E+02  0.26919848267E+03  0.00000000000E+00 0. -1.
        -12    1    6    6    0    0  0.18970051915E+02  0.45692011375E+02 -0.37770710590E+02  0.62243468345E+02  0.00000000000E+00 0.  1.
         -5    1    5    5    0  502 -0.61898646035E+02  0.32796856535E+02 -0.20578221280E+02  0.73161665991E+02  0.47000000000E+01 0.  1.
</event>
<event>
12    1  0.9749377E-001  0.3345094E+03  0.7818608E-02  0.1069159E+00
         21   -1    0    0  501  502  0.00000000000E+00  0.00000000000E+00  0.28875052534E+03  0.28875052534E+03  0.00000000000E+00 0.  1.
         21   -1    0    0  502  503 -0.00000000000E+00 -0.00000000000E+00 -0.48929798600E+03  0.48929798600E+03  0.00000000000E+00 0. -1.
         -6    2    1    2    0  503  0.24565799670E+03 -0.19432769492E+03  0.20220636721E+02  0.35792295244E+03  0.17201413135E+03 0.  0.
        -24    2    3    3    0    0  0.14349114410E+03 -0.77059871451E+02 -0.50497730765E+02  0.18700488526E+03  0.76765057643E+02 0.  0.
          6    2    1    2  501    0 -0.24565799670E+03  0.19432769492E+03 -0.22076809738E+03  0.42012555889E+03  0.17220867591E+03 0.  0.
         24    2    5    5    0    0 -0.17344437071E+03  0.17906514972E+03 -0.10272141001E+03  0.28082421840E+03  0.78506534694E+02 0.  0.
         14    1    6    6    0    0 -0.92972823751E+02  0.43771497793E+02 -0.27609901972E+02  0.10640581122E+03  0.00000000000E+00 0. -1.
        -13    1    6    6    0    0 -0.80471546958E+02  0.13529365193E+03 -0.75111508041E+02  0.17441840718E+03  0.00000000000E+00 0.  1.
          5    1    5    5  501    0 -0.72213625989E+02  0.15262545196E+02 -0.11804668737E+03  0.13930134049E+03  0.47000000000E+01 0. -1.
         11    1    4    4    0    0  0.99235034776E+02 -0.11106292708E+02 -0.19478673332E+02  0.10173672188E+03  0.00000000000E+00 0. -1.
        -12    1    4    4    0    0  0.44256109325E+02 -0.65953578742E+02 -0.31019057433E+02  0.85268163376E+02  0.00000000000E+00 0.  1.
         -5    1    3    3    0  503  0.10216685260E+03 -0.11726782347E+03  0.70718367486E+02  0.17091806718E+03  0.47000000000E+01 0.  1.
</event>
<event>
12    1  0.9749377E-001  0.2774980E+03  0.7818608E-02  0.1097063E+00
         21   -1    0    0  503  502  0.00000000000E+00  0.00000000000E+00  0.15272852078E+04  0.15272852078E+04  0.00000000000E+00 0.  1.
         21   -1    0    0  501  503 -0.00000000000E+00 -0.00000000000E+00 -0.64051083260E+02  0.64051083260E+02  0.00000000000E+00 0. -1.
          6    2    1    2  501    0  0.25208771284E+03  0.85325313833E+01  0.55708558956E+03  0.63537205811E+03  0.17243050506E+03 0.  0.
         24    2    3    3    0    0  0.19648097786E+03  0.23951800413E+02  0.53023252842E+03  0.57155168734E+03  0.79663879575E+02 0.  0.
         -6    2    1    2    0  502 -0.25208771284E+03 -0.85325313833E+01  0.90614853498E+03  0.95596423295E+03  0.17070860604E+03 0.  0.
        -24    2    5    5    0    0 -0.20306584099E+03  0.52061115359E+02  0.74131401786E+03  0.77357113555E+03  0.70140809595E+02 0.  0.
         14    1    4    4    0    0  0.12343598647E+03 -0.11528471830E+02  0.23940909417E+03  0.26960352889E+03  0.00000000000E+00 0. -1.
        -13    1    4    4    0    0  0.73044991386E+02  0.35480272243E+02  0.29082343424E+03  0.30194815845E+03  0.00000000000E+00 0.  1.
          5    1    3    3  501    0  0.55606734980E+02 -0.15419269030E+02  0.26853061149E+02  0.63820370773E+02  0.47000000000E+01 0. -1.
         11    1    6    6    0    0 -0.12630867833E+03  0.10994701855E+02  0.33867363337E+03  0.36162770308E+03  0.00000000000E+00 0. -1.
        -12    1    6    6    0    0 -0.76757162656E+02  0.41066413503E+02  0.40264038449E+03  0.41194343247E+03  0.00000000000E+00 0.  1.
         -5    1    5    5    0  502 -0.49021871853E+02 -0.60593646742E+02  0.16483451712E+03  0.18239309740E+03  0.47000000000E+01 0.  1.
</event>
<event>
12    1  0.9749377E-001  0.1941290E+03  0.7818608E-02  0.1154789E+00
         21   -1    0    0  501  502  0.00000000000E+00  0.00000000000E+00  0.12090709354E+04  0.12090709354E+04  0.00000000000E+00 0. -1.
         21   -1    0    0  502  503 -0.00000000000E+00 -0.00000000000E+00 -0.39774832764E+02  0.39774832764E+02  0.00000000000E+00 0. -1.
         -6    2    1    2    0  503 -0.69020262363E+02 -0.99136313329E+02  0.76304348138E+03  0.79138137194E+03  0.17163133789E+03 0.  0.
        -24    2    3    3    0    0  0.11727801639E+02 -0.13123411037E+01  0.26220364612E+03  0.27470699676E+03  0.81079704382E+02 0.  0.
          6    2    1    2  501    0  0.69020262363E+02  0.99136313329E+02  0.40625262130E+03  0.45746439627E+03  0.17216467785E+03 0.  0.
         24    2    5    5    0    0  0.94686896966E+02  0.99512157882E+02  0.23063601616E+03  0.27991947409E+03  0.79332603631E+02 0.  0.
         12    1    6    6    0    0  0.94766986751E+02  0.46808919108E+02  0.14676752025E+03  0.18086614301E+03  0.00000000000E+00 0. -1.
        -11    1    6    6    0    0 -0.80089784401E-01  0.52703238774E+02  0.83868495913E+02  0.99053331081E+02  0.00000000000E+00 0.  1.
          5    1    5    5  501    0 -0.25666634603E+02 -0.37584455320E+00  0.17561660514E+03  0.17754492218E+03  0.47000000000E+01 0. -1.
         11    1    4    4    0    0 -0.27136319487E+02 -0.19995362223E+02  0.16438554987E+03  0.16780585018E+03  0.00000000000E+00 0. -1.
        -12    1    4    4    0    0  0.38864121126E+02  0.18683021119E+02  0.97818096244E+02  0.10690114659E+03  0.00000000000E+00 0.  1.
         -5    1    3    3    0  503 -0.80748064003E+02 -0.97823972225E+02  0.50083983526E+03  0.51667437518E+03  0.47000000000E+01 0.  1.
</event>
<event>
12    1  0.9749377E-001  0.2139376E+03  0.7818608E-02  0.1138485E+00
         21   -1    0    0  503  502  0.00000000000E+00  0.00000000000E+00  0.79205974703E+03  0.79205974703E+03  0.00000000000E+00 0.  1.
         21   -1    0    0  501  503 -0.00000000000E+00 -0.00000000000E+00 -0.14763447813E+03  0.14763447813E+03  0.00000000000E+00 0. -1.
          6    2    1    2  501    0 -0.86886326626E+02 -0.15397113151E+03  0.64687105154E+03  0.69284945697E+03  0.17418917767E+03 0.  0.
         24    2    3    3    0    0 -0.56239579004E+02 -0.17464051667E+03  0.60261737699E+03  0.63499684827E+03  0.80069307177E+02 0.  0.
         -6    2    1    2    0  502  0.86886326626E+02  0.15397113151E+03 -0.24457826365E+01  0.24684476820E+03  0.17224986108E+03 0.  0.
        -24    2    5    5    0    0  0.80297601195E+02  0.13078826145E+03 -0.60568936698E+02  0.18374763827E+03  0.80878454399E+02 0.  0.
         12    1    4    4    0    0  0.76576232875E+01 -0.67610315200E+02  0.13677554093E+03  0.15276564572E+03  0.00000000000E+00 0. -1.
        -11    1    4    4    0    0 -0.63897202291E+02 -0.10703020147E+03  0.46584183605E+03  0.48223120254E+03  0.00000000000E+00 0.  1.
          5    1    3    3  501    0 -0.30646747622E+02  0.20669385161E+02  0.44253674547E+02  0.57852608703E+02  0.47000000000E+01 0. -1.
         11    1    6    6    0    0  0.14878287448E+02  0.99926761573E+02 -0.31974018052E+02  0.10596725412E+03  0.00000000000E+00 0. -1.
        -12    1    6    6    0    0  0.65419313748E+02  0.30861499881E+02 -0.28594918645E+02  0.77780384150E+02  0.00000000000E+00 0.  1.
         -5    1    5    5    0  502  0.65887254302E+01  0.23182870051E+02  0.58123154061E+02  0.63097129924E+02  0.47000000000E+01 0.  1.
</event>
<event>
12    1  0.9749377E-001  0.1716755E+03  0.7818608E-02  0.1176112E+00
         21   -1    0    0  501  502  0.00000000000E+00  0.00000000000E+00  0.23348057018E+03  0.23348057018E+03  0.00000000000E+00 0. -1.
         21   -1    0    0  502  503 -0.00000000000E+00 -0.00000000000E+00 -0.20217424495E+03  0.20217424495E+03  0.00000000000E+00 0.  1.
         -6    2    1    2    0  503  0.65001965891E+02 -0.11431980558E+03 -0.95986829874E+01  0.21395243118E+03  0.16849105192E+03 0.  0.
        -24    2    3    3    0    0  0.85003066574E+02 -0.12740499720E+03  0.22599428959E+02  0.17357824783E+03  0.78492797718E+02 0.  0.
          6    2    1    2  501    0 -0.65001965891E+02  0.11431980558E+03  0.40905008213E+02  0.22170238395E+03  0.17373673715E+03 0.  0.
         24    2    5    5    0    0 -0.74698551548E+02  0.96523544413E+02 -0.30103344384E+02  0.14770909491E+03  0.77557057353E+02 0.  0.
         12    1    6    6    0    0 -0.19446479918E+02  0.86045544757E+02 -0.21726998187E+02  0.90851878373E+02  0.00000000000E+00 0. -1.
        -11    1    6    6    0    0 -0.55252071630E+02  0.10477999656E+02 -0.83763461969E+01  0.56857216532E+02  0.00000000000E+00 0.  1.
          5    1    5    5  501    0  0.96965856571E+01  0.17796261165E+02  0.71008352597E+02  0.73993289043E+02  0.47000000000E+01 0. -1.
         11    1    4    4    0    0  0.61265074733E+02 -0.10184892748E+03 -0.17826443484E+02  0.12018483889E+03  0.00000000000E+00 0. -1.
        -12    1    4    4    0    0  0.23737991841E+02 -0.25556069715E+02  0.40425872443E+02  0.53393408945E+02  0.00000000000E+00 0.  1.
         -5    1    3    3    0  503 -0.20001100683E+02  0.13085191618E+02 -0.32198111946E+02  0.40374183350E+02  0.47000000000E+01 0.  1.
</event>
<event>
12    1  0.9749377E-001  0.2891625E+03  0.7818608E-02  0.1090787E+00
         21   -1    0    0  503  502  0.00000000000E+00  0.00000000000E+00  0.58687638981E+03  0.58687638981E+03  0.00000000000E+00 0. -1.
         21   -1    0    0  501  503 -0.00000000000E+00 -0.00000000000E+00 -0.15649185750E+03  0.15649185750E+03  0.00000000000E+00 0.  1.
          6    2    1    2  501    0 -0.23969964335E+03  0.57260948460E+02  0.26773390818E+03  0.40185316186E+03  0.17049863011E+03 0.  0.
         24    2    3    3    0    0 -0.11007444857E+03  0.93559256820E+02  0.14476781657E+03  0.21947167158E+03  0.79626472658E+02 0.  0.
         -6    2    1    2    0  502  0.23969964335E+03 -0.57260948460E+02  0.16265062413E+03  0.34151508545E+03  0.17158844022E+03 0.  0.
        -24    2    5    5    0    0  0.23343829050E+03 -0.90088998613E+02  0.15968144822E+03  0.30763601489E+03  0.80822581044E+02 0.  0.
         14    1    4    4    0    0 -0.11540527632E+03  0.77728639072E+02  0.14724341132E+03  0.20258514583E+03  0.00000000000E+00 0. -1.
        -13    1    4    4    0    0  0.53308277435E+01  0.15830617748E+02 -0.24755947488E+01  0.16886525755E+02  0.00000000000E+00 0.  1.
          5    1    3    3  501    0 -0.12962519478E+03 -0.36298308360E+02  0.12296609161E+03  0.18238149028E+03  0.47000000000E+01 0. -1.
         11    1    6    6    0    0  0.18320629486E+02 -0.21507490625E+02  0.48100514151E+02  0.55784200984E+02  0.00000000000E+00 0. -1.
        -12    1    6    6    0    0  0.21511766102E+03 -0.68581507987E+02  0.11158093407E+03  0.25185181390E+03  0.00000000000E+00 0.  1.
         -5    1    5    5    0  502  0.62613528475E+01  0.32828050153E+02  0.29691759097E+01  0.33879070558E+02  0.47000000000E+01 0.  1.
</event>
<event>
12    1  0.9749377E-001  0.3313357E+03  0.7818608E-02  0.1070547E+00
         21   -1    0    0  501  502  0.00000000000E+00  0.00000000000E+00  0.53450041903E+03  0.53450041903E+03  0.00000000000E+00 0.  1.
         21   -1    0    0  502  503 -0.00000000000E+00 -0.00000000000E+00 -0.23862037024E+03  0.23862037024E+03  0.00000000000E+00 0. -1.
         -6    2    1    2    0  503 -0.75082675586E+02  0.30397283554E+03  0.15032528645E+03  0.38723272160E+03  0.17121505777E+03 0.  0.
        -24    2    3    3    0    0 -0.31048068283E+02  0.22259197732E+03  0.37480962881E+02  0.24122648171E+03  0.79209986660E+02 0.  0.
          6    2    1    2  501    0  0.75082675586E+02 -0.30397283554E+03  0.14555476235E+03  0.38588806767E+03  0.17229776263E+03 0.  0.
         24    2    5    5    0    0  0.34970510437E+02 -0.60791076859E+02  0.16583223979E+02  0.10767573642E+03  0.80003557865E+02 0.  0.
         12    1    6    6    0    0  0.44175221790E+02 -0.30458630086E+02  0.41110446595E+02  0.67596206892E+02  0.00000000000E+00 0. -1.
        -11    1    6    6    0    0 -0.92047113524E+01 -0.30332446772E+02 -0.24527222616E+02  0.40079529532E+02  0.00000000000E+00 0.  1.
          5    1    5    5  501    0  0.40112165149E+02 -0.24318175868E+03  0.12897153837E+03  0.27821233125E+03  0.47000000000E+01 0. -1.
         11    1    4    4    0    0 -0.55516512947E+02  0.11349526357E+03  0.15697026351E+02  0.12731714221E+03  0.00000000000E+00 0. -1.
        -12    1    4    4    0    0  0.24468444664E+02  0.10909671375E+03  0.21783936529E+02  0.11390933950E+03  0.00000000000E+00 0.  1.
         -5    1    3    3    0  503 -0.44034607303E+02  0.81380858223E+02  0.11284432357E+03  0.14600623989E+03  0.47000000000E+01 0.  1.
</event>
